Siesta Version  : v4.1.5-1-g384057250
Architecture    : gcc
Compiler version: GNU Fortran (Ubuntu 11.3.0-1ubuntu1~22.04) 11.3.0
Compiler flags  : mpifort -O2 -fPIC -ftree-vectorize -fallow-argument-mismatch
PP flags        : -DFC_HAVE_ABORT -DMPI -DSIESTA__FLOOK -DSIESTA__METIS -DSIESTA__MUMPS -DCDF -DNCDF -DNCDF_4 -DNCDF_PARALLEL -DSIESTA__MRRR -DSIESTA__ELPA
Libraries       : libncdf.a libfdict.a  -lflookall -ldl -lnetcdff -lnetcdf -lhdf5_hl -lhdf5 -lhdf5_fortran -lz -lscalapack-openmpi -lopenblas -lmetis -lzmumps -lcmumps -ldmumps -lmumps_common -lpord -lsmumps -lesmumps -lscotch -lscotcherr -fopenmp -lelpa
PARALLEL version
NetCDF support
NetCDF-4 support
NetCDF-4 MPI-IO support
METIS ordering support
Lua support

* Running on 4 nodes in parallel
>> Start of run:  28-JUN-2023  14:56:04

                           ***********************       
                           *  WELCOME TO SIESTA  *       
                           ***********************       

reinit: Reading from standard input
reinit: Dumped input in INPUT_TMP.05250
************************** Dump of input data file ****************************
SystemLabel      GC
NumberOfAtoms    29
NumberOfSpecies  4
%block ChemicalSpeciesLabel
    1    8  O
    2    7  N
    3   14  Si
    4    1  H
%endblock ChemicalSpeciesLabel
# Single point calculation
MD.TypeOfRun                CG
MD.Steps                    0
SCF.MustConverge            F # In case it does not. There can be 2 very close atoms
AtomicCoordinatesFormat NotScaledCartesianAng
%block AtomicCoordinatesAndAtomicSpecies
1.043624880    3.939228610    0.000000000       1
-3.040641290   1.071078170    0.000000000       2
2.054601450    1.213582070    0.000000000       2
0.999014100    -1.732643800   0.000000000       2
-2.132351640   -1.812968220   0.000000000       2
3.860190550    -1.112298180   0.000000000       2
-1.236183220   1.152964460    0.000000000       3
-0.532924260   -0.939006270   0.000000000       3
0.635660470    2.374516770    0.000000000       3
2.245170240    -0.549967100   0.000000000       3
-3.449816660   -0.583665030   0.000000000       3
2.963714090    1.790992630    0.000000000       4
-4.845591350   -1.123549660   0.000000000       4
4.007020910    -2.152308560   0.000000000       4
4.772194380    -0.502318160   0.000000000       4
-2.265399090   -2.864605110   0.000000000       4
4.996385046    4.938773387    0.000000000       3
6.901269016    6.145412327    0.000000000       3
6.405514876    2.172438417    0.000000000       3
8.482985166    4.641655577    0.000000000       3
5.056007716    3.221345817    0.000000000       2
3.457249986    5.692450697    0.000000000       2
8.057810136    2.902275637    0.000000000       2
7.092613816    7.637566077    0.000000000       4
9.967353146    4.860386397    0.000000000       4
3.345904706    6.741645807    0.000000000       4
2.524692276    5.067536517    0.000000000       4
6.395288046    0.564327297    0.000000000       1
8.833236016    2.175584077    0.000000000       4
%endblock AtomicCoordinatesAndAtomicSpecies
%include ../../../Defaults.fdf
************************** End of input data file *****************************

reinit: -----------------------------------------------------------------------
reinit: System Name: 
reinit: -----------------------------------------------------------------------
reinit: System Label: GC
reinit: -----------------------------------------------------------------------

initatom: Reading input for the pseudopotentials and atomic orbitals ----------
Species number:   1 Atomic number:    8 Label: O
Species number:   2 Atomic number:    7 Label: N
Species number:   3 Atomic number:   14 Label: Si
Species number:   4 Atomic number:    1 Label: H

Ground state valence configuration:   2s02  2p04
Reading pseudopotential information in formatted form from O.psf

Pseudopotential generated from a relativistic atomic calculation

Valence configuration for pseudopotential generation:
2s( 2.00) rc: 0.45
2p( 4.00) rc: 0.92
3d( 0.00) rc: 2.24
4f( 0.00) rc: 0.25
Ground state valence configuration:   2s02  2p03
Reading pseudopotential information in formatted form from N.psf

Pseudopotential generated from a relativistic atomic calculation

Valence configuration for pseudopotential generation:
2s( 2.00) rc: 0.94
2p( 3.00) rc: 0.59
3d( 0.00) rc: 3.46
4f( 0.00) rc: 2.47
Ground state valence configuration:   3s02  3p02
Reading pseudopotential information in formatted form from Si.psf

Pseudopotential generated from a relativistic atomic calculation

Valence configuration for pseudopotential generation:
3s( 2.00) rc: 1.67
3p( 2.00) rc: 2.04
3d( 0.00) rc: 2.89
4f( 0.00) rc: 2.49
Ground state valence configuration:   1s01
Reading pseudopotential information in formatted form from H.psf

Pseudopotential generated from a relativistic atomic calculation

Valence configuration for pseudopotential generation:
1s( 1.00) rc: 0.01
2p( 0.00) rc: 0.60
3d( 0.00) rc: 1.99
4f( 0.00) rc: 2.49
For O, standard SIESTA heuristics set lmxkb to 3
 (one more than the basis l, including polarization orbitals).
Use PS.lmax or PS.KBprojectors blocks to override.
For N, standard SIESTA heuristics set lmxkb to 3
 (one more than the basis l, including polarization orbitals).
Use PS.lmax or PS.KBprojectors blocks to override.
For Si, standard SIESTA heuristics set lmxkb to 3
 (one more than the basis l, including polarization orbitals).
Use PS.lmax or PS.KBprojectors blocks to override.
For H, standard SIESTA heuristics set lmxkb to 2
 (one more than the basis l, including polarization orbitals).
Use PS.lmax or PS.KBprojectors blocks to override.

<basis_specs>
===============================================================================
O                    Z=   8    Mass=  16.000        Charge= 0.17977+309
Lmxo=1 Lmxkb= 3    BasisType=split      Semic=F
L=0  Nsemic=0  Cnfigmx=2
          i=1  nzeta=2  polorb=0  (2s)
            splnorm:   0.28000    
               vcte:    0.0000    
               rinn:    0.0000    
               qcoe:    0.0000    
               qyuk:    0.0000    
               qwid:   0.10000E-01
                rcs:    0.0000      0.0000    
            lambdas:    1.0000      1.0000    
L=1  Nsemic=0  Cnfigmx=2
          i=1  nzeta=2  polorb=1  (2p)
            splnorm:   0.28000    
               vcte:    0.0000    
               rinn:    0.0000    
               qcoe:    0.0000    
               qyuk:    0.0000    
               qwid:   0.10000E-01
                rcs:    0.0000      0.0000    
            lambdas:    1.0000      1.0000    
-------------------------------------------------------------------------------
L=0  Nkbl=1  erefs: 0.17977+309
L=1  Nkbl=1  erefs: 0.17977+309
L=2  Nkbl=1  erefs: 0.17977+309
L=3  Nkbl=1  erefs: 0.17977+309
===============================================================================
</basis_specs>

atom: Called for O                     (Z =   8)

read_vps: Pseudopotential generation method:
read_vps: ATM4.2.7  Troullier-Martins                       
Valence charge for ps generation:    6.00000

xc_check: Exchange-correlation functional:
xc_check: GGA Perdew, Burke & Ernzerhof 1996
V l=0 = -2*Zval/r beyond r=  1.1000
V l=1 = -2*Zval/r beyond r=  1.1000
V l=2 = -2*Zval/r beyond r=  2.2154
V l=3 = -2*Zval/r beyond r=  1.1000
All V_l potentials equal beyond r=  2.2154
This should be close to max(r_c) in ps generation
All pots = -2*Zval/r beyond r=  2.2154

VLOCAL1: 99.0% of the norm of Vloc inside      8.845 Ry
VLOCAL1: 99.9% of the norm of Vloc inside     20.157 Ry
atom: Maximum radius for 4*pi*r*r*local-pseudopot. charge    2.67231
atom: Maximum radius for r*vlocal+2*Zval:    2.32897
GHOST: No ghost state for L =  0
GHOST: No ghost state for L =  1
GHOST: No ghost state for L =  2
GHOST: No ghost state for L =  3

KBgen: Kleinman-Bylander projectors: 
   l= 0   rc=  2.243238   el= -1.759686   Ekb=**********   kbcos= -0.171774
   l= 1   rc=  2.328968   el= -0.663873   Ekb=-14.506792   kbcos= -0.519897
   l= 2   rc=  2.573941   el=  0.002031   Ekb= -1.137373   kbcos= -0.019581
   l= 3   rc=  2.606321   el=  0.003153   Ekb= -1.013546   kbcos= -0.003122

KBgen: Total number of Kleinman-Bylander projectors:   16
atom: -------------------------------------------------------------------------

atom: SANKEY-TYPE ORBITALS:
atom: Selected multiple-zeta basis: split     

SPLIT: Orbitals with angular momentum L= 0

SPLIT: Basis orbitals for state 2s

SPLIT: PAO cut-off radius determined from an
SPLIT: energy shift=  0.002000 Ry

   izeta = 1
                 lambda =    1.000000
                     rc =    4.243912
                 energy =   -1.758270
                kinetic =    3.286084
    potential(screened) =   -5.044353
       potential(ionic) =  -12.921184

   izeta = 2
                 rmatch =    2.187845
              splitnorm =    0.280000
                 energy =   -0.885018
                kinetic =    8.134434
    potential(screened) =   -9.019452
       potential(ionic) =  -17.710645

SPLIT: Orbitals with angular momentum L= 1

SPLIT: Basis orbitals for state 2p

SPLIT: PAO cut-off radius determined from an
SPLIT: energy shift=  0.002000 Ry

   izeta = 1
                 lambda =    1.000000
                     rc =    5.314825
                 energy =   -0.661986
                kinetic =    4.917472
    potential(screened) =   -5.579458
       potential(ionic) =  -13.236259

   izeta = 2
                 rmatch =    2.160663
              splitnorm =    0.280000
                 energy =   -0.068760
                kinetic =    9.183374
    potential(screened) =   -9.252135
       potential(ionic) =  -18.274251

POLgen: Perturbative polarization orbital with L=  2

POLgen: Polarization orbital for state 2p

   izeta = 1
                     rc =    5.314825
                 energy =    1.970580
                kinetic =    3.886128
    potential(screened) =   -1.915547
       potential(ionic) =   -7.749584
atom: Total number of Sankey-type orbitals: 13

atm_pop: Valence configuration (for local Pseudopot. screening):
 2s( 2.00)                                                            
 2p( 4.00)                                                            
Vna: chval, zval:    6.00000   6.00000

Vna:  Cut-off radius for the neutral-atom potential:   5.314825

atom: _________________________________________________________________________

<basis_specs>
===============================================================================
N                    Z=   7    Mass=  14.010        Charge= 0.17977+309
Lmxo=1 Lmxkb= 3    BasisType=split      Semic=F
L=0  Nsemic=0  Cnfigmx=2
          i=1  nzeta=2  polorb=0  (2s)
            splnorm:   0.28000    
               vcte:    0.0000    
               rinn:    0.0000    
               qcoe:    0.0000    
               qyuk:    0.0000    
               qwid:   0.10000E-01
                rcs:    0.0000      0.0000    
            lambdas:    1.0000      1.0000    
L=1  Nsemic=0  Cnfigmx=2
          i=1  nzeta=2  polorb=1  (2p)
            splnorm:   0.28000    
               vcte:    0.0000    
               rinn:    0.0000    
               qcoe:    0.0000    
               qyuk:    0.0000    
               qwid:   0.10000E-01
                rcs:    0.0000      0.0000    
            lambdas:    1.0000      1.0000    
-------------------------------------------------------------------------------
L=0  Nkbl=1  erefs: 0.17977+309
L=1  Nkbl=1  erefs: 0.17977+309
L=2  Nkbl=1  erefs: 0.17977+309
L=3  Nkbl=1  erefs: 0.17977+309
===============================================================================
</basis_specs>

atom: Called for N                     (Z =   7)

read_vps: Pseudopotential generation method:
read_vps: ATM4.2.7  Troullier-Martins                       
Valence charge for ps generation:    5.00000

xc_check: Exchange-correlation functional:
xc_check: GGA Perdew, Burke & Ernzerhof 1996
V l=0 = -2*Zval/r beyond r=  1.2889
V l=1 = -2*Zval/r beyond r=  1.2889
V l=2 = -2*Zval/r beyond r=  3.4178
V l=3 = -2*Zval/r beyond r=  2.4084
All V_l potentials equal beyond r=  3.3753
This should be close to max(r_c) in ps generation
All pots = -2*Zval/r beyond r=  3.4178

VLOCAL1: 99.0% of the norm of Vloc inside      3.810 Ry
VLOCAL1: 99.9% of the norm of Vloc inside      8.683 Ry
atom: Maximum radius for 4*pi*r*r*local-pseudopot. charge    4.02088
atom: Maximum radius for r*vlocal+2*Zval:    3.54838
GHOST: No ghost state for L =  0
GHOST: No ghost state for L =  1
GHOST: No ghost state for L =  2
GHOST: No ghost state for L =  3

KBgen: Kleinman-Bylander projectors: 
   l= 0   rc=  3.417763   el= -1.365098   Ekb= -4.433130   kbcos= -0.707855
   l= 1   rc=  3.375302   el= -0.521201   Ekb=-13.264039   kbcos= -0.535594
   l= 2   rc=  3.872880   el=  0.001991   Ekb= -0.641094   kbcos= -0.062456
   l= 3   rc=  3.970931   el=  0.003093   Ekb= -0.474517   kbcos= -0.018236

KBgen: Total number of Kleinman-Bylander projectors:   16
atom: -------------------------------------------------------------------------

atom: SANKEY-TYPE ORBITALS:
atom: Selected multiple-zeta basis: split     

SPLIT: Orbitals with angular momentum L= 0

SPLIT: Basis orbitals for state 2s

SPLIT: PAO cut-off radius determined from an
SPLIT: energy shift=  0.002000 Ry

   izeta = 1
                 lambda =    1.000000
                     rc =    4.730425
                 energy =   -1.363399
                kinetic =    1.245246
    potential(screened) =   -2.608645
       potential(ionic) =   -8.121105

   izeta = 2
                 rmatch =    2.531849
              splitnorm =    0.280000
                 energy =   -0.959908
                kinetic =    2.409435
    potential(screened) =   -3.369343
       potential(ionic) =   -9.427975

SPLIT: Orbitals with angular momentum L= 1

SPLIT: Basis orbitals for state 2p

SPLIT: PAO cut-off radius determined from an
SPLIT: energy shift=  0.002000 Ry

   izeta = 1
                 lambda =    1.000000
                     rc =    5.924108
                 energy =   -0.519262
                kinetic =    3.672940
    potential(screened) =   -4.192202
       potential(ionic) =   -9.518354

   izeta = 2
                 rmatch =    2.531849
              splitnorm =    0.280000
                 energy =   -0.104258
                kinetic =    6.807538
    potential(screened) =   -6.911796
       potential(ionic) =  -13.149920

POLgen: Perturbative polarization orbital with L=  2

POLgen: Polarization orbital for state 2p

   izeta = 1
                     rc =    5.924108
                 energy =    1.427508
                kinetic =    2.872379
    potential(screened) =   -1.444871
       potential(ionic) =   -5.563644
atom: Total number of Sankey-type orbitals: 13

atm_pop: Valence configuration (for local Pseudopot. screening):
 2s( 2.00)                                                            
 2p( 3.00)                                                            
Vna: chval, zval:    5.00000   5.00000

Vna:  Cut-off radius for the neutral-atom potential:   5.924108

atom: _________________________________________________________________________

<basis_specs>
===============================================================================
Si                   Z=  14    Mass=  28.090        Charge= 0.17977+309
Lmxo=1 Lmxkb= 3    BasisType=split      Semic=F
L=0  Nsemic=0  Cnfigmx=3
          i=1  nzeta=2  polorb=0  (3s)
            splnorm:   0.28000    
               vcte:    0.0000    
               rinn:    0.0000    
               qcoe:    0.0000    
               qyuk:    0.0000    
               qwid:   0.10000E-01
                rcs:    0.0000      0.0000    
            lambdas:    1.0000      1.0000    
L=1  Nsemic=0  Cnfigmx=3
          i=1  nzeta=2  polorb=1  (3p)
            splnorm:   0.28000    
               vcte:    0.0000    
               rinn:    0.0000    
               qcoe:    0.0000    
               qyuk:    0.0000    
               qwid:   0.10000E-01
                rcs:    0.0000      0.0000    
            lambdas:    1.0000      1.0000    
-------------------------------------------------------------------------------
L=0  Nkbl=1  erefs: 0.17977+309
L=1  Nkbl=1  erefs: 0.17977+309
L=2  Nkbl=1  erefs: 0.17977+309
L=3  Nkbl=1  erefs: 0.17977+309
===============================================================================
</basis_specs>

atom: Called for Si                    (Z =  14)

read_vps: Pseudopotential generation method:
read_vps: ATM4.2.7  Troullier-Martins                       
Valence charge for ps generation:    4.00000

xc_check: Exchange-correlation functional:
xc_check: GGA Perdew, Burke & Ernzerhof 1996
V l=0 = -2*Zval/r beyond r=  2.7826
V l=1 = -2*Zval/r beyond r=  2.7826
V l=2 = -2*Zval/r beyond r=  2.9253
V l=3 = -2*Zval/r beyond r=  2.7826
All V_l potentials equal beyond r=  2.8530
This should be close to max(r_c) in ps generation
All pots = -2*Zval/r beyond r=  2.9253

VLOCAL1: 99.0% of the norm of Vloc inside      5.333 Ry
VLOCAL1: 99.9% of the norm of Vloc inside     12.154 Ry
atom: Maximum radius for 4*pi*r*r*local-pseudopot. charge    3.39869
atom: Maximum radius for r*vlocal+2*Zval:    2.96205
GHOST: No ghost state for L =  0
GHOST: No ghost state for L =  1
GHOST: No ghost state for L =  2
GHOST: No ghost state for L =  3

KBgen: Kleinman-Bylander projectors: 
   l= 0   rc=  3.075247   el= -0.794092   Ekb=  5.879390   kbcos=  0.167461
   l= 1   rc=  3.153101   el= -0.300068   Ekb=  2.642817   kbcos=  0.058301
   l= 2   rc=  3.273594   el=  0.001958   Ekb= -1.185135   kbcos= -0.104411
   l= 3   rc=  3.232927   el=  0.003046   Ekb= -0.497174   kbcos= -0.015889

KBgen: Total number of Kleinman-Bylander projectors:   16
atom: -------------------------------------------------------------------------

atom: SANKEY-TYPE ORBITALS:
atom: Selected multiple-zeta basis: split     

SPLIT: Orbitals with angular momentum L= 0

SPLIT: Basis orbitals for state 3s

SPLIT: PAO cut-off radius determined from an
SPLIT: energy shift=  0.002000 Ry

   izeta = 1
                 lambda =    1.000000
                     rc =    6.429618
                 energy =   -0.792283
                kinetic =    0.525293
    potential(screened) =   -1.317576
       potential(ionic) =   -3.744923

   izeta = 2
                 rmatch =    3.998416
              splitnorm =    0.280000
                 energy =   -0.583081
                kinetic =    1.069570
    potential(screened) =   -1.652651
       potential(ionic) =   -4.235185

SPLIT: Orbitals with angular momentum L= 1

SPLIT: Basis orbitals for state 3p

SPLIT: PAO cut-off radius determined from an
SPLIT: energy shift=  0.002000 Ry

   izeta = 1
                 lambda =    1.000000
                     rc =    8.464845
                 energy =   -0.298236
                kinetic =    0.785360
    potential(screened) =   -1.083596
       potential(ionic) =   -3.273779

   izeta = 2
                 rmatch =    4.587816
              splitnorm =    0.280000
                 energy =   -0.131871
                kinetic =    1.403687
    potential(screened) =   -1.535557
       potential(ionic) =   -4.015310

POLgen: Perturbative polarization orbital with L=  2

POLgen: Polarization orbital for state 3p

   izeta = 1
                     rc =    8.464845
                 energy =    0.321949
                kinetic =    1.055677
    potential(screened) =   -0.733728
       potential(ionic) =   -2.672950
atom: Total number of Sankey-type orbitals: 13

atm_pop: Valence configuration (for local Pseudopot. screening):
 3s( 2.00)                                                            
 3p( 2.00)                                                            
Vna: chval, zval:    4.00000   4.00000

Vna:  Cut-off radius for the neutral-atom potential:   8.464845

atom: _________________________________________________________________________

<basis_specs>
===============================================================================
H                    Z=   1    Mass=  1.0100        Charge= 0.17977+309
Lmxo=0 Lmxkb= 2    BasisType=split      Semic=F
L=0  Nsemic=0  Cnfigmx=1
          i=1  nzeta=2  polorb=1  (1s)
            splnorm:   0.62000    
               vcte:    0.0000    
               rinn:    0.0000    
               qcoe:    0.0000    
               qyuk:    0.0000    
               qwid:   0.10000E-01
                rcs:    0.0000      0.0000    
            lambdas:    1.0000      1.0000    
-------------------------------------------------------------------------------
L=0  Nkbl=1  erefs: 0.17977+309
L=1  Nkbl=1  erefs: 0.17977+309
L=2  Nkbl=1  erefs: 0.17977+309
===============================================================================
</basis_specs>

atom: Called for H                     (Z =   1)

read_vps: Pseudopotential generation method:
read_vps: ATM4.2.7  Troullier-Martins                       
Valence charge for ps generation:    1.00000

xc_check: Exchange-correlation functional:
xc_check: GGA Perdew, Burke & Ernzerhof 1996
V l=0 = -2*Zval/r beyond r=  0.0098
V l=1 = -2*Zval/r beyond r=  0.5817
V l=2 = -2*Zval/r beyond r=  1.9372
All V_l potentials equal beyond r=  1.9372
This should be close to max(r_c) in ps generation
All pots = -2*Zval/r beyond r=  1.9372

VLOCAL1: 99.0% of the norm of Vloc inside     11.567 Ry
VLOCAL1: 99.9% of the norm of Vloc inside     26.362 Ry
atom: Maximum radius for 4*pi*r*r*local-pseudopot. charge    2.25106
atom: Maximum radius for r*vlocal+2*Zval:    1.91306
GHOST: No ghost state for L =  0
GHOST: No ghost state for L =  1
GHOST: No ghost state for L =  2

KBgen: Kleinman-Bylander projectors: 
   l= 0   rc=  2.036604   el= -0.477180   Ekb= -6.081590   kbcos= -0.277285
   l= 1   rc=  2.195416   el=  0.001076   Ekb= -0.926943   kbcos= -0.034643
   l= 2   rc=  2.251056   el=  0.002010   Ekb= -0.130941   kbcos= -0.009788

KBgen: Total number of Kleinman-Bylander projectors:    9
atom: -------------------------------------------------------------------------

atom: SANKEY-TYPE ORBITALS:
atom: Selected multiple-zeta basis: split     

SPLIT: Orbitals with angular momentum L= 0

SPLIT: Basis orbitals for state 1s

SPLIT: PAO cut-off radius determined from an
SPLIT: energy shift=  0.002000 Ry

   izeta = 1
                 lambda =    1.000000
                     rc =    6.518340
                 energy =   -0.475305
                kinetic =    0.912139
    potential(screened) =   -1.387444
       potential(ionic) =   -1.907295

   izeta = 2
                 rmatch =    2.141150
              splitnorm =    0.620000
                 energy =    0.566467
                kinetic =    3.772856
    potential(screened) =   -3.206389
       potential(ionic) =   -3.759093

POLgen: Perturbative polarization orbital with L=  1

POLgen: Polarization orbital for state 1s

   izeta = 1
                     rc =    6.518340
                 energy =    0.533861
                kinetic =    1.121086
    potential(screened) =   -0.587225
       potential(ionic) =   -1.053027
atom: Total number of Sankey-type orbitals:  5

atm_pop: Valence configuration (for local Pseudopot. screening):
 1s( 1.00)                                                            
Vna: chval, zval:    1.00000   1.00000

Vna:  Cut-off radius for the neutral-atom potential:   6.518340

atom: _________________________________________________________________________

prinput: Basis input ----------------------------------------------------------

PAO.BasisType split     

%block ChemicalSpeciesLabel
    1    8 O                       # Species index, atomic number, species label
    2    7 N                       # Species index, atomic number, species label
    3   14 Si                      # Species index, atomic number, species label
    4    1 H                       # Species index, atomic number, species label
%endblock ChemicalSpeciesLabel

%block PAO.Basis                 # Define Basis set
O                     2                    # Species label, number of l-shells
 n=2   0   2                         # n, l, Nzeta 
   4.244      2.188   
   1.000      1.000   
 n=2   1   2 P   1                   # n, l, Nzeta, Polarization, NzetaPol
   5.315      2.161   
   1.000      1.000   
N                     2                    # Species label, number of l-shells
 n=2   0   2                         # n, l, Nzeta 
   4.730      2.532   
   1.000      1.000   
 n=2   1   2 P   1                   # n, l, Nzeta, Polarization, NzetaPol
   5.924      2.532   
   1.000      1.000   
Si                    2                    # Species label, number of l-shells
 n=3   0   2                         # n, l, Nzeta 
   6.430      3.998   
   1.000      1.000   
 n=3   1   2 P   1                   # n, l, Nzeta, Polarization, NzetaPol
   8.465      4.588   
   1.000      1.000   
H                     1                    # Species label, number of l-shells
 n=1   0   2 P   1                   # n, l, Nzeta, Polarization, NzetaPol
   6.518      2.141   
   1.000      1.000   
%endblock PAO.Basis

prinput: ----------------------------------------------------------------------

Dumping basis to NetCDF file O.ion.nc
Dumping basis to NetCDF file N.ion.nc
Dumping basis to NetCDF file Si.ion.nc
Dumping basis to NetCDF file H.ion.nc
coor:   Atomic-coordinates input format  =     Cartesian coordinates
coor:                                          (in Angstroms)

siesta: Atomic coordinates (Bohr) and species
siesta:      1.97217   7.44407   0.00000  1        1
siesta:     -5.74598   2.02405   0.00000  2        2
siesta:      3.88264   2.29334   0.00000  2        3
siesta:      1.88786  -3.27422   0.00000  2        4
siesta:     -4.02956  -3.42601   0.00000  2        5
siesta:      7.29471  -2.10194   0.00000  2        6
siesta:     -2.33605   2.17879   0.00000  3        7
siesta:     -1.00708  -1.77447   0.00000  3        8
siesta:      1.20122   4.48719   0.00000  3        9
siesta:      4.24276  -1.03929   0.00000  3       10
siesta:     -6.51921  -1.10297   0.00000  3       11
siesta:      5.60061   3.38449   0.00000  4       12
siesta:     -9.15684  -2.12320   0.00000  4       13
siesta:      7.57218  -4.06728   0.00000  4       14
siesta:      9.01814  -0.94924   0.00000  4       15
siesta:     -4.28099  -5.41332   0.00000  4       16
siesta:      9.44180   9.33293   0.00000  3       17
siesta:     13.04151  11.61315   0.00000  3       18
siesta:     12.10467   4.10532   0.00000  3       19
siesta:     16.03053   8.77146   0.00000  3       20
siesta:      9.55447   6.08746   0.00000  2       21
siesta:      6.53326  10.75718   0.00000  2       22
siesta:     15.22706   5.48451   0.00000  2       23
siesta:     13.40310  14.43291   0.00000  4       24
siesta:     18.83558   9.18480   0.00000  4       25
siesta:      6.32285  12.73987   0.00000  4       26
siesta:      4.77098   9.57626   0.00000  4       27
siesta:     12.08535   1.06642   0.00000  1       28
siesta:     16.69240   4.11126   0.00000  4       29

siesta: Automatic unit cell vectors (Ang):
siesta:   23.882822    0.000000    0.000000
siesta:    0.000000   19.140971    0.000000
siesta:    0.000000    0.000000    9.854683

siesta: System type = molecule  

initatomlists: Number of atoms, orbitals, and projectors:     29   297   394

siesta: ******************** Simulation parameters ****************************
siesta:
siesta: The following are some of the parameters of the simulation.
siesta: A complete list of the parameters used, including default values,
siesta: can be found in file out.fdf
siesta:
redata: Spin configuration                          = spin-orbit
redata: Number of spin components                   = 8
redata: Time-Reversal Symmetry                      = F
redata: Spin spiral                                 = F
############################################################
This spin-orbit implementation uses a local approximation.
From 4.2 and onwards the full non-local approximation is implemented
You are strongly advised to use >=4.2 versions!
############################################################
redata: Long output                                 =   F
redata: Number of Atomic Species                    =        4
redata: Charge density info will appear in .RHO file
redata: Write Mulliken Pop.                         = Atomic and Orbital charges
redata: Matel table size (NRTAB)                    =     1024
redata: Mesh Cutoff                                 =   340.0000 Ry
redata: Net charge of the system                    =     0.0000 |e|
redata: Min. number of SCF Iter                     =        1
redata: Max. number of SCF Iter                     =      200
redata: SCF mix quantity                            = Hamiltonian
redata: Mix DM or H after convergence               =   F
redata: Recompute H after scf cycle                 =   F
redata: Mix DM in first SCF step                    =   T
redata: Write Pulay info on disk                    =   F
redata: New DM Occupancy tolerance                  = 0.000000000001
redata: No kicks to SCF
redata: DM Mixing Weight for Kicks                  =     0.5000
redata: Require Harris convergence for SCF          =   F
redata: Harris energy tolerance for SCF             =     0.000100 eV
redata: Require DM convergence for SCF              =   T
redata: DM tolerance for SCF                        =     0.000008
redata: Require EDM convergence for SCF             =   F
redata: EDM tolerance for SCF                       =     0.001000 eV
redata: Require H convergence for SCF               =   T
redata: Hamiltonian tolerance for SCF               =     0.000001 eV
redata: Require (free) Energy convergence for SCF   =   F
redata: (free) Energy tolerance for SCF             =     0.000100 eV
redata: Using Saved Data (generic)                  =   F
redata: Use continuation files for DM               =   F
redata: Neglect nonoverlap interactions             =   F
redata: Method of Calculation                       = Diagonalization
redata: Electronic Temperature                      =   299.9978 K
redata: Fix the spin of the system                  =   F
redata: Dynamics option                             = Single-point calculation
mix.SCF: Pulay mixing                            = Pulay
mix.SCF:    Variant                              = stable
mix.SCF:    History steps                        = 6
mix.SCF:    Linear mixing weight                 =     0.250000
mix.SCF:    Mixing weight                        =     0.250000
mix.SCF:    SVD condition                        = 0.1000E-07
mix.SCF:    Restart steps                        = 24
mix.SCF:    Restart save steps                   = 3
mix.SCF: Spin-component mixing                   all
redata: Save all siesta data in one NC              =   F
redata: ***********************************************************************

%block SCF.Mixers
  Pulay
%endblock SCF.Mixers

%block SCF.Mixer.Pulay
  # Mixing method
  method pulay
  variant stable

  # Mixing options
  weight 0.2500
  weight.linear 0.2500
  history 6
  restart 24
  restart.save 3
%endblock SCF.Mixer.Pulay

DM_history_depth set to one: no extrapolation allowed by default for geometry relaxation
Size of DM history Fstack: 1
Total number of electrons:    98.000000
Total ionic charge:    98.000000

* ProcessorY, Blocksize:    2  24


* Orbital distribution balance (max,min):    81    72


Time-reversal symmetry not used.

siesta: k-grid: Number of k-points =     1
siesta: k-grid: Cutoff (effective) =     4.927 Ang
siesta: k-grid: Supercell and displacements
siesta: k-grid:    1   0   0      0.000
siesta: k-grid:    0   1   0      0.000
siesta: k-grid:    0   0   1      0.000

diag: Algorithm                                     = ELPA-1stage
diag: Parallel over k                               =   F
diag: Use parallel 2D distribution                  =   T
diag: Parallel block-size                           = 24
diag: Parallel distribution                         =     2 x     2
diag: Used triangular part                          = Lower
diag: Absolute tolerance                            =  0.100E-15
diag: Orthogonalization factor                      =  0.100E-05
diag: Memory factor                                 =  1.0000


ts: **************************************************************
ts: Save H and S matrices                           =    F
ts: Save DM and EDM matrices                        =    F
ts: Only save the overlap matrix S                  =    F
ts: **************************************************************

************************ Begin: TS CHECKS AND WARNINGS ************************
************************ End: TS CHECKS AND WARNINGS **************************


                     ====================================
                        Single-point calculation
                     ====================================

outcoor: Atomic coordinates (Ang):                          
    1.04362488    3.93922861    0.00000000   1       1  O
   -3.04064129    1.07107817    0.00000000   2       2  N
    2.05460145    1.21358207    0.00000000   2       3  N
    0.99901410   -1.73264380    0.00000000   2       4  N
   -2.13235164   -1.81296822    0.00000000   2       5  N
    3.86019055   -1.11229818    0.00000000   2       6  N
   -1.23618322    1.15296446    0.00000000   3       7  Si
   -0.53292426   -0.93900627    0.00000000   3       8  Si
    0.63566047    2.37451677    0.00000000   3       9  Si
    2.24517024   -0.54996710    0.00000000   3      10  Si
   -3.44981666   -0.58366503    0.00000000   3      11  Si
    2.96371409    1.79099263    0.00000000   4      12  H
   -4.84559135   -1.12354966    0.00000000   4      13  H
    4.00702091   -2.15230856    0.00000000   4      14  H
    4.77219438   -0.50231816    0.00000000   4      15  H
   -2.26539909   -2.86460511    0.00000000   4      16  H
    4.99638505    4.93877339    0.00000000   3      17  Si
    6.90126902    6.14541233    0.00000000   3      18  Si
    6.40551488    2.17243842    0.00000000   3      19  Si
    8.48298517    4.64165558    0.00000000   3      20  Si
    5.05600772    3.22134582    0.00000000   2      21  N
    3.45724999    5.69245070    0.00000000   2      22  N
    8.05781014    2.90227564    0.00000000   2      23  N
    7.09261382    7.63756608    0.00000000   4      24  H
    9.96735315    4.86038640    0.00000000   4      25  H
    3.34590471    6.74164581    0.00000000   4      26  H
    2.52469228    5.06753652    0.00000000   4      27  H
    6.39528805    0.56432730    0.00000000   1      28  O
    8.83323602    2.17558408    0.00000000   4      29  H

outcell: Unit cell vectors (Ang):
       23.882822    0.000000    0.000000
        0.000000   19.140971    0.000000
        0.000000    0.000000    9.854683

outcell: Cell vector modules (Ang)   :   23.882822   19.140971    9.854683
outcell: Cell angles (23,13,12) (deg):     90.0000     90.0000     90.0000
outcell: Cell volume (Ang**3)        :   4504.9739
<dSpData1D:S at geom step 0
  <sparsity:sparsity for geom step 0
    nrows_g=297 nrows=81 sparsity=.2244 nnzs=19795, refcount: 8>
  <dData1D:(new from dSpData1D) n=19795, refcount: 1>
refcount: 1>
new_DM -- step:     1
Initializing Density Matrix...
DM filled with atomic data:
<dSpData2D:DM initialized from atoms
  <sparsity:sparsity for geom step 0
    nrows_g=297 nrows=81 sparsity=.2244 nnzs=19795, refcount: 9>
  <dData2D:DM n=19795 m=8, refcount: 1>
refcount: 1>
     spin moment: S , {S} =   56.00000   0.00000   0.00000  56.00000
No. of atoms with KB's overlaping orbs in proc 0. Max # of overlaps:      29     192

Initializing spin-orbit part of the Hamiltonian
  Adding spin-orbit effects for O 
  Adding spin-orbit effects for N 
  Adding spin-orbit effects for Si
  Adding spin-orbit effects for H 


New grid distribution:   1
           1       1:  135    1:   54    1:   30
           2       1:  135    1:   54   31:   60
           3       1:  135   55:  108    1:   30
           4       1:  135   55:  108   31:   60

InitMesh: MESH =   270 x   216 x   120 =     6998400
InitMesh: (bp) =   135 x   108 x    60 =      874800
InitMesh: Mesh cutoff (required, used) =   340.000   351.950 Ry
ExtMesh (bp) on 0 =   239 x   158 x   142 =     5362204
New grid distribution:   2
           1      34:  135    1:   25    1:   60
           2       1:   33    1:   23    1:   60
           3      34:  135   26:  108    1:   60
           4       1:   33   24:  108    1:   60
New grid distribution:   3
           1      45:  135    1:   31    1:   60
           2       1:   44    1:   37    1:   60
           3      45:  135   32:  108    1:   60
           4       1:   44   38:  108    1:   60
Setting up quadratic distribution...
ExtMesh (bp) on 0 =   206 x   129 x   172 =     4570728
PhiOnMesh: Number of (b)points on node 0 =               153000
PhiOnMesh: nlist on node 0 =              2550454

stepf: Fermi-Dirac step function

siesta: Program's energy decomposition (eV):
siesta: Ebs     =      -615.062356
siesta: Eions   =      3585.165840
siesta: Ena     =       381.731146
siesta: Ekin    =      3361.296822
siesta: Enl     =     -3291.218927
siesta: Eso     =        -0.003438
siesta: Edftu   =         0.000000
siesta: DEna    =       153.880442
siesta: DUscf   =        78.156645
siesta: DUext   =         0.000000
siesta: Exc     =     -1202.675895
siesta: eta*DQ  =         0.000000
siesta: Emadel  =         0.000000
siesta: Emeta   =         0.000000
siesta: Emolmec =         0.000000
siesta: Ekinion =         0.000000
siesta: Eharris =     -4029.424463
siesta: Etot    =     -4103.999044
siesta: FreeEng =     -4104.000436

        iscf     Eharris(eV)        E_KS(eV)     FreeEng(eV)     dDmax    Ef(eV) dHmax(eV)
   scf:    1    -4029.424463    -4103.999044    -4104.000436  0.957488 -4.905978 20.380764
     spin moment: S , {S} =    2.00710   0.00000   0.00000   2.00710
timer: Routine,Calls,Time,% = IterSCF        1      12.417  17.65
   scf:    2    -4150.057937    -4138.349896    -4138.351685  0.463755 -4.201371 11.258664
     spin moment: S , {S} =    1.98920   0.00000   0.00000   1.98920
   scf:    3    -4111.509034    -4135.576856    -4135.596115  0.429299 -4.268886 11.428356
     spin moment: S , {S} =    2.00010   0.00000  -0.00000   2.00010
   scf:    4    -4151.180021    -4146.357040    -4146.357040  0.308895 -3.894194  6.074087
     spin moment: S , {S} =    0.00009   0.00000  -0.00000   0.00009
   scf:    5    -4147.521164    -4147.031337    -4147.031337  0.037518 -3.695332  4.310849
     spin moment: S , {S} =    0.00006   0.00000  -0.00000   0.00006
   scf:    6    -4147.793704    -4147.416542    -4147.416542  0.025015 -3.704909  2.095135
     spin moment: S , {S} =    0.00003   0.00000   0.00000   0.00003
   scf:    7    -4147.767218    -4147.590812    -4147.590812  0.021238 -3.647454  0.863534
     spin moment: S , {S} =    0.00001   0.00000   0.00000   0.00001
   scf:    8    -4147.708274    -4147.647980    -4147.647980  0.012125 -3.748246  0.472916
     spin moment: S , {S} =    0.00000  -0.00000  -0.00000   0.00000
   scf:    9    -4147.687623    -4147.667170    -4147.667170  0.006958 -3.777253  0.320038
     spin moment: S , {S} =    0.00000  -0.00000  -0.00000   0.00000
   scf:   10    -4147.715376    -4147.687373    -4147.687373  0.017609 -3.803406  0.147804
     spin moment: S , {S} =    0.00000   0.00000   0.00000  -0.00000
   scf:   11    -4147.690429    -4147.688833    -4147.688833  0.004832 -3.795772  0.050087
     spin moment: S , {S} =    0.00000  -0.00000   0.00000   0.00000
   scf:   12    -4147.689611    -4147.689223    -4147.689223  0.001871 -3.791470  0.030279
     spin moment: S , {S} =    0.00000  -0.00000   0.00000   0.00000
   scf:   13    -4147.689724    -4147.689460    -4147.689460  0.001828 -3.789924  0.023418
     spin moment: S , {S} =    0.00000   0.00000   0.00000   0.00000
   scf:   14    -4147.689847    -4147.689637    -4147.689637  0.001952 -3.789294  0.017117
     spin moment: S , {S} =    0.00000   0.00000   0.00000   0.00000
   scf:   15    -4147.689943    -4147.689768    -4147.689768  0.002248 -3.788814  0.010350
     spin moment: S , {S} =    0.00000   0.00000   0.00000   0.00000
   scf:   16    -4147.689908    -4147.689822    -4147.689822  0.001884 -3.788726  0.004526
     spin moment: S , {S} =    0.00000   0.00000   0.00000   0.00000
   scf:   17    -4147.689843    -4147.689830    -4147.689830  0.000702 -3.788921  0.002389
     spin moment: S , {S} =    0.00000  -0.00000   0.00000   0.00000
   scf:   18    -4147.689835    -4147.689832    -4147.689832  0.000309 -3.789013  0.001059
     spin moment: S , {S} =    0.00000  -0.00000   0.00000   0.00000
   scf:   19    -4147.689833    -4147.689833    -4147.689833  0.000116 -3.789015  0.000531
     spin moment: S , {S} =    0.00000  -0.00000   0.00000  -0.00000
   scf:   20    -4147.689833    -4147.689833    -4147.689833  0.000038 -3.788977  0.000356
     spin moment: S , {S} =    0.00000  -0.00000   0.00000  -0.00000
   scf:   21    -4147.689833    -4147.689833    -4147.689833  0.000056 -3.788939  0.000215
     spin moment: S , {S} =    0.00000  -0.00000   0.00000  -0.00000
   scf:   22    -4147.689833    -4147.689833    -4147.689833  0.000017 -3.788917  0.000087
     spin moment: S , {S} =    0.00000  -0.00000   0.00000  -0.00000
   scf:   23    -4147.689833    -4147.689833    -4147.689833  0.000006 -3.788916  0.000051
     spin moment: S , {S} =    0.00000   0.00000   0.00000  -0.00000
   scf:   24    -4147.689833    -4147.689833    -4147.689833  0.000003 -3.788913  0.000034
     spin moment: S , {S} =    0.00000   0.00000   0.00000  -0.00000
mix: Pulay -- resetting history
   scf:   25    -4147.689833    -4147.689833    -4147.689833  0.000004 -3.788909  0.000013
     spin moment: S , {S} =    0.00000  -0.00000   0.00000  -0.00000
   scf:   26    -4147.689833    -4147.689833    -4147.689833  0.000002 -3.788907  0.000007
     spin moment: S , {S} =    0.00000  -0.00000   0.00000   0.00000
   scf:   27    -4147.689833    -4147.689833    -4147.689833  0.000001 -3.788906  0.000004
     spin moment: S , {S} =    0.00000  -0.00000   0.00000   0.00000
   scf:   28    -4147.689833    -4147.689833    -4147.689833  0.000000 -3.788906  0.000003
     spin moment: S , {S} =    0.00000  -0.00000   0.00000   0.00000
   scf:   29    -4147.689833    -4147.689833    -4147.689833  0.000000 -3.788906  0.000002
     spin moment: S , {S} =    0.00000  -0.00000   0.00000   0.00000
   scf:   30    -4147.689833    -4147.689833    -4147.689833  0.000000 -3.788906  0.000001
     spin moment: S , {S} =    0.00000   0.00000   0.00000   0.00000

SCF Convergence by DM+H criterion
max |DM_out - DM_in|         :     0.0000004054
max |H_out - H_in|      (eV) :     0.0000008737
SCF cycle converged after 30 iterations

Using DM_out to compute the final energy and forces
No. of atoms with KB's overlaping orbs in proc 0. Max # of overlaps:      29     192

siesta: E_KS(eV) =            -4147.6898

siesta: E_KS - E_eggbox =     -4147.6898
     spin moment: S , {S} =    0.00000   0.00000   0.00000   0.00000

siesta: Atomic forces (eV/Ang):
     1    4.137247   -0.650624    0.000000
     2   -0.032089    0.036532   -0.000000
     3    0.335560   -0.073553   -0.000000
     4    0.258615    0.006103   -0.000000
     5    0.010538   -0.020354    0.000000
     6    0.966317    0.471669    0.000000
     7    0.013781   -0.089644    0.000000
     8   -0.134771    0.100452   -0.000000
     9   -0.014087    0.466775    0.000000
    10   -0.304951    0.166853    0.000000
    11   -0.009863   -0.006717   -0.000000
    12   -0.050311   -0.171997    0.000000
    13   -0.021029   -0.041391    0.000000
    14    0.056187   -0.062925   -0.000000
    15   -0.459592   -0.340226   -0.000000
    16   -0.060825    0.163491   -0.000000
    17    0.299456   -0.438915    0.000000
    18   -0.078221    0.074444   -0.000000
    19   -0.112933   -0.403899    0.000000
    20   -0.016175   -0.149358    0.000000
    21   -0.124826    0.312848    0.000000
    22   -1.212110   -0.645538   -0.000000
    23    0.080152    0.137649   -0.000000
    24    0.018332   -0.131994   -0.000000
    25    0.137104   -0.004173   -0.000000
    26   -0.008737   -0.198465   -0.000000
    27    0.620295    0.547533    0.000000
    28   -3.861571   -2.970458    0.000000
    29   -0.010657    0.135934   -0.000000
----------------------------------------
   Tot    0.420835   -3.779951   -0.000000
----------------------------------------
   Max    4.137247
   Res    0.732577    sqrt( Sum f_i^2 / 3N )
----------------------------------------
   Max    4.137247    constrained

Stress tensor Voigt[x,y,z,yz,xz,xy] (kbar):        0.55        1.83       -0.09        0.00        0.00        1.26
(Free)E + p*V (eV/cell)    -4149.8352
Target enthalpy (eV/cell)    -4147.6898

mulliken: Atomic and Orbital Populations:

Species: O                   

Atom      Orb        Charge      Spin       Svec
----------------------------------------------------------------
    1  1 2s         1.75060   0.00000      0.000   0.000   0.000
    1  2 2s         0.05586   0.00000     -0.000  -0.000   0.000
    1  3 2py        1.40201   0.00000      0.000  -0.000   0.000
    1  4 2pz        1.59872   0.00000     -0.000   0.000   0.000
    1  5 2px        1.63577   0.00000      0.000   0.000   0.000
    1  6 2py        0.05964   0.00000      0.000   0.000  -0.000
    1  7 2pz       -0.01568   0.00000      0.000  -0.000   0.000
    1  8 2px       -0.00044   0.00000     -0.000  -0.000  -0.000
    1  9 3Pdxy      0.00701   0.00000      0.000   0.000  -0.000
    1 10 3Pdyz      0.00783   0.00000     -0.000   0.000  -0.000
    1 11 3Pdz2      0.00152   0.00000     -0.000  -0.000   0.000
    1 12 3Pdxz      0.00014   0.00000     -0.000  -0.000  -0.000
    1 13 3Pdx2-y2   0.00600   0.00000      0.000  -0.000  -0.000
    1     Total     6.50897   0.00000      0.000   0.000   0.000

   28  1 2s         1.75506   0.00000      0.000  -0.000   0.000
   28  2 2s         0.05480   0.00000     -0.000   0.000  -0.000
   28  3 2py        1.38784   0.00000      0.000  -0.000   0.000
   28  4 2pz        1.58934   0.00000      0.000   0.000  -0.000
   28  5 2px        1.65513   0.00000     -0.000  -0.000  -0.000
   28  6 2py        0.05906   0.00000      0.000   0.000  -0.000
   28  7 2pz       -0.01297   0.00000     -0.000   0.000  -0.000
   28  8 2px        0.00037   0.00000     -0.000   0.000  -0.000
   28  9 3Pdxy      0.00678   0.00000     -0.000   0.000   0.000
   28 10 3Pdyz      0.00889   0.00000     -0.000   0.000   0.000
   28 11 3Pdz2      0.00126   0.00000     -0.000   0.000   0.000
   28 12 3Pdxz     -0.00015   0.00000     -0.000   0.000   0.000
   28 13 3Pdx2-y2   0.00732   0.00000     -0.000   0.000  -0.000
   28     Total     6.51273   0.00000      0.000   0.000  -0.000

----------------------------------------------------------------
Total              13.02170   0.00000      0.000   0.000   0.000


Species: N                   

Atom      Orb        Charge      Spin       Svec
----------------------------------------------------------------
    2  1 2s         1.54880   0.00000     -0.000   0.000   0.000
    2  2 2s         0.08496   0.00000      0.000  -0.000   0.000
    2  3 2py        1.04371   0.00000     -0.000  -0.000   0.000
    2  4 2pz        1.22477   0.00000      0.000  -0.000   0.000
    2  5 2px        0.99264   0.00000     -0.000  -0.000   0.000
    2  6 2py        0.18814   0.00000      0.000   0.000  -0.000
    2  7 2pz        0.05525   0.00000     -0.000  -0.000  -0.000
    2  8 2px        0.19553   0.00000      0.000   0.000  -0.000
    2  9 3Pdxy      0.00835   0.00000     -0.000  -0.000   0.000
    2 10 3Pdyz      0.01095   0.00000     -0.000   0.000  -0.000
    2 11 3Pdz2      0.00191   0.00000     -0.000  -0.000  -0.000
    2 12 3Pdxz      0.00758   0.00000     -0.000   0.000  -0.000
    2 13 3Pdx2-y2   0.00907   0.00000      0.000   0.000   0.000
    2     Total     5.37167   0.00000     -0.000  -0.000   0.000

    3  1 2s         1.38632   0.00000     -0.000  -0.000  -0.000
    3  2 2s         0.12268   0.00000      0.000   0.000   0.000
    3  3 2py        0.93801   0.00000     -0.000  -0.000   0.000
    3  4 2pz        1.54187   0.00000     -0.000  -0.000   0.000
    3  5 2px        1.08106   0.00000      0.000  -0.000  -0.000
    3  6 2py        0.25273   0.00000     -0.000   0.000  -0.000
    3  7 2pz        0.00534   0.00000      0.000   0.000  -0.000
    3  8 2px        0.18235   0.00000     -0.000   0.000   0.000
    3  9 3Pdxy      0.00407   0.00000     -0.000  -0.000  -0.000
    3 10 3Pdyz      0.00395   0.00000      0.000   0.000   0.000
    3 11 3Pdz2      0.00063   0.00000     -0.000  -0.000  -0.000
    3 12 3Pdxz      0.00271   0.00000      0.000   0.000   0.000
    3 13 3Pdx2-y2   0.00251   0.00000     -0.000  -0.000  -0.000
    3     Total     5.52423   0.00000     -0.000  -0.000   0.000

    4  1 2s         1.46134   0.00000     -0.000  -0.000   0.000
    4  2 2s         0.11897   0.00000      0.000   0.000  -0.000
    4  3 2py        1.12732   0.00000      0.000   0.000   0.000
    4  4 2pz        1.29328   0.00000      0.000  -0.000  -0.000
    4  5 2px        0.82664   0.00000      0.000   0.000   0.000
    4  6 2py        0.15055   0.00000      0.000  -0.000  -0.000
    4  7 2pz        0.05311   0.00000     -0.000  -0.000  -0.000
    4  8 2px        0.29265   0.00000     -0.000   0.000  -0.000
    4  9 3Pdxy      0.00872   0.00000      0.000  -0.000  -0.000
    4 10 3Pdyz      0.01046   0.00000     -0.000   0.000  -0.000
    4 11 3Pdz2      0.00126   0.00000      0.000   0.000  -0.000
    4 12 3Pdxz      0.00479   0.00000     -0.000  -0.000  -0.000
    4 13 3Pdx2-y2   0.00798   0.00000      0.000   0.000  -0.000
    4     Total     5.35706   0.00000      0.000  -0.000  -0.000

    5  1 2s         1.37569   0.00000      0.000  -0.000   0.000
    5  2 2s         0.12828   0.00000      0.000   0.000  -0.000
    5  3 2py        1.02640   0.00000     -0.000   0.000   0.000
    5  4 2pz        1.50125   0.00000      0.000  -0.000   0.000
    5  5 2px        1.05985   0.00000      0.000   0.000   0.000
    5  6 2py        0.20358   0.00000      0.000   0.000  -0.000
    5  7 2pz        0.01332   0.00000     -0.000   0.000  -0.000
    5  8 2px        0.20150   0.00000     -0.000  -0.000  -0.000
    5  9 3Pdxy      0.00388   0.00000      0.000  -0.000  -0.000
    5 10 3Pdyz      0.00244   0.00000      0.000  -0.000  -0.000
    5 11 3Pdz2      0.00143   0.00000      0.000  -0.000  -0.000
    5 12 3Pdxz      0.00664   0.00000     -0.000  -0.000  -0.000
    5 13 3Pdx2-y2   0.00562   0.00000      0.000  -0.000  -0.000
    5     Total     5.52988   0.00000      0.000   0.000   0.000

    6  1 2s         1.26245   0.00000     -0.000   0.000   0.000
    6  2 2s         0.18268   0.00000      0.000   0.000  -0.000
    6  3 2py        1.06885   0.00000     -0.000   0.000   0.000
    6  4 2pz        1.53480   0.00000      0.000   0.000   0.000
    6  5 2px        0.97265   0.00000     -0.000  -0.000   0.000
    6  6 2py        0.19456   0.00000      0.000   0.000   0.000
    6  7 2pz        0.03296   0.00000     -0.000  -0.000  -0.000
    6  8 2px        0.25585   0.00000      0.000   0.000   0.000
    6  9 3Pdxy      0.00232   0.00000     -0.000  -0.000  -0.000
    6 10 3Pdyz      0.00006   0.00000      0.000   0.000  -0.000
    6 11 3Pdz2      0.00157   0.00000     -0.000   0.000  -0.000
    6 12 3Pdxz      0.00371   0.00000      0.000  -0.000  -0.000
    6 13 3Pdx2-y2   0.00427   0.00000      0.000   0.000  -0.000
    6     Total     5.51674   0.00000     -0.000   0.000   0.000

   21  1 2s         1.41598   0.00000      0.000  -0.000   0.000
   21  2 2s         0.12949   0.00000     -0.000   0.000  -0.000
   21  3 2py        0.88037   0.00000      0.000  -0.000   0.000
   21  4 2pz        1.31617   0.00000     -0.000  -0.000   0.000
   21  5 2px        1.16925   0.00000     -0.000  -0.000   0.000
   21  6 2py        0.27388   0.00000      0.000   0.000   0.000
   21  7 2pz        0.04456   0.00000     -0.000   0.000  -0.000
   21  8 2px        0.15647   0.00000      0.000   0.000  -0.000
   21  9 3Pdxy      0.00629   0.00000      0.000  -0.000   0.000
   21 10 3Pdyz      0.00461   0.00000      0.000   0.000   0.000
   21 11 3Pdz2     -0.00000   0.00000      0.000   0.000  -0.000
   21 12 3Pdxz      0.00578   0.00000      0.000   0.000  -0.000
   21 13 3Pdx2-y2   0.00575   0.00000     -0.000  -0.000   0.000
   21     Total     5.40858   0.00000      0.000  -0.000   0.000

   22  1 2s         1.28521   0.00000      0.000   0.000   0.000
   22  2 2s         0.17296   0.00000     -0.000  -0.000  -0.000
   22  3 2py        1.05638   0.00000     -0.000  -0.000   0.000
   22  4 2pz        1.50296   0.00000      0.000   0.000   0.000
   22  5 2px        1.01134   0.00000     -0.000   0.000   0.000
   22  6 2py        0.20004   0.00000      0.000   0.000   0.000
   22  7 2pz        0.03186   0.00000     -0.000  -0.000  -0.000
   22  8 2px        0.23288   0.00000      0.000   0.000  -0.000
   22  9 3Pdxy      0.00318   0.00000     -0.000  -0.000  -0.000
   22 10 3Pdyz      0.00023   0.00000      0.000   0.000  -0.000
   22 11 3Pdz2      0.00228   0.00000     -0.000  -0.000  -0.000
   22 12 3Pdxz      0.00384   0.00000      0.000   0.000  -0.000
   22 13 3Pdx2-y2   0.00479   0.00000      0.000   0.000  -0.000
   22     Total     5.50796   0.00000      0.000   0.000   0.000

   23  1 2s         1.37975   0.00000     -0.000  -0.000   0.000
   23  2 2s         0.12648   0.00000      0.000   0.000  -0.000
   23  3 2py        1.00828   0.00000     -0.000  -0.000   0.000
   23  4 2pz        1.53485   0.00000     -0.000  -0.000   0.000
   23  5 2px        1.05555   0.00000     -0.000  -0.000   0.000
   23  6 2py        0.21330   0.00000      0.000   0.000   0.000
   23  7 2pz        0.00430   0.00000     -0.000   0.000  -0.000
   23  8 2px        0.20080   0.00000      0.000   0.000  -0.000
   23  9 3Pdxy      0.00540   0.00000      0.000  -0.000  -0.000
   23 10 3Pdyz      0.00451   0.00000     -0.000   0.000   0.000
   23 11 3Pdz2      0.00077   0.00000      0.000  -0.000   0.000
   23 12 3Pdxz      0.00244   0.00000      0.000  -0.000  -0.000
   23 13 3Pdx2-y2   0.00143   0.00000     -0.000   0.000  -0.000
   23     Total     5.53785   0.00000     -0.000  -0.000   0.000

----------------------------------------------------------------
Total              56.77565   0.00000     -0.000  -0.000   0.000


Species: Si                  

Atom      Orb        Charge      Spin       Svec
----------------------------------------------------------------
    7  1 3s         0.66402   0.00000     -0.000   0.000  -0.000
    7  2 3s         0.36630   0.00000      0.000  -0.000  -0.000
    7  3 3py        0.46947   0.00000      0.000  -0.000  -0.000
    7  4 3pz        0.69871   0.00000     -0.000   0.000   0.000
    7  5 3px        0.12068   0.00000      0.000   0.000  -0.000
    7  6 3py        0.27608   0.00000     -0.000   0.000  -0.000
    7  7 3pz        0.26089   0.00000      0.000   0.000  -0.000
    7  8 3px        0.44047   0.00000     -0.000   0.000  -0.000
    7  9 3Pdxy      0.24592   0.00000      0.000   0.000  -0.000
    7 10 3Pdyz      0.02856   0.00000      0.000  -0.000   0.000
    7 11 3Pdz2      0.01132   0.00000     -0.000   0.000  -0.000
    7 12 3Pdxz      0.14639   0.00000      0.000   0.000   0.000
    7 13 3Pdx2-y2   0.11368   0.00000      0.000   0.000   0.000
    7     Total     3.84250   0.00000      0.000   0.000  -0.000

    8  1 3s         0.65459   0.00000     -0.000  -0.000  -0.000
    8  2 3s         0.36886   0.00000      0.000   0.000  -0.000
    8  3 3py        0.39180   0.00000     -0.000   0.000   0.000
    8  4 3pz        0.50790   0.00000      0.000  -0.000  -0.000
    8  5 3px       -0.02479   0.00000      0.000   0.000   0.000
    8  6 3py        0.30688   0.00000      0.000  -0.000  -0.000
    8  7 3pz        0.20485   0.00000      0.000   0.000  -0.000
    8  8 3px        0.51467   0.00000     -0.000  -0.000  -0.000
    8  9 3Pdxy      0.24831   0.00000      0.000   0.000   0.000
    8 10 3Pdyz      0.11222   0.00000      0.000  -0.000   0.000
    8 11 3Pdz2      0.01376   0.00000     -0.000  -0.000  -0.000
    8 12 3Pdxz      0.15620   0.00000      0.000  -0.000  -0.000
    8 13 3Pdx2-y2   0.20223   0.00000      0.000   0.000  -0.000
    8     Total     3.65749   0.00000      0.000  -0.000  -0.000

    9  1 3s         0.59953   0.00000      0.000   0.000   0.000
    9  2 3s         0.37034   0.00000     -0.000   0.000  -0.000
    9  3 3py        0.10395   0.00000      0.000   0.000   0.000
    9  4 3pz        0.47788   0.00000     -0.000  -0.000   0.000
    9  5 3px        0.35861   0.00000     -0.000   0.000   0.000
    9  6 3py        0.41596   0.00000     -0.000  -0.000   0.000
    9  7 3pz        0.18898   0.00000     -0.000   0.000   0.000
    9  8 3px        0.28438   0.00000      0.000  -0.000  -0.000
    9  9 3Pdxy      0.28882   0.00000     -0.000   0.000   0.000
    9 10 3Pdyz      0.18966   0.00000      0.000   0.000   0.000
    9 11 3Pdz2      0.01227   0.00000      0.000  -0.000   0.000
    9 12 3Pdxz      0.10521   0.00000      0.000   0.000   0.000
    9 13 3Pdx2-y2   0.17797   0.00000     -0.000  -0.000   0.000
    9     Total     3.57357   0.00000     -0.000   0.000   0.000

   10  1 3s         0.48127   0.00000     -0.000   0.000   0.000
   10  2 3s         0.37832   0.00000      0.000  -0.000  -0.000
   10  3 3py        0.23798   0.00000     -0.000   0.000  -0.000
   10  4 3pz        0.41219   0.00000     -0.000  -0.000  -0.000
   10  5 3px        0.10114   0.00000     -0.000  -0.000  -0.000
   10  6 3py        0.32551   0.00000      0.000  -0.000  -0.000
   10  7 3pz        0.22032   0.00000      0.000   0.000  -0.000
   10  8 3px        0.43698   0.00000      0.000   0.000   0.000
   10  9 3Pdxy      0.17366   0.00000     -0.000   0.000   0.000
   10 10 3Pdyz      0.13386   0.00000      0.000  -0.000  -0.000
   10 11 3Pdz2      0.00971   0.00000     -0.000   0.000  -0.000
   10 12 3Pdxz      0.17986   0.00000     -0.000   0.000  -0.000
   10 13 3Pdx2-y2   0.30861   0.00000      0.000   0.000  -0.000
   10     Total     3.39941   0.00000     -0.000   0.000  -0.000

   11  1 3s         0.55353   0.00000      0.000  -0.000  -0.000
   11  2 3s         0.38506   0.00000     -0.000   0.000  -0.000
   11  3 3py        0.32339   0.00000     -0.000  -0.000  -0.000
   11  4 3pz        0.54014   0.00000     -0.000  -0.000  -0.000
   11  5 3px        0.12619   0.00000     -0.000   0.000  -0.000
   11  6 3py        0.28634   0.00000      0.000   0.000  -0.000
   11  7 3pz        0.17729   0.00000      0.000   0.000  -0.000
   11  8 3px        0.44570   0.00000      0.000   0.000   0.000
   11  9 3Pdxy      0.22592   0.00000      0.000  -0.000  -0.000
   11 10 3Pdyz      0.12682   0.00000     -0.000   0.000  -0.000
   11 11 3Pdz2      0.00960   0.00000     -0.000  -0.000   0.000
   11 12 3Pdxz      0.05308   0.00000      0.000   0.000  -0.000
   11 13 3Pdx2-y2   0.20442   0.00000      0.000  -0.000  -0.000
   11     Total     3.45748   0.00000     -0.000   0.000  -0.000

   17  1 3s         0.63479   0.00000      0.000   0.000   0.000
   17  2 3s         0.36143   0.00000     -0.000  -0.000  -0.000
   17  3 3py        0.21831   0.00000      0.000   0.000  -0.000
   17  4 3pz        0.41984   0.00000      0.000   0.000  -0.000
   17  5 3px        0.23975   0.00000      0.000  -0.000   0.000
   17  6 3py        0.38167   0.00000     -0.000  -0.000  -0.000
   17  7 3pz        0.21379   0.00000     -0.000  -0.000  -0.000
   17  8 3px        0.38008   0.00000     -0.000   0.000  -0.000
   17  9 3Pdxy      0.29038   0.00000     -0.000   0.000  -0.000
   17 10 3Pdyz      0.13966   0.00000     -0.000   0.000  -0.000
   17 11 3Pdz2      0.00831   0.00000      0.000  -0.000  -0.000
   17 12 3Pdxz      0.14450   0.00000     -0.000  -0.000   0.000
   17 13 3Pdx2-y2   0.16995   0.00000     -0.000   0.000  -0.000
   17     Total     3.60246   0.00000      0.000   0.000  -0.000

   18  1 3s         0.74191   0.00000     -0.000  -0.000  -0.000
   18  2 3s         0.34256   0.00000      0.000  -0.000   0.000
   18  3 3py        0.06711   0.00000      0.000  -0.000  -0.000
   18  4 3pz        0.80505   0.00000      0.000   0.000   0.000
   18  5 3px        0.55676   0.00000     -0.000  -0.000  -0.000
   18  6 3py        0.52578   0.00000     -0.000   0.000  -0.000
   18  7 3pz        0.19802   0.00000     -0.000  -0.000  -0.000
   18  8 3px        0.25239   0.00000      0.000   0.000   0.000
   18  9 3Pdxy      0.10219   0.00000      0.000  -0.000   0.000
   18 10 3Pdyz      0.02779   0.00000     -0.000   0.000   0.000
   18 11 3Pdz2      0.00833   0.00000      0.000   0.000  -0.000
   18 12 3Pdxz      0.03178   0.00000     -0.000  -0.000  -0.000
   18 13 3Pdx2-y2   0.10944   0.00000     -0.000  -0.000  -0.000
   18     Total     3.76911   0.00000     -0.000  -0.000  -0.000

   19  1 3s         0.46037   0.00000      0.000   0.000  -0.000
   19  2 3s         0.36439   0.00000     -0.000  -0.000  -0.000
   19  3 3py        0.08518   0.00000     -0.000  -0.000  -0.000
   19  4 3pz        0.41515   0.00000      0.000   0.000  -0.000
   19  5 3px        0.30198   0.00000      0.000  -0.000   0.000
   19  6 3py        0.45706   0.00000     -0.000   0.000  -0.000
   19  7 3pz        0.18777   0.00000      0.000  -0.000  -0.000
   19  8 3px        0.27272   0.00000     -0.000   0.000  -0.000
   19  9 3Pdxy      0.32659   0.00000      0.000   0.000   0.000
   19 10 3Pdyz      0.18776   0.00000     -0.000   0.000  -0.000
   19 11 3Pdz2      0.01282   0.00000     -0.000   0.000  -0.000
   19 12 3Pdxz      0.09679   0.00000      0.000  -0.000  -0.000
   19 13 3Pdx2-y2   0.24383   0.00000      0.000   0.000   0.000
   19     Total     3.41241   0.00000      0.000   0.000  -0.000

   20  1 3s         0.67600   0.00000     -0.000   0.000   0.000
   20  2 3s         0.37674   0.00000      0.000  -0.000  -0.000
   20  3 3py        0.33276   0.00000      0.000  -0.000  -0.000
   20  4 3pz        0.60516   0.00000     -0.000  -0.000  -0.000
   20  5 3px        0.14089   0.00000      0.000   0.000   0.000
   20  6 3py        0.28746   0.00000      0.000   0.000   0.000
   20  7 3pz        0.16285   0.00000      0.000   0.000  -0.000
   20  8 3px        0.49930   0.00000     -0.000  -0.000  -0.000
   20  9 3Pdxy      0.09931   0.00000     -0.000   0.000   0.000
   20 10 3Pdyz      0.13085   0.00000     -0.000   0.000   0.000
   20 11 3Pdz2      0.00759   0.00000     -0.000   0.000  -0.000
   20 12 3Pdxz      0.02656   0.00000      0.000  -0.000   0.000
   20 13 3Pdx2-y2   0.17531   0.00000      0.000   0.000  -0.000
   20     Total     3.52079   0.00000     -0.000   0.000  -0.000

----------------------------------------------------------------
Total              89.01086   0.00000     -0.000   0.000  -0.000


Species: H                   

Atom      Orb        Charge      Spin       Svec
----------------------------------------------------------------
   12  1 1s         0.47928   0.00000     -0.000  -0.000  -0.000
   12  2 1s         0.18205   0.00000      0.000   0.000  -0.000
   12  3 2Ppy       0.03373   0.00000      0.000  -0.000  -0.000
   12  4 2Ppz       0.03062   0.00000      0.000  -0.000  -0.000
   12  5 2Ppx       0.03624   0.00000      0.000   0.000  -0.000
   12     Total     0.76192   0.00000      0.000   0.000  -0.000

   13  1 1s         1.01990   0.00000      0.000  -0.000   0.000
   13  2 1s         0.09538   0.00000     -0.000  -0.000  -0.000
   13  3 2Ppy       0.01806   0.00000      0.000  -0.000   0.000
   13  4 2Ppz       0.02009   0.00000      0.000   0.000  -0.000
   13  5 2Ppx       0.03503   0.00000     -0.000  -0.000   0.000
   13     Total     1.18847   0.00000      0.000   0.000   0.000

   14  1 1s         0.47760   0.00000      0.000  -0.000  -0.000
   14  2 1s         0.19737   0.00000     -0.000   0.000  -0.000
   14  3 2Ppy       0.01945   0.00000      0.000   0.000   0.000
   14  4 2Ppz       0.04694   0.00000     -0.000  -0.000  -0.000
   14  5 2Ppx       0.01902   0.00000     -0.000  -0.000   0.000
   14     Total     0.76038   0.00000      0.000  -0.000  -0.000

   15  1 1s         0.46744   0.00000      0.000  -0.000  -0.000
   15  2 1s         0.17534   0.00000     -0.000   0.000  -0.000
   15  3 2Ppy       0.02330   0.00000      0.000  -0.000  -0.000
   15  4 2Ppz       0.03895   0.00000     -0.000  -0.000  -0.000
   15  5 2Ppx       0.06492   0.00000      0.000   0.000  -0.000
   15     Total     0.76995   0.00000      0.000  -0.000  -0.000

   16  1 1s         0.50858   0.00000     -0.000  -0.000  -0.000
   16  2 1s         0.18739   0.00000     -0.000   0.000  -0.000
   16  3 2Ppy       0.02976   0.00000     -0.000   0.000  -0.000
   16  4 2Ppz       0.03952   0.00000     -0.000   0.000  -0.000
   16  5 2Ppx       0.02347   0.00000     -0.000  -0.000  -0.000
   16     Total     0.78872   0.00000     -0.000  -0.000  -0.000

   24  1 1s         1.06216   0.00000      0.000   0.000   0.000
   24  2 1s         0.07402   0.00000     -0.000  -0.000  -0.000
   24  3 2Ppy       0.03244   0.00000     -0.000  -0.000  -0.000
   24  4 2Ppz       0.03012   0.00000      0.000  -0.000   0.000
   24  5 2Ppx       0.01743   0.00000      0.000   0.000   0.000
   24     Total     1.21617   0.00000      0.000   0.000   0.000

   25  1 1s         1.04226   0.00000     -0.000  -0.000   0.000
   25  2 1s         0.08669   0.00000      0.000  -0.000  -0.000
   25  3 2Ppy       0.01222   0.00000     -0.000   0.000   0.000
   25  4 2Ppz       0.01893   0.00000     -0.000   0.000   0.000
   25  5 2Ppx       0.03562   0.00000      0.000  -0.000   0.000
   25     Total     1.19571   0.00000     -0.000  -0.000   0.000

   26  1 1s         0.48739   0.00000      0.000   0.000  -0.000
   26  2 1s         0.19460   0.00000     -0.000   0.000  -0.000
   26  3 2Ppy       0.02303   0.00000      0.000  -0.000   0.000
   26  4 2Ppz       0.04817   0.00000     -0.000  -0.000   0.000
   26  5 2Ppx       0.01798   0.00000      0.000  -0.000   0.000
   26     Total     0.77116   0.00000      0.000   0.000  -0.000

   27  1 1s         0.47113   0.00000     -0.000  -0.000  -0.000
   27  2 1s         0.16775   0.00000     -0.000  -0.000  -0.000
   27  3 2Ppy       0.03109   0.00000     -0.000   0.000  -0.000
   27  4 2Ppz       0.03586   0.00000     -0.000   0.000  -0.000
   27  5 2Ppx       0.06836   0.00000      0.000  -0.000  -0.000
   27     Total     0.77419   0.00000     -0.000   0.000  -0.000

   29  1 1s         0.48897   0.00000      0.000   0.000  -0.000
   29  2 1s         0.18739   0.00000      0.000  -0.000  -0.000
   29  3 2Ppy       0.02499   0.00000      0.000   0.000  -0.000
   29  4 2Ppz       0.03495   0.00000      0.000  -0.000  -0.000
   29  5 2Ppx       0.02617   0.00000      0.000   0.000  -0.000
   29     Total     0.76247   0.00000      0.000  -0.000  -0.000

----------------------------------------------------------------
Total              98.00000   0.00000      0.000   0.000   0.000


siesta: Eigenvalues (eV):
ik =     1
  -22.4463  -22.4463  -22.0467  -22.0467  -21.3256  -21.3256  -21.2480  -21.2480  -21.1258  -21.1258
  -20.9936  -20.9936  -20.4469  -20.4469  -19.5963  -19.5963  -19.5700  -19.5700  -19.3583  -19.3583
  -14.7975  -14.7975  -13.7894  -13.7894  -13.2817  -13.2817  -13.1042  -13.1042  -12.8737  -12.8737
  -12.7585  -12.7585  -12.5486  -12.5486  -12.1538  -12.1538  -11.8750  -11.8750  -11.7849  -11.7849
  -11.1046  -11.1046  -10.8419  -10.8419  -10.6192  -10.6192  -10.4922  -10.4922  -10.1900  -10.1900
   -9.6422   -9.6422   -9.0722   -9.0722   -8.9200   -8.9200   -8.8139   -8.8139   -8.5837   -8.5837
   -8.5818   -8.5818   -8.4406   -8.4406   -8.2663   -8.2663   -8.0206   -8.0206   -7.8435   -7.8435
   -7.6464   -7.6464   -7.3732   -7.3732   -7.1651   -7.1651   -7.0228   -7.0228   -6.8207   -6.8207
   -6.6075   -6.6075   -6.4829   -6.4829   -6.3766   -6.3766   -6.3490   -6.3490   -6.2217   -6.2217
   -6.1855   -6.1855   -5.9439   -5.9439   -5.5782   -5.5782   -4.3096   -4.3096   -3.2687   -3.2687
   -2.3552   -2.3552   -2.3440   -2.3440   -2.1899   -2.1899   -1.8672   -1.8672   -1.8648   -1.8648
   -1.8455   -1.8455   -1.6865   -1.6865   -1.6193   -1.6193   -1.2378   -1.2378   -1.2088   -1.2088
   -1.0064   -1.0064   -0.6151   -0.6151   -0.4136   -0.4136   -0.3117   -0.3117    0.3056    0.3056
    0.4702    0.4702    0.5059    0.5059    0.6377    0.6377    0.9332    0.9333    1.1261    1.1261
    1.3367    1.3367    1.3826    1.3826    1.3944    1.3944    1.4964    1.4964    1.9014    1.9014
    2.0235    2.0235    2.5106    2.5106    2.6558    2.6558    2.7388    2.7388    2.7670    2.7670
    2.8091    2.8091    2.8464    2.8464    3.0299    3.0299    3.4356    3.4356    3.5195    3.5195
    3.7705    3.7705    4.0198    4.0198    4.1375    4.1375    4.1662    4.1662    4.2797    4.2797
    4.5193    4.5193    4.6167    4.6167    4.7209    4.7209    4.9522    4.9522    5.0532    5.0532
    5.2419    5.2419    5.3079    5.3079    5.5453    5.5453    5.6630    5.6630    5.7508    5.7508
    5.9151    5.9151    5.9844    5.9844    6.2264    6.2264    6.3842    6.3842    6.5189    6.5189
    6.5739    6.5739    6.6687    6.6687    6.7477    6.7477    6.8436    6.8436    7.0228    7.0228
    7.2290    7.2290    7.4656    7.4656    7.6238    7.6238    7.7742    7.7742    7.9792    7.9792
    8.0218    8.0218    8.1884    8.1884    8.2323    8.2323    8.4291    8.4291    8.6834    8.6834
    8.8091    8.8091    8.8241    8.8241    8.9574    8.9574    9.0497    9.0497    9.3746    9.3746
    9.4602    9.4602    9.8372    9.8372    9.8713    9.8713    9.9140    9.9140   10.0612   10.0612
   10.2213   10.2213   10.4812   10.4812   10.6869   10.6869   11.1188   11.1188   11.2345   11.2345
   11.2747   11.2747   11.5912   11.5912   12.1247   12.1247   12.2133   12.2133   12.2549   12.2549
   12.3722   12.3722   12.4883   12.4883   12.5308   12.5308   12.6513   12.6513   12.9856   12.9856
   13.3129   13.3129   13.3983   13.3983   13.5553   13.5553   13.7643   13.7643   13.8888   13.8888
   14.1431   14.1431   14.2800   14.2800   14.6024   14.6024   14.7892   14.7892   14.9859   14.9859
   15.3121   15.3121   15.7949   15.7949   16.3037   16.3037   16.6294   16.6294   16.7718   16.7718
   17.1345   17.1345   17.5343   17.5343   17.8950   17.8950   18.5698   18.5698   18.8584   18.8584
   19.1449   19.1449   19.8466   19.8466   20.2041   20.2041   20.4091   20.4091   20.4963   20.4963
   21.1282   21.1282   21.9171   21.9171   22.1945   22.1945   22.5454   22.5454   23.2784   23.2784
   23.5912   23.5912   23.7828   23.7828   24.0731   24.0731   24.3572   24.3572   25.1430   25.1430
   25.3439   25.3439   25.7241   25.7241   26.2826   26.2826   27.5484   27.5484   28.6710   28.6710
   29.2726   29.2726   29.6931   29.6931   29.8668   29.8668   30.2493   30.2493   30.3637   30.3637
   30.6791   30.6791   30.8313   30.8313   30.9716   30.9716   31.3311   31.3311   31.5042   31.5042
   31.6197   31.6197   32.0788   32.0788   33.3245   33.3245   33.7539   33.7539   34.1050   34.1050
   34.1226   34.1226   34.9481   34.9481   35.1021   35.1021   35.2026   35.2026   35.6002   35.6002
   36.0275   36.0275   36.0468   36.0468   36.1093   36.1093   37.0627   37.0627   37.8692   37.8692
   38.3541   38.3541   38.7298   38.7298   38.8833   38.8833   39.2446   39.2446   39.4839   39.4839
   39.6191   39.6191   39.9771   39.9771   40.8631   40.8631   41.0219   41.0219   41.2748   41.2748
   41.6888   41.6888   41.9118   41.9118   42.0835   42.0835   42.2757   42.2757   42.8770   42.8770
   43.1270   43.1270   43.6958   43.6958   43.8556   43.8556   44.2355   44.2355   44.4413   44.4413
   44.8708   44.8708   44.9114   44.9114   45.1223   45.1223   45.4668   45.4668   45.5098   45.5098
   46.0555   46.0555   46.7266   46.7266   47.2506   47.2506   47.5926   47.5926   48.5795   48.5795
   48.7937   48.7937   49.6908   49.6908   50.1213   50.1213   50.2818   50.2818   50.3041   50.3041
   50.5725   50.5725   51.2677   51.2677   51.8122   51.8122   52.5066   52.5066   52.9677   52.9677
   53.5978   53.5978   53.6937   53.6937   54.9522   54.9522   55.5476   55.5476   55.8049   55.8049
   55.8891   55.8891   56.2653   56.2653   56.5301   56.5301   57.9988   57.9988   58.0091   58.0091
   58.9222   58.9222   59.3521   59.3521   59.4384   59.4384   60.0680   60.0680   61.1414   61.1414
   61.7134   61.7134   61.8377   61.8377   62.3635   62.3635   62.5630   62.5630   65.5788   65.5788
   66.0794   66.0794   66.1693   66.1693   67.1981   67.1981   67.3108   67.3108   67.4907   67.4907
   68.0098   68.0098   69.6344   69.6344   70.8401   70.8401   74.9814   74.9814   78.0323   78.0323
   79.1163   79.1163   86.6332   86.6332   92.2724   92.2724   92.7348   92.7348   94.2745   94.2745
   98.9049   98.9049   99.5910   99.5910  102.0365  102.0365  103.8471  103.8471  105.0489  105.0489
  113.9075  113.9075  116.1753  116.1753  124.5148  124.5148  127.0933  127.0933  136.1786  136.1786
  142.2766  142.2766  144.9429  144.9429
siesta: Fermi energy =      -3.788906 eV

siesta: Program's energy decomposition (eV):
siesta: Ebs     =     -1133.281012
siesta: Eions   =      3585.165840
siesta: Ena     =       381.731146
siesta: Ekin    =      2905.405097
siesta: Enl     =     -2790.514407
siesta: Eso     =        -0.004302
siesta: Edftu   =         0.000000
siesta: DEna    =        47.789048
siesta: DUscf   =        13.767342
siesta: DUext   =         0.000000
siesta: Exc     =     -1120.697917
siesta: eta*DQ  =         0.000000
siesta: Emadel  =         0.000000
siesta: Emeta   =         0.000000
siesta: Emolmec =         0.000000
siesta: Ekinion =         0.000000
siesta: Eharris =     -4147.689833
siesta: Etot    =     -4147.689833
siesta: FreeEng =     -4147.689833

siesta: Final energy (eV):
siesta:  Band Struct. =   -1133.281012
siesta:       Kinetic =    2905.405097
siesta:       Hartree =    8873.790667
siesta:       Edftu   =       0.000000
siesta:       Eso     =      -0.004302
siesta:    Ext. field =       0.000000
siesta:   Exch.-corr. =   -1120.697917
siesta:  Ion-electron =  -20331.378264
siesta:       Ion-ion =    5525.194886
siesta:       Ekinion =       0.000000
siesta:         Total =   -4147.689833
siesta:         Fermi =      -3.788906

siesta: Atomic forces (eV/Ang):
siesta:      1    4.137247   -0.650624    0.000000
siesta:      2   -0.032089    0.036532   -0.000000
siesta:      3    0.335560   -0.073553   -0.000000
siesta:      4    0.258615    0.006103   -0.000000
siesta:      5    0.010538   -0.020354    0.000000
siesta:      6    0.966317    0.471669    0.000000
siesta:      7    0.013781   -0.089644    0.000000
siesta:      8   -0.134771    0.100452   -0.000000
siesta:      9   -0.014087    0.466775    0.000000
siesta:     10   -0.304951    0.166853    0.000000
siesta:     11   -0.009863   -0.006717   -0.000000
siesta:     12   -0.050311   -0.171997    0.000000
siesta:     13   -0.021029   -0.041391    0.000000
siesta:     14    0.056187   -0.062925   -0.000000
siesta:     15   -0.459592   -0.340226   -0.000000
siesta:     16   -0.060825    0.163491   -0.000000
siesta:     17    0.299456   -0.438915    0.000000
siesta:     18   -0.078221    0.074444   -0.000000
siesta:     19   -0.112933   -0.403899    0.000000
siesta:     20   -0.016175   -0.149358    0.000000
siesta:     21   -0.124826    0.312848    0.000000
siesta:     22   -1.212110   -0.645538   -0.000000
siesta:     23    0.080152    0.137649   -0.000000
siesta:     24    0.018332   -0.131994   -0.000000
siesta:     25    0.137104   -0.004173   -0.000000
siesta:     26   -0.008737   -0.198465   -0.000000
siesta:     27    0.620295    0.547533    0.000000
siesta:     28   -3.861571   -2.970458    0.000000
siesta:     29   -0.010657    0.135934   -0.000000
siesta: ----------------------------------------
siesta:    Tot    0.420835   -3.779951   -0.000000

siesta: Stress tensor (static) (eV/Ang**3):
siesta:     0.000342    0.000784    0.000000
siesta:     0.000784    0.001141    0.000000
siesta:     0.000000    0.000000   -0.000054

siesta: Cell volume =       4504.973863 Ang**3

siesta: Pressure (static):
siesta:                Solid            Molecule  Units
siesta:          -0.00000519          0.00001301  Ry/Bohr**3
siesta:          -0.00047623          0.00119435  eV/Ang**3
siesta:          -0.76300722          1.91358584  kBar
(Free)E+ p_basis*V_orbitals  =       -4127.839415
(Free)Eharris+ p_basis*V_orbitals  =       -4127.839415
     spin moment: S , {S} =    0.00000   0.00000   0.00000   0.00000

siesta: Electric dipole (a.u.)  =    1.656558    0.156148   -0.000000
siesta: Electric dipole (Debye) =    4.210553    0.396888   -0.000000

cite: Please see "GC.bib" for an exhaustive BiBTeX file.
cite: Please clearly indicate Siesta version in published work: v4.1.5-1-g384057250
cite: This calculation has made use of the following articles
cite: which are encouraged to be cited in a published work.
        Primary SIESTA paper
          DOI: www.doi.org/10.1088/0953-8984/14/11/302
        Spin-orbit coupling (on-site approximation)
          DOI: www.doi.org/10.1088/0953-8984/19/19/489001


WARNING: alloc-realloc-dealloc name mismatch
         Name: atomlist isa
         Size:              -116. Bytes
         Node:     0
         Subsequent mismatches will not be reported
>> End of run:  28-JUN-2023  15:00:22
Job completed
