<?xml version="1.0" encoding="UTF-8" ?>
<psml version="1.1" energy_unit="hartree" length_unit="bohr"
 uuid="f5b98c10-10f3-11ef-4f6f-ebe6fc5dc7dd"
 xmlns="http://esl.cecam.org/PSML/ns/1.1">
<provenance creator="ATM4.2.7" date="13-MAY-24">
<annotation action="semilocal-pseudopotential-generation" />
<input-file name="INP">
<![CDATA[   pg Silicon
        tm2      4.0
   Si   vlr
      0.00
    3    4
    3    0      1.00      1.00
    3    1      1.00      1.00
    3    2      0.00      0.00
    4    3      0.00      0.00
      1.47      2.08      2.98      3.71      0.00      0.00
]]>
</input-file>
</provenance>
<pseudo-atom-spec atomic-label="Si" atomic-number="14" z-pseudo="4"
 flavor="Troullier-Martins" relativity="dirac" spin-dft="no"
 core-corrections="no">
<annotation pseudo-energy="-3.78773807005" />
<exchange-correlation>
<annotation atom-xc-code="vl" siesta-xc-type="VDW" siesta-xc-authors="LMKLL" />
<libxc-info number-of-functionals="2">
<functional name="XC_GGA_X_OPTB88_VDW" type="XC_EXCHANGE" id="139" />
<functional name="XC_NOT_IMPL" type="XC_EXCHANGE_CORRELATION" id="-1" />
</libxc-info>
</exchange-correlation>
<valence-configuration total-valence-charge="4">
<shell n="3" l="s" occupation="2" />
<shell n="3" l="p" occupation="2" />
</valence-configuration>
</pseudo-atom-spec>
<grid npts="376">
<annotation type="sampled-log-atom"
 recipe="r(i:1..N) = a*(exp(b*(i-1))-1); resampled"
 recipe-cont="a: scale; b: step" scale="0.177053726905E-03"
 step="0.125000000000E-01" delta="0.500000000000E-02" rmax="20" />
<grid-data>
  0.000000000000E+00  5.062298916504E-03  1.011320763748E-02  1.517421232168E-02
  2.028757462025E-02  2.545126523066E-02  3.073659984152E-02  3.573948755673E-02
  4.103364701456E-02  4.652078806808E-02  5.208120548357E-02  5.757725458177E-02
  6.285843931485E-02  6.862254753887E-02  7.398094606465E-02  7.975667890972E-02
  8.491196174541E-02  9.039973175815E-02  9.624143252852E-02  1.024598906292E-01
  1.077221992951E-01  1.132543122957E-01  1.190700627951E-01  1.251839931988E-01
  1.316113915176E-01  1.366472912027E-01  1.418756226718E-01  1.473037391278E-01
  1.529392747540E-01  1.587901554511E-01  1.648646099843E-01  1.711711815565E-01
  1.777187398231E-01  1.845164933671E-01  1.915740026497E-01  1.989011934564E-01
  2.039408832776E-01  2.091081534541E-01  2.144062336978E-01  2.198384354815E-01
  2.254081541081E-01  2.311188708329E-01  2.369741550400E-01  2.429776664724E-01
  2.491331575204E-01  2.554444755661E-01  2.619155653888E-01  2.685504716302E-01
  2.753533413229E-01  2.823284264817E-01  2.894800867620E-01  2.968127921842E-01
  3.043311259280E-01  3.120397871966E-01  3.199435941544E-01  3.280474869379E-01
  3.363565307439E-01  3.448759189953E-01  3.536109765870E-01  3.625671632145E-01
  3.717500767859E-01  3.811654569212E-01  3.908191885393E-01  4.007173055369E-01
  4.057599358078E-01  4.108659945592E-01  4.160362796232E-01  4.212715988673E-01
  4.265727703208E-01  4.319406223026E-01  4.373759935504E-01  4.428797333520E-01
  4.484527016780E-01  4.540957693161E-01  4.598098180070E-01  4.655957405824E-01
  4.714544411046E-01  4.773868350073E-01  4.833938492393E-01  4.894764224088E-01
  4.956355049300E-01  5.018720591723E-01  5.081870596100E-01  5.145814929746E-01
  5.210563584094E-01  5.276126676253E-01  5.342514450590E-01  5.409737280329E-01
  5.477805669174E-01  5.546730252950E-01  5.616521801263E-01  5.687191219184E-01
  5.758749548954E-01  5.831207971708E-01  5.904577809221E-01  5.978870525679E-01
  6.054097729471E-01  6.130271175001E-01  6.207402764524E-01  6.285504550008E-01
  6.364588735016E-01  6.444667676612E-01  6.525753887295E-01  6.607860036950E-01
  6.690998954829E-01  6.775183631558E-01  6.860427221164E-01  6.946743043131E-01
  7.034144584481E-01  7.122645501884E-01  7.212259623788E-01  7.303000952582E-01
  7.394883666782E-01  7.487922123251E-01  7.582130859435E-01  7.677524595643E-01
  7.774118237338E-01  7.871926877475E-01  7.970965798852E-01  8.071250476502E-01
  8.172796580110E-01  8.275619976462E-01  8.379736731922E-01  8.485163114945E-01
  8.591915598618E-01  8.700010863233E-01  8.809465798897E-01  8.920297508164E-01
  9.032523308716E-01  9.146160736062E-01  9.261227546280E-01  9.377741718795E-01
  9.495721459183E-01  9.615185202018E-01  9.736151613753E-01  9.858639595636E-01
  9.982668286664E-01  1.010825706657E+00  1.023542555886E+00  1.036419363387E+00
  1.049458141187E+00  1.062660926621E+00  1.076029782653E+00  1.089566798192E+00
  1.103274088425E+00  1.117153795144E+00  1.131208087081E+00  1.145439160249E+00
  1.159849238280E+00  1.174440572780E+00  1.189215443674E+00  1.204176159565E+00
  1.219325058096E+00  1.234664506314E+00  1.250196901037E+00  1.265924669235E+00
  1.281850268402E+00  1.297976186948E+00  1.314304944578E+00  1.330839092694E+00
  1.347581214792E+00  1.364533926861E+00  1.381699877797E+00  1.399081749816E+00
  1.416682258869E+00  1.434504155072E+00  1.452550223133E+00  1.470823282787E+00
  1.489326189236E+00  1.508061833597E+00  1.527033143353E+00  1.546243082810E+00
  1.565694653559E+00  1.585390894947E+00  1.605334884554E+00  1.625529738668E+00
  1.645978612775E+00  1.666684702055E+00  1.687651241875E+00  1.708881508300E+00
  1.730378818602E+00  1.752146531781E+00  1.774188049085E+00  1.796506814546E+00
  1.819106315517E+00  1.841990083215E+00  1.865161693277E+00  1.888624766313E+00
  1.912382968477E+00  1.936440012034E+00  1.960799655949E+00  1.985465706464E+00
  2.010442017700E+00  2.035732492256E+00  2.061341081822E+00  2.087271787790E+00
  2.113528661886E+00  2.140115806801E+00  2.167037376830E+00  2.194297578523E+00
  2.221900671342E+00  2.249850968327E+00  2.278152836767E+00  2.306810698888E+00
  2.335829032539E+00  2.365212371894E+00  2.394965308159E+00  2.425092490291E+00
  2.455598625723E+00  2.486488481102E+00  2.517766883029E+00  2.549438718820E+00
  2.581508937262E+00  2.613982549393E+00  2.646864629280E+00  2.680160314816E+00
  2.713874808519E+00  2.748013378347E+00  2.782581358521E+00  2.817584150359E+00
  2.853027223118E+00  2.888916114849E+00  2.925256433267E+00  2.962053856618E+00
  2.999314134576E+00  3.037043089135E+00  3.075246615520E+00  3.113930683110E+00
  3.153101336371E+00  3.192764695795E+00  3.232926958863E+00  3.273594401011E+00
  3.314773376610E+00  3.356470319957E+00  3.398691746286E+00  3.441444252780E+00
  3.484734519605E+00  3.528569310954E+00  3.572955476101E+00  3.617899950476E+00
  3.663409756744E+00  3.709492005904E+00  3.756153898402E+00  3.803402725254E+00
  3.851245869185E+00  3.899690805783E+00  3.948745104669E+00  3.998416430676E+00
  4.048712545051E+00  4.099641306662E+00  4.151210673234E+00  4.203428702584E+00
  4.256303553885E+00  4.309843488942E+00  4.364056873477E+00  4.418952178442E+00
  4.474537981341E+00  4.530822967568E+00  4.587815931766E+00  4.645525779203E+00
  4.703961527159E+00  4.763132306339E+00  4.823047362298E+00  4.883716056884E+00
  4.945147869706E+00  5.007352399608E+00  5.070339366175E+00  5.134118611249E+00
  5.198700100466E+00  5.264093924816E+00  5.330310302216E+00  5.397359579111E+00
  5.465252232086E+00  5.533998869506E+00  5.603610233174E+00  5.674097200006E+00
  5.745470783735E+00  5.817742136628E+00  5.890922551231E+00  5.965023462133E+00
  6.040056447752E+00  6.116033232145E+00  6.192965686838E+00  6.270865832684E+00
  6.349745841740E+00  6.429618039168E+00  6.510494905160E+00  6.592389076892E+00
  6.675313350494E+00  6.759280683053E+00  6.844304194636E+00  6.930397170340E+00
  7.017573062366E+00  7.105845492126E+00  7.195228252365E+00  7.285735309323E+00
  7.377380804911E+00  7.470179058924E+00  7.564144571278E+00  7.659292024276E+00
  7.755636284901E+00  7.853192407139E+00  7.951975634333E+00  8.052001401564E+00
  8.153285338060E+00  8.255843269644E+00  8.359691221200E+00  8.464845419182E+00
  8.571322294148E+00  8.679138483326E+00  8.788310833214E+00  8.898856402216E+00
  9.010792463300E+00  9.124136506704E+00  9.238906242665E+00  9.355119604189E+00
  9.472794749849E+00  9.591950066626E+00  9.712604172781E+00  9.834775920763E+00
  9.958484400157E+00  1.008374894066E+01  1.021058911512E+01  1.033902474257E+01
  1.046907589134E+01  1.060076288217E+01  1.073410629144E+01  1.086912695432E+01
  1.100584596807E+01  1.114428469530E+01  1.128446476736E+01  1.142640808766E+01
  1.157013683513E+01  1.171567346769E+01  1.186304072574E+01  1.201226163569E+01
  1.216335951363E+01  1.231635796891E+01  1.247128090784E+01  1.262815253745E+01
  1.278699736925E+01  1.294784022307E+01  1.311070623093E+01  1.327562084098E+01
  1.344260982147E+01  1.361169926475E+01  1.378291559140E+01  1.395628555431E+01
  1.413183624291E+01  1.430959508733E+01  1.448958986276E+01  1.467184869376E+01
  1.485640005863E+01  1.504327279389E+01  1.523249609880E+01  1.542409953989E+01
  1.561811305557E+01  1.581456696086E+01  1.601349195207E+01  1.621491911165E+01
  1.641887991299E+01  1.662540622539E+01  1.683453031900E+01  1.704628486989E+01
  1.726070296514E+01  1.747781810800E+01  1.769766422317E+01  1.792027566205E+01
  1.814568720812E+01  1.837393408240E+01  1.860505194893E+01  1.883907692034E+01
  1.907604556351E+01  1.931599490528E+01  1.955896243822E+01  1.980498612650E+01
</grid-data>
</grid>
<valence-charge total-charge="4" is-unscreening-charge="yes"
 rescaled-to-z-pseudo="no">
<radfunc>
<data>
  1.696500300565E-01  1.696607527000E-01  1.696928237459E-01  1.697463701161E-01
  1.698222345809E-01  1.699210427584E-01  1.700452744292E-01  1.701843874750E-01
  1.703543863840E-01  1.705553021453E-01  1.707845602966E-01  1.710365365516E-01
  1.713024154128E-01  1.716191635821E-01  1.719384636529E-01  1.723094251727E-01
  1.726640003050E-01  1.730657458776E-01  1.735209198631E-01  1.740366064575E-01
  1.744980787939E-01  1.750079767656E-01  1.755713630624E-01  1.761938260134E-01
  1.768815334348E-01  1.774441994218E-01  1.780505077642E-01  1.787038258646E-01
  1.794077784342E-01  1.801662668009E-01  1.809834896193E-01  1.818639650823E-01
  1.828125547367E-01  1.838344890157E-01  1.849353946062E-01  1.861213237799E-01
  1.869623732091E-01  1.878461422075E-01  1.887747807390E-01  1.897505452672E-01
  1.907758039055E-01  1.918530418119E-01  1.929848668400E-01  1.941740154587E-01
  1.954233589550E-01  1.967359099350E-01  1.981148291384E-01  1.995634325835E-01
  2.010851990632E-01  2.026837780093E-01  2.043629977481E-01  2.061268741719E-01
  2.079796198491E-01  2.099256536023E-01  2.119696105844E-01  2.141163528825E-01
  2.163709806862E-01  2.187388440564E-01  2.212255553336E-01  2.238370022267E-01
  2.265793616267E-01  2.294591141878E-01  2.324830597217E-01  2.356583334473E-01
  2.373050440511E-01  2.389924231356E-01  2.407214647237E-01  2.424931871840E-01
  2.443086338483E-01  2.461688736431E-01  2.480750017376E-01  2.500281402044E-01
  2.520294386965E-01  2.540800751359E-01  2.561812564168E-01  2.583342191195E-01
  2.605402302359E-01  2.628005879028E-01  2.651166221440E-01  2.674896956155E-01
  2.699212043541E-01  2.724125785238E-01  2.749652831568E-01  2.775808188857E-01
  2.802607226583E-01  2.830065684322E-01  2.858199678385E-01  2.887025708086E-01
  2.916560661516E-01  2.946821820725E-01  2.977826866169E-01  3.009593880264E-01
  3.042141349880E-01  3.075488167566E-01  3.109653631272E-01  3.144657442312E-01
  3.180519701254E-01  3.217260901406E-01  3.254901919510E-01  3.293464003189E-01
  3.332968754666E-01  3.373438110185E-01  3.414894314497E-01  3.457359889699E-01
  3.500857597626E-01  3.545410394897E-01  3.591041379593E-01  3.637773728468E-01
  3.685630623411E-01  3.734635165780E-01  3.784810277066E-01  3.836178584153E-01
  3.888762287315E-01  3.942583008864E-01  3.997661620183E-01  4.054018044670E-01
  4.111671033926E-01  4.170637914275E-01  4.230934300541E-01  4.292573773764E-01
  4.355567519400E-01  4.419923922350E-01  4.485648115101E-01  4.552741475160E-01
  4.621201068005E-01  4.691019031890E-01  4.762181901064E-01  4.834669864386E-01
  4.908455956857E-01  4.983505182468E-01  5.059773567789E-01  5.137207147203E-01
  5.215740882449E-01  5.295297521398E-01  5.375786403718E-01  5.457102224330E-01
  5.539123769467E-01  5.621712644577E-01  5.704712018491E-01  5.787945413949E-01
  5.871215580934E-01  5.954303495964E-01  6.036967537575E-01  6.118942895283E-01
  6.199941276085E-01  6.279650978579E-01  6.357737409526E-01  6.433844120326E-01
  6.507594440863E-01  6.578593784327E-01  6.646432688148E-01  6.710690641950E-01
  6.770940732446E-01  6.826755106582E-01  6.877711217160E-01  6.923398769287E-01
  6.963427231095E-01  6.997433708702E-01  7.025090914156E-01  7.046114877372E-01
  7.060271970587E-01  7.067384728332E-01  7.067335859031E-01  7.060069757047E-01
  7.045590736290E-01  7.023957116879E-01  6.995270201670E-01  6.959657746895E-01
  6.917256611491E-01  6.868207389842E-01  6.812660478343E-01  6.750776094601E-01
  6.682727230872E-01  6.608701488033E-01  6.528902287467E-01  6.443549607459E-01
  6.352880195253E-01  6.257147320310E-01  6.156620144871E-01  6.051582781939E-01
  5.942332982309E-01  5.829180524110E-01  5.712445392535E-01  5.592455759874E-01
  5.469545842212E-01  5.344053685634E-01  5.216318933458E-01  5.086680627251E-01
  4.955475074484E-01  4.823033786851E-01  4.689681570056E-01  4.555734763215E-01
  4.421499613483E-01  4.287270836083E-01  4.153330359116E-01  4.019946279252E-01
  3.887372083283E-01  3.755846202384E-01  3.625591874127E-01  3.496817165744E-01
  3.369715030358E-01  3.244463414161E-01  3.121225473615E-01  3.000149818433E-01
  2.881370816784E-01  2.765008933248E-01  2.651171108723E-01  2.539951201633E-01
  2.431430412417E-01  2.325677741254E-01  2.222750486139E-01  2.122694736428E-01
  2.025545856140E-01  1.931329018695E-01  1.840059943169E-01  1.751745464961E-01
  1.666384039739E-01  1.583966314779E-01  1.504475640651E-01  1.427888585915E-01
  1.354175437061E-01  1.283300705025E-01  1.215223600939E-01  1.149898519257E-01
  1.087275518268E-01  1.027300733029E-01  9.699168187787E-02  9.150634762374E-02
  8.626779080622E-02  8.126951838023E-02  7.650486042291E-02  7.196700382656E-02
  6.764902337535E-02  6.354391168184E-02  5.964460722746E-02  5.594402113115E-02
  5.243506118194E-02  4.911065562700E-02  4.596377559248E-02  4.298745224493E-02
  4.017479605060E-02  3.751901615312E-02  3.501343558508E-02  3.265150372006E-02
  3.042680715846E-02  2.833307919517E-02  2.636420793044E-02  2.451424333816E-02
  2.277740307852E-02  2.114807719400E-02  1.962083191323E-02  1.819041255798E-02
  1.685174551743E-02  1.559993933301E-02  1.443028506824E-02  1.333825594737E-02
  1.231950629226E-02  1.136986989946E-02  1.048535786797E-02  9.662155907083E-03
  8.896621189446E-03  8.185278874298E-03  7.524818307182E-03  6.912088922979E-03
  6.344095947493E-03  5.817995871549E-03  5.331091760359E-03  4.880828489797E-03
  4.464787885649E-03  4.080683805404E-03  3.726357200108E-03  3.399771156506E-03
  3.099005960688E-03  2.822254224596E-03  2.567815988005E-03  2.334093925054E-03
  2.119588674977E-03  1.922894203948E-03  1.742693085147E-03  1.577752473810E-03
  1.426919628518E-03  1.289117329470E-03  1.163340901307E-03  1.048654463405E-03
  9.441863399136E-04  8.491249998600E-04  7.627157547010E-04  6.842571975078E-04
  6.130979278894E-04  5.486339407634E-04  4.903055552673E-04  4.375941676775E-04
  3.900195623072E-04  3.471374546887E-04  3.085370487640E-04  2.738386882162E-04
  2.426918922578E-04  2.147735787047E-04  1.897859261172E-04  1.674546579320E-04
  1.475275827227E-04  1.297732744526E-04  1.139793981162E-04  9.995155167577E-05
  8.751217742427E-05  7.649915871841E-05  6.676474353533E-05  5.817461876268E-05
  5.060680386634E-05  4.395073872034E-05  3.810644057656E-05  3.298360951211E-05
  2.850086972560E-05  2.458502463000E-05  2.117034561669E-05  1.819793282320E-05
  1.561510009014E-05  1.337481242134E-05  1.143516178249E-05  9.758879313877E-06
  8.312885399131E-06  7.067876027265E-06  5.997942896968E-06  5.080224005708E-06
  4.294585397454E-06  3.623331078382E-06  3.050939346205E-06  2.563823439508E-06
  2.150114866206E-06  1.799467748621E-06  1.502882414749E-06  1.252546774941E-06
  1.041694075060E-06  8.644756621839E-07  7.158474395070E-07  5.914687674100E-07
  4.876126651468E-07  4.010862464389E-07  3.291603919037E-07  2.695077427148E-07
  2.201481562591E-07  1.794008596331E-07  1.458425610066E-07  1.182709121178E-07
  9.567261086550E-08  7.719590065352E-08  6.212635129843E-08  4.986652202817E-08
  3.991768293213E-08  3.186553609360E-08  2.536327319473E-08  2.013117005658E-08
  1.592626587944E-08  1.256128174387E-08  9.880616716507E-09  7.751538665203E-09
  6.064998823705E-09  4.732574491875E-09  3.682756037976E-09  2.857865833843E-09
  2.211508310423E-09  1.706465221571E-09  1.312963097420E-09  1.007250995413E-09
  7.704362327991E-10  5.875340023109E-10  4.466938052793E-10  3.385716373286E-10
  2.558219672393E-10  1.926878803524E-10  1.446714203985E-10  1.082692515226E-10
  8.076135757998E-11  6.004267020281E-11  4.448933310334E-11  3.285282175790E-11
</data>
</radfunc>
</valence-charge>
<semilocal-potentials set="scalar_relativistic">
<slps n="3" l="s" rc="1.45255022313" flavor="Troullier-Martins">
<radfunc>
<data>
 -1.320349891809E+00 -1.322669654798E+00 -1.329564338837E+00 -1.340937673042E+00
 -1.356753931954E+00 -1.376824987730E+00 -1.401201651050E+00 -1.427350685516E+00
 -1.457646378715E+00 -1.491093537271E+00 -1.526155464292E+00 -1.560937361788E+00
 -1.593495453649E+00 -1.626969132182E+00 -1.655206871994E+00 -1.681612836639E+00
 -1.701022508677E+00 -1.716907462718E+00 -1.728116189318E+00 -1.733537254370E+00
 -1.733058132220E+00 -1.727898775655E+00 -1.717856030198E+00 -1.702914596815E+00
 -1.683262097216E+00 -1.665656669175E+00 -1.645844272053E+00 -1.624100098036E+00
 -1.600733084597E+00 -1.576072150527E+00 -1.550451985340E+00 -1.524199484231E+00
 -1.497621771218E+00 -1.470996507313E+00 -1.444565846277E+00 -1.418531418541E+00
 -1.401472954555E+00 -1.384697408930E+00 -1.368234366308E+00 -1.352106208215E+00
 -1.336328657338E+00 -1.320911381730E+00 -1.305858630875E+00 -1.291169879543E+00
 -1.276840459387E+00 -1.262862162254E+00 -1.249223803299E+00 -1.235911735708E+00
 -1.222910312317E+00 -1.210202292420E+00 -1.197769194725E+00 -1.185591599670E+00
 -1.173649406064E+00 -1.161922048732E+00 -1.150388684868E+00 -1.139028357992E+00
 -1.127820149006E+00 -1.116743324515E+00 -1.105777492985E+00 -1.094902779591E+00
 -1.084100029522E+00 -1.073351015438E+00 -1.062638401636E+00 -1.051941366947E+00
 -1.046595627220E+00 -1.041250352375E+00 -1.035904786622E+00 -1.030558381093E+00
 -1.025210848807E+00 -1.019862182854E+00 -1.014512681825E+00 -1.009162976955E+00
 -1.003814061444E+00 -9.984673220899E-01 -9.931245733515E-01 -9.877880939934E-01
 -9.824606664263E-01 -9.771456188833E-01 -9.718468705643E-01 -9.665689798657E-01
 -9.613171958357E-01 -9.560975129637E-01 -9.509167294166E-01 -9.457825088359E-01
 -9.407034457760E-01 -9.356891348719E-01 -9.307502437942E-01 -9.258985900311E-01
 -9.211472215127E-01 -9.165105010668E-01 -9.120041946454E-01 -9.076455632352E-01
 -9.034534583038E-01 -8.994484205757E-01 -8.956527818681E-01 -8.920907696290E-01
 -8.887886137367E-01 -8.857746550004E-01 -8.830794546932E-01 -8.807359042910E-01
 -8.787793344404E-01 -8.772476219926E-01 -8.761812937195E-01 -8.756236223232E-01
 -8.756207514706E-01 -8.762216010370E-01 -8.774785097288E-01 -8.794458131892E-01
 -8.821757144032E-01 -8.857344067745E-01 -8.901903745210E-01 -8.956077663250E-01
 -9.020582753756E-01 -9.096153012676E-01 -9.183551823325E-01 -9.283566856556E-01
 -9.397007328044E-01 -9.524700083097E-01 -9.667484772101E-01 -9.826207967188E-01
 -1.000171608001E+00 -1.019484693066E+00 -1.040641981040E+00 -1.063722387724E+00
 -1.088800472690E+00 -1.115944899462E+00 -1.145216686927E+00 -1.176667248778E+00
 -1.210336210246E+00 -1.246249005527E+00 -1.284414617658E+00 -1.324820827145E+00
 -1.367436790558E+00 -1.412206658009E+00 -1.459045153162E+00 -1.507841189289E+00
 -1.558454872743E+00 -1.610719595622E+00 -1.664445645272E+00 -1.719427035993E+00
 -1.775452061362E+00 -1.832317990310E+00 -1.889849678102E+00 -1.947920727812E+00
 -2.006474108319E+00 -2.065536914979E+00 -2.125221755635E+00 -2.185705925232E+00
 -2.247181135738E+00 -2.309771051263E+00 -2.373423300075E+00 -2.437798648972E+00
 -2.502179773345E+00 -2.565433054273E+00 -2.626043867882E+00 -2.682224006123E+00
 -2.732072683872E+00 -2.773759190004E+00 -2.805696052943E+00 -2.826682440528E+00
 -2.836011865823E+00 -2.833549085171E+00 -2.819786696984E+00 -2.795886411125E+00
 -2.763722794397E+00 -2.725910826237E+00 -2.685851951078E+00 -2.646983221507E+00
 -2.609893894849E+00 -2.574422903134E+00 -2.540419759100E+00 -2.507768928475E+00
 -2.476415642789E+00 -2.446329831638E+00 -2.417488883946E+00 -2.389853134973E+00
 -2.363354338207E+00 -2.337878593083E+00 -2.313274765320E+00 -2.289373245291E+00
 -2.265993531606E+00 -2.242960174334E+00 -2.220115489862E+00 -2.197328714646E+00
 -2.174500587164E+00 -2.151564816826E+00 -2.128483369719E+00 -2.105246107035E+00
 -2.081863722292E+00 -2.058358968773E+00 -2.034765127961E+00 -2.011121047442E+00
 -1.987468209534E+00 -1.963846157100E+00 -1.940295533861E+00 -1.916845091817E+00
 -1.893531682555E+00 -1.870389837082E+00 -1.847434788606E+00 -1.824683827614E+00
 -1.802151356733E+00 -1.779848277343E+00 -1.757783066766E+00 -1.735961559153E+00
 -1.714389099936E+00 -1.693067799418E+00 -1.671997990994E+00 -1.651181015316E+00
 -1.630616375083E+00 -1.610303330995E+00 -1.590239693400E+00 -1.570423402845E+00
 -1.550853612258E+00 -1.531527387451E+00 -1.512441737984E+00 -1.493594001396E+00
 -1.474981497669E+00 -1.456601506836E+00 -1.438451349553E+00 -1.420528604604E+00
 -1.402830215729E+00 -1.385353184509E+00 -1.368095000296E+00 -1.351053089754E+00
 -1.334223995552E+00 -1.317604198753E+00 -1.301191938477E+00 -1.284985283951E+00
 -1.268981386558E+00 -1.253177825777E+00 -1.237572035797E+00 -1.222161885074E+00
 -1.206944779564E+00 -1.191917909793E+00 -1.177079130629E+00 -1.162425935494E+00
 -1.147956004883E+00 -1.133667151852E+00 -1.119555971095E+00 -1.105619670455E+00
 -1.091856973594E+00 -1.078266025423E+00 -1.064844659334E+00 -1.051590844275E+00
 -1.038502364148E+00 -1.025577200184E+00 -1.012813207193E+00 -1.000208280233E+00
 -9.877608559940E-01 -9.754690784765E-01 -9.633308695072E-01 -9.513442936196E-01
 -9.395075937495E-01 -9.278189330574E-01 -9.162762906033E-01 -9.048778932818E-01
 -8.936217890619E-01 -8.825058160158E-01 -8.715282031940E-01 -8.606873321461E-01
 -8.499814931461E-01 -8.394087174002E-01 -8.289672456699E-01 -8.186554302589E-01
 -8.084716231184E-01 -7.984145617469E-01 -7.884827627905E-01 -7.786747366669E-01
 -7.689890651447E-01 -7.594242163937E-01 -7.499787955327E-01 -7.406513984772E-01
 -7.314406359740E-01 -7.223452372836E-01 -7.133639196371E-01 -7.044954913890E-01
 -6.957387526866E-01 -6.870924809585E-01 -6.785553912921E-01 -6.701264402996E-01
 -6.618044040147E-01 -6.535887047623E-01 -6.454785658902E-01 -6.374717071600E-01
 -6.295663417849E-01 -6.217612950144E-01 -6.140552689659E-01 -6.064475677755E-01
 -5.989351708007E-01 -5.915151825209E-01 -5.841876992040E-01 -5.769518668761E-01
 -5.698067909730E-01 -5.627493022636E-01 -5.557768751983E-01 -5.488900348308E-01
 -5.420887501637E-01 -5.353700454105E-01 -5.287310051636E-01 -5.221727865863E-01
 -5.157180894972E-01 -5.093284102398E-01 -5.030100442665E-01 -4.967661027236E-01
 -4.905974198467E-01 -4.845041499869E-01 -4.784860087452E-01 -4.725423265908E-01
 -4.666723245456E-01 -4.608751758536E-01 -4.551500088487E-01 -4.494959468447E-01
 -4.439121158366E-01 -4.383976471299E-01 -4.329516813225E-01 -4.275733680285E-01
 -4.222618671873E-01 -4.170163492001E-01 -4.118359945281E-01 -4.067199936038E-01
 -4.016675469057E-01 -3.966778649025E-01 -3.917501678798E-01 -3.868836858016E-01
 -3.820776581924E-01 -3.773313340238E-01 -3.726439715982E-01 -3.680148384328E-01
 -3.634432111449E-01 -3.589283753390E-01 -3.544696254953E-01 -3.500662648589E-01
 -3.457176053315E-01 -3.414229673633E-01 -3.371816798473E-01 -3.329930800138E-01
 -3.288565133274E-01 -3.247713333843E-01 -3.207369018115E-01 -3.167525881667E-01
 -3.128177698401E-01 -3.089318319570E-01 -3.050941672816E-01 -3.013041761219E-01
 -2.975612662366E-01 -2.938648527418E-01 -2.902143580199E-01 -2.866092116297E-01
 -2.830488502163E-01 -2.795327174241E-01 -2.760602638091E-01 -2.726309467533E-01
 -2.692442303799E-01 -2.658995854695E-01 -2.625964893773E-01 -2.593344259518E-01
 -2.561128854534E-01 -2.529313644756E-01 -2.497893658655E-01 -2.466863986467E-01
 -2.436219779423E-01 -2.405956248991E-01 -2.376068666130E-01 -2.346552360547E-01
 -2.317402719970E-01 -2.288615189426E-01 -2.260185270530E-01 -2.232108520781E-01
 -2.204380552868E-01 -2.176997033984E-01 -2.149953685150E-01 -2.123246280544E-01
 -2.096870646844E-01 -2.070822662573E-01 -2.045098257453E-01 -2.019693411776E-01
</data>
</radfunc>
</slps>
<slps n="3" l="p" rc="2.06134108182" flavor="Troullier-Martins">
<radfunc>
<data>
 -3.205173837005E+00 -3.207493601704E+00 -3.214388311200E+00 -3.225761755818E+00
 -3.241578316478E+00 -3.261650020451E+00 -3.286027907882E+00 -3.312178853111E+00
 -3.342477654343E+00 -3.375929579872E+00 -3.410998389635E+00 -3.445789620872E+00
 -3.478359563012E+00 -3.511850031276E+00 -3.540107624249E+00 -3.566540328430E+00
 -3.585979231811E+00 -3.601901620635E+00 -3.613158266818E+00 -3.618640642796E+00
 -3.618222665040E+00 -3.613137715591E+00 -3.603185477154E+00 -3.588354081006E+00
 -3.568835291402E+00 -3.551348649906E+00 -3.531673620346E+00 -3.510088238311E+00
 -3.486904703695E+00 -3.462455674308E+00 -3.437080119629E+00 -3.411109827400E+00
 -3.384857506079E+00 -3.358607180311E+00 -3.332608242079E+00 -3.307070537997E+00
 -3.290383881435E+00 -3.274016193083E+00 -3.258000361608E+00 -3.242362343072E+00
 -3.227121721655E+00 -3.212292330183E+00 -3.197882902137E+00 -3.183897730691E+00
 -3.170337314291E+00 -3.157198972233E+00 -3.144477417671E+00 -3.132165279062E+00
 -3.120253564435E+00 -3.108732065634E+00 -3.097589702183E+00 -3.086814806424E+00
 -3.076395353057E+00 -3.066319137597E+00 -3.056573908952E+00 -3.047147462074E+00
 -3.038027696798E+00 -3.029202649097E+00 -3.020660500819E+00 -3.012389573560E+00
 -3.004378310520E+00 -2.996615215283E+00 -2.989088492431E+00 -2.981781283341E+00
 -2.978207627184E+00 -2.974685953510E+00 -2.971215339364E+00 -2.967794868125E+00
 -2.964423662000E+00 -2.961100875918E+00 -2.957825696739E+00 -2.954597342119E+00
 -2.951415059367E+00 -2.948278124309E+00 -2.945185840140E+00 -2.942137536264E+00
 -2.939132567107E+00 -2.936170310900E+00 -2.933250168404E+00 -2.930371561561E+00
 -2.927533932050E+00 -2.924736739719E+00 -2.921979460850E+00 -2.919261586247E+00
 -2.916582619068E+00 -2.913942072390E+00 -2.911339466427E+00 -2.908774325358E+00
 -2.906246173687E+00 -2.903754532070E+00 -2.901298912515E+00 -2.898878812874E+00
 -2.896493710502E+00 -2.894143054987E+00 -2.891826259805E+00 -2.889542692746E+00
 -2.887291664962E+00 -2.885072418423E+00 -2.882884111581E+00 -2.880725803001E+00
 -2.878596432657E+00 -2.876494800618E+00 -2.874419542727E+00 -2.872369100104E+00
 -2.870341720630E+00 -2.868335245253E+00 -2.866347638202E+00 -2.864375461477E+00
 -2.862409652954E+00 -2.860451571455E+00 -2.858501236743E+00 -2.856550664194E+00
 -2.854595731566E+00 -2.852630358152E+00 -2.850647790303E+00 -2.848640186600E+00
 -2.846598487397E+00 -2.844512223171E+00 -2.842369296121E+00 -2.840155728977E+00
 -2.837855376653E+00 -2.835449596211E+00 -2.832916870557E+00 -2.830232381689E+00
 -2.827367530238E+00 -2.824289399874E+00 -2.820960168069E+00 -2.817336473486E+00
 -2.813368742524E+00 -2.809000491158E+00 -2.804167975495E+00 -2.798797567405E+00
 -2.792810684177E+00 -2.786119985580E+00 -2.778627762270E+00 -2.770232583828E+00
 -2.760829545749E+00 -2.750315796541E+00 -2.738597741648E+00 -2.725601586083E+00
 -2.711287655962E+00 -2.695668846386E+00 -2.678832870984E+00 -2.660966829656E+00
 -2.642380855159E+00 -2.623525349703E+00 -2.604994086363E+00 -2.587504094500E+00
 -2.571844812536E+00 -2.558793432197E+00 -2.549002735081E+00 -2.542883688357E+00
 -2.540504764090E+00 -2.541540891950E+00 -2.545291933101E+00 -2.550768677157E+00
 -2.556827113808E+00 -2.562318258003E+00 -2.566221530554E+00 -2.567740433626E+00
 -2.566353469293E+00 -2.561823876975E+00 -2.554177142622E+00 -2.543649375490E+00
 -2.530622080799E+00 -2.515521894757E+00 -2.498716643018E+00 -2.480493192459E+00
 -2.461148114902E+00 -2.441041368431E+00 -2.420507405878E+00 -2.399844865907E+00
 -2.379330154508E+00 -2.359184035179E+00 -2.339565188124E+00 -2.320558228741E+00
 -2.302170366411E+00 -2.284335314743E+00 -2.266926040618E+00 -2.249769566334E+00
 -2.232666518114E+00 -2.215412970523E+00 -2.197818124471E+00 -2.179719350840E+00
 -2.160992537189E+00 -2.141556969811E+00 -2.121377859844E+00 -2.100462336027E+00
 -2.078854062692E+00 -2.056630248825E+00 -2.033892961020E+00 -2.010761230929E+00
 -1.987364814926E+00 -1.963833842381E+00 -1.940295521434E+00 -1.916845091817E+00
 -1.893531682555E+00 -1.870389837082E+00 -1.847434788606E+00 -1.824683827614E+00
 -1.802151356733E+00 -1.779848277343E+00 -1.757783066766E+00 -1.735961559153E+00
 -1.714389099936E+00 -1.693067799418E+00 -1.671997990994E+00 -1.651181015316E+00
 -1.630616375083E+00 -1.610303330995E+00 -1.590239693400E+00 -1.570423402845E+00
 -1.550853612258E+00 -1.531527387451E+00 -1.512441737984E+00 -1.493594001396E+00
 -1.474981497669E+00 -1.456601506836E+00 -1.438451349553E+00 -1.420528604604E+00
 -1.402830215729E+00 -1.385353184509E+00 -1.368095000296E+00 -1.351053089754E+00
 -1.334223995552E+00 -1.317604198753E+00 -1.301191938477E+00 -1.284985283951E+00
 -1.268981386558E+00 -1.253177825777E+00 -1.237572035797E+00 -1.222161885074E+00
 -1.206944779564E+00 -1.191917909793E+00 -1.177079130629E+00 -1.162425935494E+00
 -1.147956004883E+00 -1.133667151852E+00 -1.119555971095E+00 -1.105619670455E+00
 -1.091856973594E+00 -1.078266025423E+00 -1.064844659334E+00 -1.051590844275E+00
 -1.038502364148E+00 -1.025577200184E+00 -1.012813207193E+00 -1.000208280233E+00
 -9.877608559940E-01 -9.754690784765E-01 -9.633308695072E-01 -9.513442936196E-01
 -9.395075937495E-01 -9.278189330574E-01 -9.162762906033E-01 -9.048778932818E-01