Siesta Version  : v4.1.5-1-g384057250
Architecture    : gcc
Compiler version: GNU Fortran (Debian 10.2.1-6) 10.2.1 20210110
Compiler flags  : mpifort -O2 -fPIC -ftree-vectorize -fallow-argument-mismatch
PP flags        : -DFC_HAVE_ABORT -DMPI -DSIESTA__FLOOK -DSIESTA__METIS -DSIESTA__MUMPS -DCDF -DNCDF -DNCDF_4 -DNCDF_PARALLEL -DSIESTA__MRRR -DSIESTA__ELPA
Libraries       : libncdf.a libfdict.a  -lflookall -ldl -lnetcdff -lnetcdf -lhdf5_hl -lhdf5 -lhdf5_fortran -lz -lscalapack-openmpi -lopenblas -lmetis -lzmumps -lcmumps -ldmumps -lmumps_common -lpord -lsmumps -lesmumps -lscotch -lscotcherr -fopenmp -lelpa
PARALLEL version
NetCDF support
NetCDF-4 support
NetCDF-4 MPI-IO support
METIS ordering support
Lua support

* Running on 6 nodes in parallel
>> Start of run:  14-OCT-2023  15:03:19

                           ***********************       
                           *  WELCOME TO SIESTA  *       
                           ***********************       

reinit: Reading from standard input
reinit: Dumped input in INPUT_TMP.55358
************************** Dump of input data file ****************************
# mpirun -np 4 siesta-4.1.5 < Adenine.fdf > Adenine.out
SystemLabel      Adenine
NumberOfAtoms    15
NumberOfSpecies  3
%block ChemicalSpeciesLabel
    1    1  H
    2    7  N
    3   14  Si
%endblock ChemicalSpeciesLabel
############################################
# This overrides Defaults.fdf configuration
############################################
MD.TypeOfRun                CG # CG, Verlet
MD.Steps                    300
AtomicCoordinatesFormat NotScaledCartesianAng
%block AtomicCoordinatesAndAtomicSpecies
    2.22639502   -5.20887339    0.00000000   1       1  H
    1.34210819   -4.63231181    0.00000000   2       2  N
   -0.31387573   -5.35482501    0.00000000   3       3  Si
   -0.40851123   -6.84647117    0.00000000   1       4  H
   -1.68400389   -4.33864336    0.00000000   2       5  N
   -0.98246232   -2.68585898    0.00000000   3       6  Si
   -1.31905134   -0.51763396    0.00000000   3       7  Si
   -2.98827632    0.04452788    0.00000000   2       8  N
   -3.34641704    1.02970942    0.00000000   1       9  H
   -3.75793334   -0.68534630    0.00000000   1      10  H
    0.05599296    0.53662160    0.00000000   2      11  N
    1.70121583   -0.00312387    0.00000000   3      12  Si
    2.70257596    1.12129471    0.00000000   1      13  H
    2.45296479   -1.57796182    0.00000000   2      14  N
    1.20849214   -2.79563243    0.00000000   3      15  Si
%endblock AtomicCoordinatesAndAtomicSpecies
#############
# Unit Cell
#############
LatticeConstant 1.0 Ang
%block LatticeVectors
    14.779133    0.000000    0.000000
    0.000000   16.638097    0.000000
    0.000000    0.000000    9.854683
%endblock LatticeVectors
%include ../../../../Defaults.fdf
************************** End of input data file *****************************

reinit: -----------------------------------------------------------------------
reinit: System Name: 
reinit: -----------------------------------------------------------------------
reinit: System Label: Adenine
reinit: -----------------------------------------------------------------------

initatom: Reading input for the pseudopotentials and atomic orbitals ----------
Species number:   1 Atomic number:    1 Label: H
Species number:   2 Atomic number:    7 Label: N
Species number:   3 Atomic number:   14 Label: Si

Ground state valence configuration:   1s01
Reading pseudopotential information in formatted form from H.psf

Pseudopotential generated from a relativistic atomic calculation

Valence configuration for pseudopotential generation:
1s( 1.00) rc: 0.01
2p( 0.00) rc: 0.60
3d( 0.00) rc: 1.99
4f( 0.00) rc: 2.49
Ground state valence configuration:   2s02  2p03
Reading pseudopotential information in formatted form from N.psf

Pseudopotential generated from a relativistic atomic calculation

Valence configuration for pseudopotential generation:
2s( 2.00) rc: 0.94
2p( 3.00) rc: 0.59
3d( 0.00) rc: 3.46
4f( 0.00) rc: 2.47
Ground state valence configuration:   3s02  3p02
Reading pseudopotential information in formatted form from Si.psf

Pseudopotential generated from a relativistic atomic calculation

Valence configuration for pseudopotential generation:
3s( 2.00) rc: 1.67
3p( 2.00) rc: 2.04
3d( 0.00) rc: 2.89
4f( 0.00) rc: 2.49
For H, standard SIESTA heuristics set lmxkb to 2
 (one more than the basis l, including polarization orbitals).
Use PS.lmax or PS.KBprojectors blocks to override.
For N, standard SIESTA heuristics set lmxkb to 3
 (one more than the basis l, including polarization orbitals).
Use PS.lmax or PS.KBprojectors blocks to override.
For Si, standard SIESTA heuristics set lmxkb to 3
 (one more than the basis l, including polarization orbitals).
Use PS.lmax or PS.KBprojectors blocks to override.

<basis_specs>
===============================================================================
H                    Z=   1    Mass=  1.0100        Charge= 0.17977+309
Lmxo=0 Lmxkb= 2    BasisType=split      Semic=F
L=0  Nsemic=0  Cnfigmx=1
          i=1  nzeta=2  polorb=1  (1s)
            splnorm:   0.62000    
               vcte:    0.0000    
               rinn:    0.0000    
               qcoe:    0.0000    
               qyuk:    0.0000    
               qwid:   0.10000E-01
                rcs:    0.0000      0.0000    
            lambdas:    1.0000      1.0000    
-------------------------------------------------------------------------------
L=0  Nkbl=1  erefs: 0.17977+309
L=1  Nkbl=1  erefs: 0.17977+309
L=2  Nkbl=1  erefs: 0.17977+309
===============================================================================
</basis_specs>

atom: Called for H                     (Z =   1)

read_vps: Pseudopotential generation method:
read_vps: ATM4.2.7  Troullier-Martins                       
Valence charge for ps generation:    1.00000

xc_check: Exchange-correlation functional:
xc_check: GGA Perdew, Burke & Ernzerhof 1996
V l=0 = -2*Zval/r beyond r=  0.0098
V l=1 = -2*Zval/r beyond r=  0.5817
V l=2 = -2*Zval/r beyond r=  1.9372
All V_l potentials equal beyond r=  1.9372
This should be close to max(r_c) in ps generation
All pots = -2*Zval/r beyond r=  1.9372

VLOCAL1: 99.0% of the norm of Vloc inside     11.567 Ry
VLOCAL1: 99.9% of the norm of Vloc inside     26.362 Ry
atom: Maximum radius for 4*pi*r*r*local-pseudopot. charge    2.25106
atom: Maximum radius for r*vlocal+2*Zval:    1.91306
GHOST: No ghost state for L =  0
GHOST: No ghost state for L =  1
GHOST: No ghost state for L =  2

KBgen: Kleinman-Bylander projectors: 
   l= 0   rc=  2.036604   el= -0.477180   Ekb= -6.081590   kbcos= -0.277285
   l= 1   rc=  2.195416   el=  0.001076   Ekb= -0.926943   kbcos= -0.034643
   l= 2   rc=  2.251056   el=  0.002010   Ekb= -0.130941   kbcos= -0.009788

KBgen: Total number of Kleinman-Bylander projectors:    9
atom: -------------------------------------------------------------------------

atom: SANKEY-TYPE ORBITALS:
atom: Selected multiple-zeta basis: split     

SPLIT: Orbitals with angular momentum L= 0

SPLIT: Basis orbitals for state 1s

SPLIT: PAO cut-off radius determined from an
SPLIT: energy shift=  0.002000 Ry

   izeta = 1
                 lambda =    1.000000
                     rc =    6.518340
                 energy =   -0.475305
                kinetic =    0.912139
    potential(screened) =   -1.387444
       potential(ionic) =   -1.907295

   izeta = 2
                 rmatch =    2.141150
              splitnorm =    0.620000
                 energy =    0.566467
                kinetic =    3.772856
    potential(screened) =   -3.206389
       potential(ionic) =   -3.759093

POLgen: Perturbative polarization orbital with L=  1

POLgen: Polarization orbital for state 1s

   izeta = 1
                     rc =    6.518340
                 energy =    0.533861
                kinetic =    1.121086
    potential(screened) =   -0.587225
       potential(ionic) =   -1.053027
atom: Total number of Sankey-type orbitals:  5

atm_pop: Valence configuration (for local Pseudopot. screening):
 1s( 1.00)                                                            
Vna: chval, zval:    1.00000   1.00000

Vna:  Cut-off radius for the neutral-atom potential:   6.518340

atom: _________________________________________________________________________

<basis_specs>
===============================================================================
N                    Z=   7    Mass=  14.010        Charge= 0.17977+309
Lmxo=1 Lmxkb= 3    BasisType=split      Semic=F
L=0  Nsemic=0  Cnfigmx=2
          i=1  nzeta=2  polorb=0  (2s)
            splnorm:   0.28000    
               vcte:    0.0000    
               rinn:    0.0000    
               qcoe:    0.0000    
               qyuk:    0.0000    
               qwid:   0.10000E-01
                rcs:    0.0000      0.0000    
            lambdas:    1.0000      1.0000    
L=1  Nsemic=0  Cnfigmx=2
          i=1  nzeta=2  polorb=1  (2p)
            splnorm:   0.28000    
               vcte:    0.0000    
               rinn:    0.0000    
               qcoe:    0.0000    
               qyuk:    0.0000    
               qwid:   0.10000E-01
                rcs:    0.0000      0.0000    
            lambdas:    1.0000      1.0000    
-------------------------------------------------------------------------------
L=0  Nkbl=1  erefs: 0.17977+309
L=1  Nkbl=1  erefs: 0.17977+309
L=2  Nkbl=1  erefs: 0.17977+309
L=3  Nkbl=1  erefs: 0.17977+309
===============================================================================
</basis_specs>

atom: Called for N                     (Z =   7)

read_vps: Pseudopotential generation method:
read_vps: ATM4.2.7  Troullier-Martins                       
Valence charge for ps generation:    5.00000

xc_check: Exchange-correlation functional:
xc_check: GGA Perdew, Burke & Ernzerhof 1996
V l=0 = -2*Zval/r beyond r=  1.2889
V l=1 = -2*Zval/r beyond r=  1.2889
V l=2 = -2*Zval/r beyond r=  3.4178
V l=3 = -2*Zval/r beyond r=  2.4084
All V_l potentials equal beyond r=  3.3753
This should be close to max(r_c) in ps generation
All pots = -2*Zval/r beyond r=  3.4178

VLOCAL1: 99.0% of the norm of Vloc inside      3.810 Ry
VLOCAL1: 99.9% of the norm of Vloc inside      8.683 Ry
atom: Maximum radius for 4*pi*r*r*local-pseudopot. charge    4.02088
atom: Maximum radius for r*vlocal+2*Zval:    3.54838
GHOST: No ghost state for L =  0
GHOST: No ghost state for L =  1
GHOST: No ghost state for L =  2
GHOST: No ghost state for L =  3

KBgen: Kleinman-Bylander projectors: 
   l= 0   rc=  3.417763   el= -1.365098   Ekb= -4.433130   kbcos= -0.707855
   l= 1   rc=  3.375302   el= -0.521201   Ekb=-13.264039   kbcos= -0.535594
   l= 2   rc=  3.872880   el=  0.001991   Ekb= -0.641094   kbcos= -0.062456
   l= 3   rc=  3.970931   el=  0.003093   Ekb= -0.474517   kbcos= -0.018236

KBgen: Total number of Kleinman-Bylander projectors:   16
atom: -------------------------------------------------------------------------

atom: SANKEY-TYPE ORBITALS:
atom: Selected multiple-zeta basis: split     

SPLIT: Orbitals with angular momentum L= 0

SPLIT: Basis orbitals for state 2s

SPLIT: PAO cut-off radius determined from an
SPLIT: energy shift=  0.002000 Ry

   izeta = 1
                 lambda =    1.000000
                     rc =    4.730425
                 energy =   -1.363399
                kinetic =    1.245246
    potential(screened) =   -2.608645
       potential(ionic) =   -8.121105

   izeta = 2
                 rmatch =    2.531849
              splitnorm =    0.280000
                 energy =   -0.959908
                kinetic =    2.409435
    potential(screened) =   -3.369343
       potential(ionic) =   -9.427975

SPLIT: Orbitals with angular momentum L= 1

SPLIT: Basis orbitals for state 2p

SPLIT: PAO cut-off radius determined from an
SPLIT: energy shift=  0.002000 Ry

   izeta = 1
                 lambda =    1.000000
                     rc =    5.924108
                 energy =   -0.519262
                kinetic =    3.672940
    potential(screened) =   -4.192202
       potential(ionic) =   -9.518354

   izeta = 2
                 rmatch =    2.531849
              splitnorm =    0.280000
                 energy =   -0.104258
                kinetic =    6.807538
    potential(screened) =   -6.911796
       potential(ionic) =  -13.149920

POLgen: Perturbative polarization orbital with L=  2

POLgen: Polarization orbital for state 2p

   izeta = 1
                     rc =    5.924108
                 energy =    1.427508
                kinetic =    2.872379
    potential(screened) =   -1.444871
       potential(ionic) =   -5.563644
atom: Total number of Sankey-type orbitals: 13

atm_pop: Valence configuration (for local Pseudopot. screening):
 2s( 2.00)                                                            
 2p( 3.00)                                                            
Vna: chval, zval:    5.00000   5.00000

Vna:  Cut-off radius for the neutral-atom potential:   5.924108

atom: _________________________________________________________________________

<basis_specs>
===============================================================================
Si                   Z=  14    Mass=  28.090        Charge= 0.17977+309
Lmxo=1 Lmxkb= 3    BasisType=split      Semic=F
L=0  Nsemic=0  Cnfigmx=3
          i=1  nzeta=2  polorb=0  (3s)
            splnorm:   0.28000    
               vcte:    0.0000    
               rinn:    0.0000    
               qcoe:    0.0000    
               qyuk:    0.0000    
               qwid:   0.10000E-01
                rcs:    0.0000      0.0000    
            lambdas:    1.0000      1.0000    
L=1  Nsemic=0  Cnfigmx=3
          i=1  nzeta=2  polorb=1  (3p)
            splnorm:   0.28000    
               vcte:    0.0000    
               rinn:    0.0000    
               qcoe:    0.0000    
               qyuk:    0.0000    
               qwid:   0.10000E-01
                rcs:    0.0000      0.0000    
            lambdas:    1.0000      1.0000    
-------------------------------------------------------------------------------
L=0  Nkbl=1  erefs: 0.17977+309
L=1  Nkbl=1  erefs: 0.17977+309
L=2  Nkbl=1  erefs: 0.17977+309
L=3  Nkbl=1  erefs: 0.17977+309
===============================================================================
</basis_specs>

atom: Called for Si                    (Z =  14)

read_vps: Pseudopotential generation method:
read_vps: ATM4.2.7  Troullier-Martins                       
Valence charge for ps generation:    4.00000

xc_check: Exchange-correlation functional:
xc_check: GGA Perdew, Burke & Ernzerhof 1996
V l=0 = -2*Zval/r beyond r=  2.7826
V l=1 = -2*Zval/r beyond r=  2.7826
V l=2 = -2*Zval/r beyond r=  2.9253
V l=3 = -2*Zval/r beyond r=  2.7826
All V_l potentials equal beyond r=  2.8530
This should be close to max(r_c) in ps generation
All pots = -2*Zval/r beyond r=  2.9253

VLOCAL1: 99.0% of the norm of Vloc inside      5.333 Ry
VLOCAL1: 99.9% of the norm of Vloc inside     12.154 Ry
atom: Maximum radius for 4*pi*r*r*local-pseudopot. charge    3.39869
atom: Maximum radius for r*vlocal+2*Zval:    2.96205
GHOST: No ghost state for L =  0
GHOST: No ghost state for L =  1
GHOST: No ghost state for L =  2
GHOST: No ghost state for L =  3

KBgen: Kleinman-Bylander projectors: 
   l= 0   rc=  3.075247   el= -0.794092   Ekb=  5.879390   kbcos=  0.167461
   l= 1   rc=  3.153101   el= -0.300068   Ekb=  2.642817   kbcos=  0.058301
   l= 2   rc=  3.273594   el=  0.001958   Ekb= -1.185135   kbcos= -0.104411
   l= 3   rc=  3.232927   el=  0.003046   Ekb= -0.497174   kbcos= -0.015889

KBgen: Total number of Kleinman-Bylander projectors:   16
atom: -------------------------------------------------------------------------

atom: SANKEY-TYPE ORBITALS:
atom: Selected multiple-zeta basis: split     

SPLIT: Orbitals with angular momentum L= 0

SPLIT: Basis orbitals for state 3s

SPLIT: PAO cut-off radius determined from an
SPLIT: energy shift=  0.002000 Ry

   izeta = 1
                 lambda =    1.000000
                     rc =    6.429618
                 energy =   -0.792283
                kinetic =    0.525293
    potential(screened) =   -1.317576
       potential(ionic) =   -3.744923

   izeta = 2
                 rmatch =    3.998416
              splitnorm =    0.280000
                 energy =   -0.583081
                kinetic =    1.069570
    potential(screened) =   -1.652651
       potential(ionic) =   -4.235185

SPLIT: Orbitals with angular momentum L= 1

SPLIT: Basis orbitals for state 3p

SPLIT: PAO cut-off radius determined from an
SPLIT: energy shift=  0.002000 Ry

   izeta = 1
                 lambda =    1.000000
                     rc =    8.464845
                 energy =   -0.298236
                kinetic =    0.785360
    potential(screened) =   -1.083596
       potential(ionic) =   -3.273779

   izeta = 2
                 rmatch =    4.587816
              splitnorm =    0.280000
                 energy =   -0.131871
                kinetic =    1.403687
    potential(screened) =   -1.535557
       potential(ionic) =   -4.015310

POLgen: Perturbative polarization orbital with L=  2

POLgen: Polarization orbital for state 3p

   izeta = 1
                     rc =    8.464845
                 energy =    0.321949
                kinetic =    1.055677
    potential(screened) =   -0.733728
       potential(ionic) =   -2.672950
atom: Total number of Sankey-type orbitals: 13

atm_pop: Valence configuration (for local Pseudopot. screening):
 3s( 2.00)                                                            
 3p( 2.00)                                                            
Vna: chval, zval:    4.00000   4.00000

Vna:  Cut-off radius for the neutral-atom potential:   8.464845

atom: _________________________________________________________________________

prinput: Basis input ----------------------------------------------------------

PAO.BasisType split     

%block ChemicalSpeciesLabel
    1    1 H                       # Species index, atomic number, species label
    2    7 N                       # Species index, atomic number, species label
    3   14 Si                      # Species index, atomic number, species label
%endblock ChemicalSpeciesLabel

%block PAO.Basis                 # Define Basis set
H                     1                    # Species label, number of l-shells
 n=1   0   2 P   1                   # n, l, Nzeta, Polarization, NzetaPol
   6.518      2.141   
   1.000      1.000   
N                     2                    # Species label, number of l-shells
 n=2   0   2                         # n, l, Nzeta 
   4.730      2.532   
   1.000      1.000   
 n=2   1   2 P   1                   # n, l, Nzeta, Polarization, NzetaPol
   5.924      2.532   
   1.000      1.000   
Si                    2                    # Species label, number of l-shells
 n=3   0   2                         # n, l, Nzeta 
   6.430      3.998   
   1.000      1.000   
 n=3   1   2 P   1                   # n, l, Nzeta, Polarization, NzetaPol
   8.465      4.588   
   1.000      1.000   
%endblock PAO.Basis

prinput: ----------------------------------------------------------------------

Dumping basis to NetCDF file H.ion.nc
Dumping basis to NetCDF file N.ion.nc
Dumping basis to NetCDF file Si.ion.nc
coor:   Atomic-coordinates input format  =     Cartesian coordinates
coor:                                          (in Angstroms)

siesta: Atomic coordinates (Bohr) and species
siesta:      4.20728  -9.84335   0.00000  1        1
siesta:      2.53622  -8.75380   0.00000  2        2
siesta:     -0.59314 -10.11916   0.00000  3        3
siesta:     -0.77197 -12.93796   0.00000  1        4
siesta:     -3.18231  -8.19885   0.00000  2        5
siesta:     -1.85659  -5.07554   0.00000  3        6
siesta:     -2.49265  -0.97819   0.00000  3        7
siesta:     -5.64703   0.08415   0.00000  2        8
siesta:     -6.32381   1.94587   0.00000  1        9
siesta:     -7.10147  -1.29512   0.00000  1       10
siesta:      0.10581   1.01407   0.00000  2       11
siesta:      3.21483  -0.00590   0.00000  3       12
siesta:      5.10713   2.11894   0.00000  1       13
siesta:      4.63543  -2.98192   0.00000  2       14
siesta:      2.28372  -5.28298   0.00000  3       15

siesta: System type = molecule  

initatomlists: Number of atoms, orbitals, and projectors:     15   155   205

siesta: ******************** Simulation parameters ****************************
siesta:
siesta: The following are some of the parameters of the simulation.
siesta: A complete list of the parameters used, including default values,
siesta: can be found in file out.fdf
siesta:
redata: Spin configuration                          = spin-orbit
redata: Number of spin components                   = 8
redata: Time-Reversal Symmetry                      = F
redata: Spin spiral                                 = F
############################################################
This spin-orbit implementation uses a local approximation.
From 4.2 and onwards the full non-local approximation is implemented
You are strongly advised to use >=4.2 versions!
############################################################
redata: Long output                                 =   F
redata: Number of Atomic Species                    =        3
redata: Charge density info will appear in .RHO file
redata: Write Mulliken Pop.                         = NO
redata: Matel table size (NRTAB)                    =     1024
redata: Mesh Cutoff                                 =   340.0000 Ry
redata: Net charge of the system                    =     0.0000 |e|
redata: Min. number of SCF Iter                     =        1
redata: Max. number of SCF Iter                     =      200
redata: SCF convergence failure will abort job
redata: SCF mix quantity                            = Hamiltonian
redata: Mix DM or H after convergence               =   F
redata: Recompute H after scf cycle                 =   F
redata: Mix DM in first SCF step                    =   T
redata: Write Pulay info on disk                    =   F
redata: New DM Occupancy tolerance                  = 0.000000000001
redata: No kicks to SCF
redata: DM Mixing Weight for Kicks                  =     0.5000
redata: Require Harris convergence for SCF          =   F
redata: Harris energy tolerance for SCF             =     0.000100 eV
redata: Require DM convergence for SCF              =   T
redata: DM tolerance for SCF                        =     0.000008
redata: Require EDM convergence for SCF             =   F
redata: EDM tolerance for SCF                       =     0.001000 eV
redata: Require H convergence for SCF               =   T
redata: Hamiltonian tolerance for SCF               =     0.000001 eV
redata: Require (free) Energy convergence for SCF   =   F
redata: (free) Energy tolerance for SCF             =     0.000100 eV
redata: Using Saved Data (generic)                  =   F
redata: Use continuation files for DM               =   T
redata: Neglect nonoverlap interactions             =   F
redata: Method of Calculation                       = Diagonalization
redata: Electronic Temperature                      =   299.9978 K
redata: Fix the spin of the system                  =   F
redata: Dynamics option                             = CG coord. optimization
redata: Variable cell                               =   F
redata: Use continuation files for CG               =   F
redata: Max atomic displ per move                   =     0.3000 Ang
redata: Maximum number of optimization moves        =      300
redata: Force tolerance                             =     0.0050 eV/Ang
mix.SCF: Pulay mixing                            = Pulay
mix.SCF:    Variant                              = stable
mix.SCF:    History steps                        = 6
mix.SCF:    Linear mixing weight                 =     0.250000
mix.SCF:    Mixing weight                        =     0.250000
mix.SCF:    SVD condition                        = 0.1000E-07
mix.SCF:    Restart steps                        = 24
mix.SCF:    Restart save steps                   = 3
mix.SCF: Spin-component mixing                   all
redata: Save all siesta data in one NC              =   F
redata: ***********************************************************************

%block SCF.Mixers
  Pulay
%endblock SCF.Mixers

%block SCF.Mixer.Pulay
  # Mixing method
  method pulay
  variant stable

  # Mixing options
  weight 0.2500
  weight.linear 0.2500
  history 6
  restart 24
  restart.save 3
%endblock SCF.Mixer.Pulay

DM_history_depth set to one: no extrapolation allowed by default for geometry relaxation
Size of DM history Fstack: 1
Total number of electrons:    50.000000
Total ionic charge:    50.000000

* ProcessorY, Blocksize:    2  24


* Orbital distribution balance (max,min):    35    24


Time-reversal symmetry not used.

siesta: k-grid: Number of k-points =     1
siesta: k-grid: Cutoff (effective) =     4.927 Ang
siesta: k-grid: Supercell and displacements
siesta: k-grid:    1   0   0      0.000
siesta: k-grid:    0   1   0      0.000
siesta: k-grid:    0   0   1      0.000

diag: Algorithm                                     = ELPA-1stage
diag: Parallel over k                               =   F
diag: Use parallel 2D distribution                  =   T
diag: Parallel block-size                           = 24
diag: Parallel distribution                         =     2 x     3
diag: Used triangular part                          = Lower
diag: Absolute tolerance                            =  0.100E-15
diag: Orthogonalization factor                      =  0.100E-05
diag: Memory factor                                 =  1.0000


ts: **************************************************************
ts: Save H and S matrices                           =    F
ts: Save DM and EDM matrices                        =    F
ts: Only save the overlap matrix S                  =    F
ts: **************************************************************

************************ Begin: TS CHECKS AND WARNINGS ************************
************************ End: TS CHECKS AND WARNINGS **************************


                     ====================================
                        Begin CG opt. move =      0
                     ====================================

outcoor: Atomic coordinates (Ang):                          
    2.22639502   -5.20887339    0.00000000   1       1  H
    1.34210819   -4.63231181    0.00000000   2       2  N
   -0.31387573   -5.35482501    0.00000000   3       3  Si
   -0.40851123   -6.84647117    0.00000000   1       4  H
   -1.68400389   -4.33864336    0.00000000   2       5  N
   -0.98246232   -2.68585898    0.00000000   3       6  Si
   -1.31905134   -0.51763396    0.00000000   3       7  Si
   -2.98827632    0.04452788    0.00000000   2       8  N
   -3.34641704    1.02970942    0.00000000   1       9  H
   -3.75793334   -0.68534630    0.00000000   1      10  H
    0.05599296    0.53662160    0.00000000   2      11  N
    1.70121583   -0.00312387    0.00000000   3      12  Si
    2.70257596    1.12129471    0.00000000   1      13  H
    2.45296479   -1.57796182    0.00000000   2      14  N
    1.20849214   -2.79563243    0.00000000   3      15  Si

outcell: Unit cell vectors (Ang):
       14.779133    0.000000    0.000000
        0.000000   16.638097    0.000000
        0.000000    0.000000    9.854683

outcell: Cell vector modules (Ang)   :   14.779133   16.638097    9.854683
outcell: Cell angles (23,13,12) (deg):     90.0000     90.0000     90.0000
outcell: Cell volume (Ang**3)        :   2423.2335
<dSpData1D:S at geom step 0
  <sparsity:sparsity for geom step 0
    nrows_g=155 nrows=35 sparsity=.2195 nnzs=5273, refcount: 8>
  <dData1D:(new from dSpData1D) n=5273, refcount: 1>
refcount: 1>
new_DM -- step:     1
Initializing Density Matrix...

Attempting to read DM from file... Failed...
DM filled with atomic data:
<dSpData2D:DM initialized from atoms
  <sparsity:sparsity for geom step 0
    nrows_g=155 nrows=35 sparsity=.2195 nnzs=5273, refcount: 9>
  <dData2D:DM n=5273 m=8, refcount: 1>
refcount: 1>
     spin moment: S , {S} =   30.00000   0.00000   0.00000  30.00000
No. of atoms with KB's overlaping orbs in proc 0. Max # of overlaps:      14     134

Initializing spin-orbit part of the Hamiltonian
  Adding spin-orbit effects for H 
  Adding spin-orbit effects for N 
  Adding spin-orbit effects for Si


New grid distribution:   1
           1       1:   90    1:   48    1:   20
           2       1:   90    1:   48   21:   40
           3       1:   90    1:   48   41:   60
           4       1:   90   49:   96    1:   20
           5       1:   90   49:   96   21:   40
           6       1:   90   49:   96   41:   60

InitMesh: MESH =   180 x   192 x   120 =     4147200
InitMesh: (bp) =    90 x    96 x    60 =      518400
InitMesh: Mesh cutoff (required, used) =   340.000   368.042 Ry
ExtMesh (bp) on 0 =   202 x   152 x   132 =     4052928
New grid distribution:   2
           1       1:   12    1:   76    1:   60
           2      13:   90    1:   76   21:   60
           3       1:   13   77:   96    1:   60
           4      14:   90   77:   96    1:   21
           5      13:   90    1:   76    1:   20
           6      14:   90   77:   96   22:   60
New grid distribution:   3
           1       1:   19    1:   62    1:   60
           2       1:   21   63:   96    1:   60
           3      20:   90    1:   62   26:   60
           4      22:   90   63:   96    1:   26
           5      20:   90    1:   62    1:   25
           6      22:   90   63:   96   27:   60
Setting up quadratic distribution...
ExtMesh (bp) on 0 =   124 x   180 x   172 =     3839040
PhiOnMesh: Number of (b)points on node 0 =                54720
PhiOnMesh: nlist on node 0 =               971047

stepf: Fermi-Dirac step function

siesta: Program's energy decomposition (eV):
siesta: Ebs     =      -309.250470
siesta: Eions   =      1645.679058
siesta: Ena     =       214.788612
siesta: Ekin    =      1532.271457
siesta: Enl     =     -1585.092037
siesta: Eso     =        -0.001658
siesta: Edftu   =         0.000000
siesta: DEna    =        97.808843
siesta: DUscf   =        42.593475
siesta: DUext   =         0.000000
siesta: Exc     =      -590.982937
siesta: eta*DQ  =         0.000000
siesta: Emadel  =         0.000000
siesta: Emeta   =         0.000000
siesta: Emolmec =         0.000000
siesta: Ekinion =         0.000000
siesta: Eharris =     -1887.741375
siesta: Etot    =     -1934.293303
siesta: FreeEng =     -1934.293311

        iscf     Eharris(eV)        E_KS(eV)     FreeEng(eV)     dDmax    Ef(eV) dHmax(eV)
   scf:    1    -1887.741375    -1934.293303    -1934.293311  0.941474 -4.847366 19.061633
     spin moment: S , {S} =    1.99999   0.00000   0.00000   1.99999
timer: Routine,Calls,Time,% = IterSCF        1       3.273  30.70
   scf:    2    -1968.637849    -1957.034992    -1957.036302  0.272745 -3.966259  7.954102
     spin moment: S , {S} =    0.00742   0.00000  -0.00000   0.00742
   scf:    3    -1959.710704    -1958.689425    -1958.689425  0.055499 -3.568781  6.120397
     spin moment: S , {S} =    0.00006   0.00000   0.00000   0.00006
   scf:    4    -1959.466567    -1959.099890    -1959.099890  0.022703 -3.429056  4.176598
     spin moment: S , {S} =    0.00004   0.00000   0.00000   0.00004
   scf:    5    -1959.658171    -1959.377237    -1959.377237  0.030560 -3.225243  1.594211
     spin moment: S , {S} =    0.00002   0.00000   0.00000   0.00002
   scf:    6    -1959.583594    -1959.476074    -1959.476074  0.020633 -3.762496  0.533542
     spin moment: S , {S} =    0.00001  -0.00000   0.00000   0.00001
   scf:    7    -1959.560439    -1959.515767    -1959.515767  0.013063 -3.729257  0.208968
     spin moment: S , {S} =    0.00000  -0.00000   0.00000   0.00000
   scf:    8    -1959.539690    -1959.527107    -1959.527107  0.006976 -3.721970  0.107040
     spin moment: S , {S} =    0.00000  -0.00000   0.00000   0.00000
   scf:    9    -1959.544957    -1959.535237    -1959.535237  0.008203 -3.719848  0.074024
     spin moment: S , {S} =    0.00000  -0.00000   0.00000   0.00000
   scf:   10    -1959.544863    -1959.539405    -1959.539405  0.007626 -3.716231  0.046184
     spin moment: S , {S} =    0.00000  -0.00000   0.00000   0.00000
   scf:   11    -1959.542442    -1959.540677    -1959.540677  0.005164 -3.714521  0.024933
     spin moment: S , {S} =    0.00000  -0.00000   0.00000   0.00000
   scf:   12    -1959.541427    -1959.540995    -1959.540995  0.002986 -3.712843  0.014597
     spin moment: S , {S} =    0.00000  -0.00000   0.00000   0.00000
   scf:   13    -1959.541152    -1959.541065    -1959.541065  0.001286 -3.713260  0.008754
     spin moment: S , {S} =    0.00000  -0.00000   0.00000   0.00000
   scf:   14    -1959.541147    -1959.541101    -1959.541101  0.001028 -3.712841  0.006006
     spin moment: S , {S} =    0.00000  -0.00000   0.00000   0.00000
   scf:   15    -1959.541137    -1959.541116    -1959.541116  0.000832 -3.712729  0.002184
     spin moment: S , {S} =    0.00000  -0.00000   0.00000  -0.00000
   scf:   16    -1959.541122    -1959.541119    -1959.541119  0.000318 -3.712535  0.001443
     spin moment: S , {S} =    0.00000  -0.00000   0.00000  -0.00000
   scf:   17    -1959.541121    -1959.541119    -1959.541119  0.000182 -3.712452  0.000861
     spin moment: S , {S} =    0.00000  -0.00000  -0.00000  -0.00000
   scf:   18    -1959.541120    -1959.541120    -1959.541120  0.000086 -3.712418  0.000624
     spin moment: S , {S} =    0.00000  -0.00000  -0.00000  -0.00000
   scf:   19    -1959.541120    -1959.541120    -1959.541120  0.000038 -3.712403  0.000499
     spin moment: S , {S} =    0.00000  -0.00000  -0.00000  -0.00000
   scf:   20    -1959.541120    -1959.541120    -1959.541120  0.000042 -3.712394  0.000308
     spin moment: S , {S} =    0.00000  -0.00000  -0.00000  -0.00000
   scf:   21    -1959.541120    -1959.541120    -1959.541120  0.000028 -3.712386  0.000184
     spin moment: S , {S} =    0.00000  -0.00000  -0.00000  -0.00000
   scf:   22    -1959.541120    -1959.541120    -1959.541120  0.000015 -3.712387  0.000132
     spin moment: S , {S} =    0.00000  -0.00000  -0.00000  -0.00000
   scf:   23    -1959.541120    -1959.541120    -1959.541120  0.000012 -3.712390  0.000102
     spin moment: S , {S} =    0.00000  -0.00000  -0.00000  -0.00000
   scf:   24    -1959.541120    -1959.541120    -1959.541120  0.000006 -3.712391  0.000072
     spin moment: S , {S} =    0.00000  -0.00000  -0.00000  -0.00000
mix: Pulay -- resetting history
   scf:   25    -1959.541120    -1959.541120    -1959.541120  0.000005 -3.712391  0.000044
     spin moment: S , {S} =    0.00000  -0.00000  -0.00000  -0.00000
   scf:   26    -1959.541120    -1959.541120    -1959.541120  0.000006 -3.712391  0.000023
     spin moment: S , {S} =    0.00000  -0.00000  -0.00000  -0.00000
   scf:   27    -1959.541120    -1959.541120    -1959.541120  0.000003 -3.712390  0.000009
     spin moment: S , {S} =    0.00000  -0.00000  -0.00000  -0.00000
   scf:   28    -1959.541120    -1959.541120    -1959.541120  0.000001 -3.712390  0.000006
     spin moment: S , {S} =    0.00000  -0.00000  -0.00000  -0.00000
   scf:   29    -1959.541120    -1959.541120    -1959.541120  0.000001 -3.712390  0.000004
     spin moment: S , {S} =    0.00000  -0.00000  -0.00000  -0.00000
   scf:   30    -1959.541120    -1959.541120    -1959.541120  0.000001 -3.712390  0.000001
     spin moment: S , {S} =    0.00000  -0.00000  -0.00000  -0.00000
   scf:   31    -1959.541120    -1959.541120    -1959.541120  0.000000 -3.712390  0.000001
     spin moment: S , {S} =    0.00000  -0.00000  -0.00000  -0.00000

SCF Convergence by DM+H criterion
max |DM_out - DM_in|         :     0.0000001812
max |H_out - H_in|      (eV) :     0.0000006562
SCF cycle converged after 31 iterations

Using DM_out to compute the final energy and forces
No. of atoms with KB's overlaping orbs in proc 0. Max # of overlaps:      14     134

siesta: E_KS(eV) =            -1959.5411

siesta: E_KS - E_eggbox =     -1959.5411
     spin moment: S , {S} =    0.00000  -0.00000  -0.00000  -0.00000

siesta: Atomic forces (eV/Ang):
     1   -0.021091    0.030082    0.000000
     2    0.023694    0.015745   -0.000000
     3    0.084161   -0.015665    0.000000
     4   -0.000995   -0.000346   -0.000000
     5    0.016543   -0.117204   -0.000000
     6   -0.145458   -0.054963    0.000000
     7   -0.163108   -0.078487    0.000000
     8   -0.088789    0.058465    0.000000
     9    0.008280    0.229034    0.000000
    10    0.129220    0.142552   -0.000000
    11   -0.020810   -0.029351   -0.000000
    12   -0.031321   -0.026922   -0.000000
    13   -0.005604   -0.003027   -0.000000
    14   -0.020530    0.004093    0.000000
    15   -0.019077    0.044929   -0.000000
----------------------------------------
   Tot   -0.254884    0.198936   -0.000000
----------------------------------------
   Max    0.229034
   Res    0.064489    sqrt( Sum f_i^2 / 3N )
----------------------------------------
   Max    0.229034    constrained

Stress tensor Voigt[x,y,z,yz,xz,xy] (kbar):        0.59       -0.61        0.02        0.00       -0.00        0.95
(Free)E + p*V (eV/cell)    -1959.5427
Target enthalpy (eV/cell)    -1959.5411

                     ====================================
                        Begin CG opt. move =      1
                     ====================================

outcoor: Atomic coordinates (Ang):                          
    2.21176936   -5.18801263    0.00000000   1       1  H
    1.35853939   -4.62139294   -0.00000000   2       2  N
   -0.25551275   -5.36568794    0.00000001   3       3  Si
   -0.40920151   -6.84671097   -0.00000000   1       4  H
   -1.67253178   -4.41992063   -0.00000001   2       5  N
   -1.08333284   -2.72397434    0.00000000   3       6  Si
   -1.43216125   -0.57206223    0.00000001   3       7  Si
   -3.04984836    0.08507166    0.00000000   2       8  N
   -3.34067519    1.18853712    0.00000000   1       9  H
   -3.66832315   -0.58649083   -0.00000000   1      10  H
    0.04156157    0.51626761   -0.00000001   2      11  N
    1.67949590   -0.02179365   -0.00000001   3      12  Si
    2.69868951    1.11919575   -0.00000001   1      13  H
    2.43872791   -1.57512365    0.00000004   2      14  N
    1.19526297   -2.76447535   -0.00000002   3      15  Si

outcell: Unit cell vectors (Ang):
       14.779133    0.000000    0.000000
        0.000000   16.638097    0.000000
        0.000000    0.000000    9.854683

outcell: Cell vector modules (Ang)   :   14.779133   16.638097    9.854683
outcell: Cell angles (23,13,12) (deg):     90.0000     90.0000     90.0000
outcell: Cell volume (Ang**3)        :   2423.2335
<dSpData1D:S at geom step 1
  <sparsity:sparsity for geom step 1
    nrows_g=155 nrows=35 sparsity=.2186 nnzs=5253, refcount: 8>
  <dData1D:(new from dSpData1D) n=5253, refcount: 1>
refcount: 1>
new_DM -- step:     2
Re-using DM from previous geometries...
Number of DMs in history: 1
 DM extrapolation coefficients: 
1   1.00000
New DM after history re-use:
<dSpData2D:SpM extrapolated using coords
  <sparsity:sparsity for geom step 1
    nrows_g=155 nrows=35 sparsity=.2186 nnzs=5253, refcount: 10>
  <dData2D:(temp array for extrapolation) n=5253 m=8, refcount: 1>
refcount: 1>
     spin moment: S , {S} =    0.00000  -0.00000  -0.00000   0.00000
Note: For starting DM, Qtot, Tr[D*S] =         50.00000000         49.94758859
No. of atoms with KB's overlaping orbs in proc 0. Max # of overlaps:      14     129
New grid distribution:   1
           1       1:   90    1:   48    1:   20
           2       1:   90    1:   48   21:   40
           3       1:   90    1:   48   41:   60
           4       1:   90   49:   96    1:   20
           5       1:   90   49:   96   21:   40
           6       1:   90   49:   96   41:   60

InitMesh: MESH =   180 x   192 x   120 =     4147200
InitMesh: (bp) =    90 x    96 x    60 =      518400
InitMesh: Mesh cutoff (required, used) =   340.000   368.042 Ry
ExtMesh (bp) on 0 =   202 x   152 x   132 =     4052928
New grid distribution:   2
           1       1:   12    1:   76    1:   60
           2      13:   90    1:   76   21:   60
           3       1:   13   77:   96    1:   60
           4      14:   90   77:   96    1:   21
           5      13:   90    1:   76    1:   20
           6      14:   90   77:   96   22:   60
New grid distribution:   3
           1       1:   19    1:   62    1:   60
           2       1:   21   63:   96    1:   60
           3      20:   90    1:   62   25:   60
           4      22:   90   63:   96    1:   26
           5      20:   90    1:   62    1:   24
           6      22:   90   63:   96   27:   60
Setting up quadratic distribution...
ExtMesh (bp) on 0 =   124 x   180 x   172 =     3839040
PhiOnMesh: Number of (b)points on node 0 =                54720
PhiOnMesh: nlist on node 0 =               964483

        iscf     Eharris(eV)        E_KS(eV)     FreeEng(eV)     dDmax    Ef(eV) dHmax(eV)
   scf:    1    -1957.693842    -1958.437962    -1958.437962  0.056974 -3.708552  1.880626
     spin moment: S , {S} =    0.00000  -0.00000   0.00000   0.00000
   scf:    2    -1951.230353    -1956.321491    -1956.321491  0.119821 -3.592212  7.655170
     spin moment: S , {S} =    0.00000  -0.00000   0.00000   0.00000
   scf:    3    -1959.034618    -1958.656975    -1958.656975  0.099322 -3.894009  0.550858
     spin moment: S , {S} =    0.00000  -0.00000   0.00000   0.00000
   scf:    4    -1958.670581    -1958.665348    -1958.665348  0.003701 -3.292688  0.211409
     spin moment: S , {S} =    0.00000  -0.00000   0.00000  -0.00000
   scf:    5    -1958.666792    -1958.666176    -1958.666176  0.001021 -3.310969  0.072741
     spin moment: S , {S} =    0.00000  -0.00000   0.00000  -0.00000
   scf:    6    -1958.666331    -1958.666265    -1958.666265  0.000338 -3.321109  0.020897
     spin moment: S , {S} =    0.00000  -0.00000   0.00000  -0.00000
   scf:    7    -1958.666290    -1958.666279    -1958.666279  0.000246 -3.325201  0.007684
     spin moment: S , {S} =    0.00000  -0.00000   0.00000  -0.00000
   scf:    8    -1958.666285    -1958.666282    -1958.666282  0.000152 -3.327193  0.002466
     spin moment: S , {S} =    0.00000  -0.00000   0.00000  -0.00000
   scf:    9    -1958.666283    -1958.666283    -1958.666283  0.000067 -3.327860  0.000610
     spin moment: S , {S} =    0.00000  -0.00000   0.00000  -0.00000
   scf:   10    -1958.666283    -1958.666283    -1958.666283  0.000019 -3.327946  0.000305
     spin moment: S , {S} =    0.00000  -0.00000   0.00000  -0.00000
   scf:   11    -1958.666283    -1958.666283    -1958.666283  0.000016 -3.328013  0.000213
     spin moment: S , {S} =    0.00000  -0.00000   0.00000  -0.00000
   scf:   12    -1958.666283    -1958.666283    -1958.666283  0.000004 -3.327981  0.000058
     spin moment: S , {S} =    0.00000  -0.00000   0.00000  -0.00000
   scf:   13    -1958.666283    -1958.666283    -1958.666283  0.000002 -3.327982  0.000028
     spin moment: S , {S} =    0.00000  -0.00000   0.00000  -0.00000
   scf:   14    -1958.666283    -1958.666283    -1958.666283  0.000001 -3.327980  0.000013
     spin moment: S , {S} =    0.00000  -0.00000   0.00000  -0.00000
   scf:   15    -1958.666283    -1958.666283    -1958.666283  0.000000 -3.327976  0.000004
     spin moment: S , {S} =    0.00000  -0.00000   0.00000  -0.00000
   scf:   16    -1958.666283    -1958.666283    -1958.666283  0.000000 -3.327975  0.000002
     spin moment: S , {S} =    0.00000  -0.00000   0.00000  -0.00000
   scf:   17    -1958.666283    -1958.666283    -1958.666283  0.000000 -3.327974  0.000001
     spin moment: S , {S} =    0.00000  -0.00000   0.00000  -0.00000

SCF Convergence by DM+H criterion
max |DM_out - DM_in|         :     0.0000000706
max |H_out - H_in|      (eV) :     0.0000009929
SCF cycle converged after 17 iterations

Using DM_out to compute the final energy and forces
No. of atoms with KB's overlaping orbs in proc 0. Max # of overlaps:      14     129

siesta: E_KS(eV) =            -1958.6663
     spin moment: S , {S} =    0.00000  -0.00000   0.00000  -0.00000

siesta: Atomic forces (eV/Ang):
     1    1.313633   -0.780366   -0.000000
     2   -0.842461    1.017211    0.000000
     3   -0.549306   -0.118881   -0.000000
     4    0.209956   -0.106361    0.000000
     5   -0.047927    0.099904    0.000000
     6    0.917626   -0.359101   -0.000000
     7    1.975972    1.252448   -0.000000
     8    5.591123    8.830148    0.000000
     9    0.541466   -2.841331   -0.000000
    10   -6.675969   -5.825727   -0.000000
    11   -1.405481   -0.881473    0.000000
    12   -0.015991    0.726398    0.000000
    13   -0.295423   -0.273251    0.000000
    14    0.388882   -0.295251   -0.000000
    15   -1.147206   -0.462603    0.000000
----------------------------------------
   Tot   -0.041106   -0.018235    0.000000
----------------------------------------
   Max    8.830148
   Res    2.171654    sqrt( Sum f_i^2 / 3N )
----------------------------------------
   Max    8.830148    constrained

Stress tensor Voigt[x,y,z,yz,xz,xy] (kbar):       -1.03       -1.17        0.02       -0.00       -0.00       -0.85
(Free)E + p*V (eV/cell)    -1957.5693
Target enthalpy (eV/cell)    -1958.6663

                     ====================================
                        Begin CG opt. move =      2
                     ====================================

outcoor: Atomic coordinates (Ang):                          
    2.22551850   -5.20762320    0.00000000   1       1  H
    1.34309292   -4.63165744   -0.00000000   2       2  N
   -0.31037801   -5.35547603    0.00000000   3       3  Si
   -0.40855260   -6.84648554   -0.00000000   1       4  H
   -1.68331636   -4.34351434   -0.00000000   2       5  N
   -0.98850753   -2.68814325    0.00000000   3       6  Si
   -1.32583006   -0.52089587    0.00000000   3       7  Si
   -2.99196636    0.04695768    0.00000000   2       8  N
   -3.34607293    1.03922803    0.00000000   1       9  H
   -3.75256297   -0.67942185   -0.00000000   1      10  H
    0.05512808    0.53540178   -0.00000000   2      11  N
    1.69991415   -0.00424276   -0.00000000   3      12  Si
    2.70234304    1.12116892   -0.00000000   1      13  H
    2.45211157   -1.57779173    0.00000000   2      14  N
    1.20769931   -2.79376517   -0.00000000   3      15  Si

outcell: Unit cell vectors (Ang):
       14.779133    0.000000    0.000000
        0.000000   16.638097    0.000000
        0.000000    0.000000    9.854683

outcell: Cell vector modules (Ang)   :   14.779133   16.638097    9.854683
outcell: Cell angles (23,13,12) (deg):     90.0000     90.0000     90.0000
outcell: Cell volume (Ang**3)        :   2423.2335
<dSpData1D:S at geom step 2
  <sparsity:sparsity for geom step 2
    nrows_g=155 nrows=35 sparsity=.2195 nnzs=5273, refcount: 8>
  <dData1D:(new from dSpData1D) n=5273, refcount: 1>
refcount: 1>
new_DM -- step:     3
Re-using DM from previous geometries...
Number of DMs in history: 1
 DM extrapolation coefficients: 
1   1.00000
New DM after history re-use:
<dSpData2D:SpM extrapolated using coords
  <sparsity:sparsity for geom step 2
    nrows_g=155 nrows=35 sparsity=.2195 nnzs=5273, refcount: 10>
  <dData2D:(temp array for extrapolation) n=5273 m=8, refcount: 1>
refcount: 1>
     spin moment: S , {S} =    0.00000   0.00000   0.00000   0.00000
No. of atoms with KB's overlaping orbs in proc 0. Max # of overlaps:      14     134
New grid distribution:   1
           1       1:   90    1:   48    1:   20
           2       1:   90    1:   48   21:   40
           3       1:   90    1:   48   41:   60
           4       1:   90   49:   96    1:   20
           5       1:   90   49:   96   21:   40
           6       1:   90   49:   96   41:   60

InitMesh: MESH =   180 x   192 x   120 =     4147200
InitMesh: (bp) =    90 x    96 x    60 =      518400
InitMesh: Mesh cutoff (required, used) =   340.000   368.042 Ry
ExtMesh (bp) on 0 =   202 x   152 x   132 =     4052928
New grid distribution:   2
           1       1:   12    1:   76    1:   60
           2      13:   90    1:   76   21:   60
           3       1:   13   77:   96    1:   60
           4      14:   90   77:   96    1:   21
           5      13:   90    1:   76    1:   20
           6      14:   90   77:   96   22:   60
New grid distribution:   3
           1       1:   19    1:   62    1:   60
           2       1:   21   63:   96    1:   60
           3      20:   90    1:   62   25:   60
           4      22:   90   63:   96    1:   26
           5      20:   90    1:   62    1:   24
           6      22:   90   63:   96   27:   60
Setting up quadratic distribution...
ExtMesh (bp) on 0 =   124 x   180 x   172 =     3839040
PhiOnMesh: Number of (b)points on node 0 =                54720
PhiOnMesh: nlist on node 0 =               970775

        iscf     Eharris(eV)        E_KS(eV)     FreeEng(eV)     dDmax    Ef(eV) dHmax(eV)
   scf:    1    -1959.183093    -1959.355707    -1959.355707  0.059890 -3.248432  1.891655
     spin moment: S , {S} =    0.00000   0.00000  -0.00000  -0.00000
   scf:    2    -1955.062748    -1958.139491    -1958.139491  0.095825 -3.585536  6.632506
     spin moment: S , {S} =    0.00000  -0.00000   0.00000   0.00000
   scf:    3    -1959.817544    -1959.539068    -1959.539068  0.075852 -3.718743  0.596392
     spin moment: S , {S} =    0.00000  -0.00000  -0.00000  -0.00000
   scf:    4    -1959.548742    -1959.544595    -1959.544595  0.002931 -3.709099  0.254576
     spin moment: S , {S} =    0.00000  -0.00000  -0.00000  -0.00000
   scf:    5    -1959.546219    -1959.545574    -1959.545574  0.001700 -3.705940  0.040626
     spin moment: S , {S} =    0.00000  -0.00000  -0.00000  -0.00000
   scf:    6    -1959.545650    -1959.545616    -1959.545616  0.000232 -3.705513  0.016311
     spin moment: S , {S} =    0.00000  -0.00000  -0.00000  -0.00000
   scf:    7    -1959.545637    -1959.545628    -1959.545628  0.000232 -3.705177  0.004895
     spin moment: S , {S} =    0.00000  -0.00000  -0.00000  -0.00000
   scf:    8    -1959.545631    -1959.545630    -1959.545630  0.000100 -3.704775  0.001585
     spin moment: S , {S} =    0.00000  -0.00000  -0.00000  -0.00000
   scf:    9    -1959.545630    -1959.545630    -1959.545630  0.000035 -3.704747  0.000868
     spin moment: S , {S} =    0.00000  -0.00000  -0.00000  -0.00000
   scf:   10    -1959.545630    -1959.545630    -1959.545630  0.000025 -3.704713  0.000332
     spin moment: S , {S} =    0.00000  -0.00000  -0.00000  -0.00000
   scf:   11    -1959.545630    -1959.545630    -1959.545630  0.000009 -3.704695  0.000154
     spin moment: S , {S} =    0.00000  -0.00000  -0.00000  -0.00000
   scf:   12    -1959.545630    -1959.545630    -1959.545630  0.000003 -3.704684  0.000089
     spin moment: S , {S} =    0.00000  -0.00000  -0.00000  -0.00000
   scf:   13    -1959.545630    -1959.545630    -1959.545630  0.000002 -3.704681  0.000048
     spin moment: S , {S} =    0.00000  -0.00000  -0.00000  -0.00000
   scf:   14    -1959.545630    -1959.545630    -1959.545630  0.000001 -3.704684  0.000018
     spin moment: S , {S} =    0.00000  -0.00000  -0.00000  -0.00000
   scf:   15    -1959.545630    -1959.545630    -1959.545630  0.000000 -3.704685  0.000008
     spin moment: S , {S} =    0.00000  -0.00000  -0.00000  -0.00000
   scf:   16    -1959.545630    -1959.545630    -1959.545630  0.000000 -3.704686  0.000004
     spin moment: S , {S} =    0.00000  -0.00000  -0.00000  -0.00000
   scf:   17    -1959.545630    -1959.545630    -1959.545630  0.000000 -3.704686  0.000002
     spin moment: S , {S} =    0.00000  -0.00000  -0.00000  -0.00000
   scf:   18    -1959.545630    -1959.545630    -1959.545630  0.000000 -3.704686  0.000000
     spin moment: S , {S} =    0.00000  -0.00000  -0.00000  -0.00000

SCF Convergence by DM+H criterion
max |DM_out - DM_in|         :     0.0000000463
max |H_out - H_in|      (eV) :     0.0000004155
SCF cycle converged after 18 iterations

Using DM_out to compute the final energy and forces
No. of atoms with KB's overlaping orbs in proc 0. Max # of overlaps:      14     134

siesta: E_KS(eV) =            -1959.5456
     spin moment: S , {S} =    0.00000  -0.00000  -0.00000  -0.00000

siesta: Atomic forces (eV/Ang):
     1    0.038319   -0.000383    0.000000
     2   -0.024615    0.071312   -0.000000
     3    0.049914   -0.022576    0.000000
     4    0.011283   -0.007247    0.000000
     5    0.014632   -0.108898    0.000000
     6   -0.070682   -0.071304    0.000000
     7   -0.016314    0.016579   -0.000000
     8    0.103108    0.462577    0.000000
     9    0.047201   -0.030221    0.000000
    10   -0.123486   -0.059576   -0.000000
    11   -0.124273   -0.096591    0.000000
    12   -0.030713    0.017141    0.000000
    13   -0.024302   -0.020841   -0.000000
    14    0.002877   -0.013513   -0.000000
    15   -0.094694    0.017220   -0.000000
----------------------------------------
   Tot   -0.241745    0.153680    0.000000
----------------------------------------
   Max    0.462577
   Res    0.083808    sqrt( Sum f_i^2 / 3N )
----------------------------------------
   Max    0.462577    constrained

Stress tensor Voigt[x,y,z,yz,xz,xy] (kbar):        0.56       -0.56        0.02        0.00       -0.00        0.88
(Free)E + p*V (eV/cell)    -1959.5575
Target enthalpy (eV/cell)    -1959.5456

cgvc: Finished line minimization    1.  Mean atomic displacement =    0.0088

                     ====================================
                        Begin CG opt. move =      3
                     ====================================

outcoor: Atomic coordinates (Ang):                          
    2.22563370   -5.20672638    0.00000000   1       1  H
    1.34332393   -4.62978982   -0.00000000   2       2  N
   -0.30687211   -5.35638833    0.00000000   3       3  Si
   -0.40836191   -6.84663762   -0.00000000   1       4  H
   -1.68253298   -4.34916680   -0.00000000   2       5  N
   -0.99426214   -2.69118965    0.00000000   3       6  Si
   -1.33105225   -0.52293114    0.00000000   3       7  Si
   -2.99261950    0.05775946    0.00000000   2       8  N
   -3.34490116    1.04552219    0.00000000   1       9  H
   -3.75109283   -0.67630138   -0.00000000   1      10  H
    0.05207273    0.53263091   -0.00000000   2      11  N
    1.69837210   -0.00471693   -0.00000000   3      12  Si
    2.70169942    1.12067046   -0.00000000   1      13  H
    2.45155066   -1.57793290    0.00000000   2      14  N
    1.20527440   -2.79207786   -0.00000000   3      15  Si

outcell: Unit cell vectors (Ang):
       14.779133    0.000000    0.000000
        0.000000   16.638097    0.000000
        0.000000    0.000000    9.854683

outcell: Cell vector modules (Ang)   :   14.779133   16.638097    9.854683
outcell: Cell angles (23,13,12) (deg):     90.0000     90.0000     90.0000
outcell: Cell volume (Ang**3)        :   2423.2335
<dSpData1D:S at geom step 3
  <sparsity:sparsity for geom step 3
    nrows_g=155 nrows=35 sparsity=.2195 nnzs=5273, refcount: 8>
  <dData1D:(new from dSpData1D) n=5273, refcount: 1>
refcount: 1>
new_DM -- step:     4
Re-using DM from previous geometries...
Number of DMs in history: 1
 DM extrapolation coefficients: 
1   1.00000
New DM after history re-use:
<dSpData2D:SpM extrapolated using coords
  <sparsity:sparsity for geom step 3
    nrows_g=155 nrows=35 sparsity=.2195 nnzs=5273, refcount: 10>
  <dData2D:(temp array for extrapolation) n=5273 m=8, refcount: 1>
refcount: 1>
     spin moment: S , {S} =    0.00000  -0.00000  -0.00000  -0.00000
No. of atoms with KB's overlaping orbs in proc 0. Max # of overlaps:      14     134
New grid distribution:   1
           1       1:   90    1:   48    1:   20
           2       1:   90    1:   48   21:   40
           3       1:   90    1:   48   41:   60
           4       1:   90   49:   96    1:   20
           5       1:   90   49:   96   21:   40
           6       1:   90   49:   96   41:   60

InitMesh: MESH =   180 x   192 x   120 =     4147200
InitMesh: (bp) =    90 x    96 x    60 =      518400
InitMesh: Mesh cutoff (required, used) =   340.000   368.042 Ry
ExtMesh (bp) on 0 =   202 x   152 x   132 =     4052928
New grid distribution:   2
           1       1:   12    1:   76    1:   60
           2      13:   90    1:   76   21:   60
           3       1:   13   77:   96    1:   60
           4      14:   90   77:   96    1:   21
           5      13:   90    1:   76    1:   20
           6      14:   90   77:   96   22:   60
New grid distribution:   3
           1       1:   19    1:   62    1:   60
           2       1:   21   63:   96    1:   60
           3      20:   90    1:   62   25:   60
           4      22:   90   63:   96    1:   26
           5      20:   90    1:   62    1:   24
           6      22:   90   63:   96   27:   60
Setting up quadratic distribution...
ExtMesh (bp) on 0 =   124 x   180 x   172 =     3839040
PhiOnMesh: Number of (b)points on node 0 =                54720
PhiOnMesh: nlist on node 0 =               970335

        iscf     Eharris(eV)        E_KS(eV)     FreeEng(eV)     dDmax    Ef(eV) dHmax(eV)
   scf:    1    -1959.550486    -1959.550691    -1959.550691  0.003256 -3.712071  0.084000
     spin moment: S , {S} =    0.00000  -0.00000  -0.00000   0.00000
   scf:    2    -1959.542764    -1959.548471    -1959.548471  0.004062 -3.732592  0.140549
     spin moment: S , {S} =    0.00000  -0.00000  -0.00000   0.00000
   scf:    3    -1959.551587    -1959.551063    -1959.551063  0.003123 -3.716176  0.028162
     spin moment: S , {S} =    0.00000  -0.00000  -0.00000   0.00000
   scf:    4    -1959.551082    -1959.551073    -1959.551073  0.000108 -3.716363  0.013127
     spin moment: S , {S} =    0.00000  -0.00000  -0.00000   0.00000
   scf:    5    -1959.551078    -1959.551076    -1959.551076  0.000075 -3.716180  0.001861
     spin moment: S , {S} =    0.00000  -0.00000  -0.00000   0.00000
   scf:    6    -1959.551076    -1959.551076    -1959.551076  0.000009 -3.716226  0.000707
     spin moment: S , {S} =    0.00000  -0.00000  -0.00000   0.00000
   scf:    7    -1959.551076    -1959.551076    -1959.551076  0.000006 -3.716268  0.000154
     spin moment: S , {S} =    0.00000  -0.00000  -0.00000   0.00000
   scf:    8    -1959.551076    -1959.551076    -1959.551076  0.000002 -3.716276  0.000051
     spin moment: S , {S} =    0.00000  -0.00000  -0.00000   0.00000
   scf:    9    -1959.551076    -1959.551076    -1959.551076  0.000001 -3.716277  0.000021
     spin moment: S , {S} =    0.00000  -0.00000  -0.00000   0.00000
   scf:   10    -1959.551076    -1959.551076    -1959.551076  0.000000 -3.716277  0.000013
     spin moment: S , {S} =    0.00000  -0.00000  -0.00000   0.00000
   scf:   11    -1959.551076    -1959.551076    -1959.551076  0.000000 -3.716275  0.000004
     spin moment: S , {S} =    0.00000  -0.00000  -0.00000   0.00000
   scf:   12    -1959.551076    -1959.551076    -1959.551076  0.000000 -3.716275  0.000002
     spin moment: S , {S} =    0.00000  -0.00000  -0.00000   0.00000
   scf:   13    -1959.551076    -1959.551076    -1959.551076  0.000000 -3.716275  0.000001
     spin moment: S , {S} =    0.00000  -0.00000  -0.00000   0.00000

SCF Convergence by DM+H criterion
max |DM_out - DM_in|         :     0.0000000443
max |H_out - H_in|      (eV) :     0.0000006690
SCF cycle converged after 13 iterations

Using DM_out to compute the final energy and forces
No. of atoms with KB's overlaping orbs in proc 0. Max # of overlaps:      14     134

siesta: E_KS(eV) =            -1959.5511
     spin moment: S , {S} =    0.00000  -0.00000  -0.00000   0.00000

siesta: Atomic forces (eV/Ang):
     1    0.024119    0.014384    0.000000
     2    0.003682    0.054156    0.000000
     3    0.018330   -0.034578    0.000000
     4    0.015433   -0.009480    0.000000
     5    0.000262   -0.088398   -0.000000
     6   -0.037628   -0.059312    0.000000
     7    0.030469    0.068370   -0.000000
     8    0.078960    0.112711    0.000000
     9   -0.008146    0.105914    0.000000
    10   -0.044466    0.072685   -0.000000
    11   -0.105975   -0.118036   -0.000000
    12   -0.052499    0.030317    0.000000
    13   -0.039827   -0.028248    0.000000
    14   -0.002403   -0.019811   -0.000000
    15   -0.122421    0.021564   -0.000000
----------------------------------------
   Tot   -0.242111    0.122238   -0.000000
----------------------------------------
   Max    0.122421
   Res    0.049103    sqrt( Sum f_i^2 / 3N )
----------------------------------------
   Max    0.122421    constrained

Stress tensor Voigt[x,y,z,yz,xz,xy] (kbar):        0.64       -0.57        0.02       -0.00       -0.00        0.95
(Free)E + p*V (eV/cell)    -1959.5985
Target enthalpy (eV/cell)    -1959.5511

                     ====================================
                        Begin CG opt. move =      4
                     ====================================

outcoor: Atomic coordinates (Ang):                          
    2.22581802   -5.20529147    0.00000000   1       1  H
    1.34369355   -4.62680164   -0.00000000   2       2  N
   -0.30126267   -5.35784801    0.00000000   3       3  Si
   -0.40805682   -6.84688095   -0.00000000   1       4  H
   -1.68127956   -4.35821073   -0.00000000   2       5  N
   -1.00346951   -2.69606389    0.00000000   3       6  Si
   -1.33940775   -0.52618756    0.00000000   3       7  Si
   -2.99366452    0.07504229    0.00000000   2       8  N
   -3.34302634    1.05559285    0.00000000   1       9  H
   -3.74874060   -0.67130861   -0.00000000   1      10  H
    0.04718416    0.52819753   -0.00000000   2      11  N
    1.69590484   -0.00547560   -0.00000000   3      12  Si
    2.70066962    1.11987292   -0.00000000   1      13  H
    2.45065320   -1.57815878    0.00000001   2      14  N
    1.20139455   -2.78937815   -0.00000000   3      15  Si

outcell: Unit cell vectors (Ang):
       14.779133    0.000000    0.000000
        0.000000   16.638097    0.000000
        0.000000    0.000000    9.854683

outcell: Cell vector modules (Ang)   :   14.779133   16.638097    9.854683
outcell: Cell angles (23,13,12) (deg):     90.0000     90.0000     90.0000
outcell: Cell volume (Ang**3)        :   2423.2335
<dSpData1D:S at geom step 4
  <sparsity:sparsity for geom step 4
    nrows_g=155 nrows=35 sparsity=.2195 nnzs=5273, refcount: 8>
  <dData1D:(new from dSpData1D) n=5273, refcount: 1>
refcount: 1>
new_DM -- step:     5
Re-using DM from previous geometries...
Number of DMs in history: 1
 DM extrapolation coefficients: 
1   1.00000
New DM after history re-use:
<dSpData2D:SpM extrapolated using coords
  <sparsity:sparsity for geom step 4
    nrows_g=155 nrows=35 sparsity=.2195 nnzs=5273, refcount: 10>
  <dData2D:(temp array for extrapolation) n=5273 m=8, refcount: 1>
refcount: 1>
     spin moment: S , {S} =    0.00000  -0.00000  -0.00000  -0.00000
No. of atoms with KB's overlaping orbs in proc 0. Max # of overlaps:      14     134
New grid distribution:   1
           1       1:   90    1:   48    1:   20
           2       1:   90    1:   48   21:   40
           3       1:   90    1:   48   41:   60
           4       1:   90   49:   96    1:   20
           5       1:   90   49:   96   21:   40
           6       1:   90   49:   96   41:   60

InitMesh: MESH =   180 x   192 x   120 =     4147200
InitMesh: (bp) =    90 x    96 x    60 =      518400
InitMesh: Mesh cutoff (required, used) =   340.000   368.042 Ry
ExtMesh (bp) on 0 =   202 x   152 x   132 =     4052928
New grid distribution:   2
           1       1:   12    1:   76    1:   60
           2      13:   90    1:   76   21:   60
           3       1:   13   77:   96    1:   60
           4      14:   90   77:   96    1:   21
           5      13:   90    1:   76    1:   20
           6      14:   90   77:   96   22:   60
New grid distribution:   3
           1       1:   19    1:   62    1:   60
           2       1:   21   63:   96    1:   60
           3      20:   90    1:   62   25:   60
           4      22:   90   63:   96    1:   26
           5      20:   90    1:   62    1:   24
           6      22:   90   63:   96   27:   60
Setting up quadratic distribution...
ExtMesh (bp) on 0 =   124 x   180 x   172 =     3839040
PhiOnMesh: Number of (b)points on node 0 =                54720
PhiOnMesh: nlist on node 0 =               969754

        iscf     Eharris(eV)        E_KS(eV)     FreeEng(eV)     dDmax    Ef(eV) dHmax(eV)
   scf:    1    -1959.550753    -1959.552384    -1959.552384  0.005131 -3.730076  0.130762
     spin moment: S , {S} =    0.00000  -0.00000  -0.00000   0.00000
   scf:    2    -1959.529667    -1959.545972    -1959.545972  0.006666 -3.766212  0.233936
     spin moment: S , {S} =    0.00000  -0.00000  -0.00000   0.00000
   scf:    3    -1959.554862    -1959.553382    -1959.553382  0.005153 -3.737437  0.045683
     spin moment: S , {S} =    0.00000  -0.00000  -0.00000  -0.00000
   scf:    4    -1959.553433    -1959.553411    -1959.553411  0.000180 -3.737779  0.020946
     spin moment: S , {S} =    0.00000  -0.00000  -0.00000  -0.00000
   scf:    5    -1959.553422    -1959.553417    -1959.553417  0.000120 -3.737506  0.003196
     spin moment: S , {S} =    0.00000  -0.00000  -0.00000  -0.00000
   scf:    6    -1959.553418    -1959.553417    -1959.553417  0.000015 -3.737583  0.001205
     spin moment: S , {S} =    0.00000  -0.00000  -0.00000  -0.00000
   scf:    7    -1959.553418    -1959.553417    -1959.553417  0.000010 -3.737657  0.000260
     spin moment: S , {S} =    0.00000  -0.00000  -0.00000  -0.00000
   scf:    8    -1959.553417    -1959.553417    -1959.553417  0.000003 -3.737669  0.000084
     spin moment: S , {S} =    0.00000  -0.00000  -0.00000  -0.00000
   scf:    9    -1959.553417    -1959.553417    -1959.553417  0.000001 -3.737672  0.000036
     spin moment: S , {S} =    0.00000  -0.00000  -0.00000  -0.00000
   scf:   10    -1959.553417    -1959.553417    -1959.553417  0.000001 -3.737671  0.000020
     spin moment: S , {S} =    0.00000  -0.00000  -0.00000  -0.00000
   scf:   11    -1959.553417    -1959.553417    -1959.553417  0.000001 -3.737669  0.000006
     spin moment: S , {S} =    0.00000  -0.00000  -0.00000  -0.00000
   scf:   12    -1959.553417    -1959.553417    -1959.553417  0.000000 -3.737668  0.000002
     spin moment: S , {S} =    0.00000  -0.00000  -0.00000  -0.00000
   scf:   13    -1959.553417    -1959.553417    -1959.553417  0.000000 -3.737668  0.000001
     spin moment: S , {S} =    0.00000  -0.00000  -0.00000  -0.00000
   scf:   14    -1959.553417    -1959.553417    -1959.553417  0.000000 -3.737668  0.000001
     spin moment: S , {S} =    0.00000  -0.00000  -0.00000  -0.00000

SCF Convergence by DM+H criterion
max |DM_out - DM_in|         :     0.0000000509
max |H_out - H_in|      (eV) :     0.0000008586
SCF cycle converged after 14 iterations

Using DM_out to compute the final energy and forces
No. of atoms with KB's overlaping orbs in proc 0. Max # of overlaps:      14     134

siesta: E_KS(eV) =            -1959.5534
     spin moment: S , {S} =    0.00000  -0.00000  -0.00000  -0.00000

siesta: Atomic forces (eV/Ang):
     1    0.001285    0.035402   -0.000000
     2    0.051820    0.028185    0.000000
     3   -0.032983   -0.053673    0.000000
     4    0.023756   -0.014193    0.000000
     5   -0.021421   -0.058408   -0.000000
     6    0.014534   -0.041279    0.000000
     7    0.101477    0.152999   -0.000000
     8    0.058488   -0.454220    0.000000
     9   -0.089939    0.363176   -0.000000
    10    0.072730    0.286612    0.000000
    11   -0.074740   -0.153896   -0.000000
    12   -0.087144    0.051217    0.000000
    13   -0.062878   -0.038759    0.000000
    14   -0.011211   -0.031304    0.000000
    15   -0.166107    0.028074    0.000000
----------------------------------------
   Tot   -0.222332    0.099935    0.000000
----------------------------------------
   Max    0.454220
   Res    0.111609    sqrt( Sum f_i^2 / 3N )
----------------------------------------
   Max    0.454220    constrained

Stress tensor Voigt[x,y,z,yz,xz,xy] (kbar):        0.77       -0.58        0.02       -0.00       -0.00        1.05
(Free)E + p*V (eV/cell)    -1959.6587
Target enthalpy (eV/cell)    -1959.5534

                     ====================================
                        Begin CG opt. move =      5
                     ====================================

outcoor: Atomic coordinates (Ang):                          
    2.22578260   -5.20556718    0.00000000   1       1  H
    1.34362253   -4.62737581   -0.00000000   2       2  N
   -0.30234049   -5.35756754    0.00000000   3       3  Si
   -0.40811544   -6.84683420   -0.00000000   1       4  H
   -1.68152039   -4.35647298   -0.00000000   2       5  N
   -1.00170036   -2.69512733    0.00000000   3       6  Si
   -1.33780228   -0.52556186    0.00000000   3       7  Si
   -2.99346372    0.07172149    0.00000000   2       8  N
   -3.34338658    1.05365783    0.00000000   1       9  H
   -3.74919257   -0.67226795   -0.00000000   1      10  H
    0.04812348    0.52904938   -0.00000000   2      11  N
    1.69637891   -0.00532983   -0.00000000   3      12  Si
    2.70086749    1.12002616   -0.00000000   1      13  H
    2.45082564   -1.57811538    0.00000001   2      14  N
    1.20214004   -2.78989688   -0.00000000   3      15  Si

outcell: Unit cell vectors (Ang):
       14.779133    0.000000    0.000000
        0.000000   16.638097    0.000000
        0.000000    0.000000    9.854683

outcell: Cell vector modules (Ang)   :   14.779133   16.638097    9.854683
outcell: Cell angles (23,13,12) (deg):     90.0000     90.0000     90.0000
outcell: Cell volume (Ang**3)        :   2423.2335
<dSpData1D:S at geom step 5
  <sparsity:sparsity for geom step 5
    nrows_g=155 nrows=35 sparsity=.2195 nnzs=5273, refcount: 8>
  <dData1D:(new from dSpData1D) n=5273, refcount: 1>
refcount: 1>
new_DM -- step:     6
Re-using DM from previous geometries...
Number of DMs in history: 1
 DM extrapolation coefficients: 
1   1.00000
New DM after history re-use:
<dSpData2D:SpM extrapolated using coords
  <sparsity:sparsity for geom step 5
    nrows_g=155 nrows=35 sparsity=.2195 nnzs=5273, refcount: 10>
  <dData2D:(temp array for extrapolation) n=5273 m=8, refcount: 1>
refcount: 1>
     spin moment: S , {S} =    0.00000   0.00000  -0.00000   0.00000
No. of atoms with KB's overlaping orbs in proc 0. Max # of overlaps:      14     134
New grid distribution:   1
           1       1:   90    1:   48    1:   20
           2       1:   90    1:   48   21:   40
           3       1:   90    1:   48   41:   60
           4       1:   90   49:   96    1:   20
           5       1:   90   49:   96   21:   40
           6       1:   90   49:   96   41:   60

InitMesh: MESH =   180 x   192 x   120 =     4147200
InitMesh: (bp) =    90 x    96 x    60 =      518400
InitMesh: Mesh cutoff (required, used) =   340.000   368.042 Ry
ExtMesh (bp) on 0 =   202 x   152 x   132 =     4052928
New grid distribution:   2
           1       1:   12    1:   76    1:   60
           2      13:   90    1:   76   21:   60
           3       1:   13   77:   96    1:   60
           4      14:   90   77:   96    1:   21
           5      13:   90    1:   76    1:   20
           6      14:   90   77:   96   22:   60
New grid distribution:   3
           1       1:   19    1:   62    1:   60
           2       1:   21   63:   96    1:   60
           3      20:   90    1:   62   25:   60
           4      22:   90   63:   96    1:   26
           5      20:   90    1:   62    1:   24
           6      22:   90   63:   96   27:   60
Setting up quadratic distribution...
ExtMesh (bp) on 0 =   124 x   180 x   172 =     3839040
PhiOnMesh: Number of (b)points on node 0 =                54720
PhiOnMesh: nlist on node 0 =               969800

        iscf     Eharris(eV)        E_KS(eV)     FreeEng(eV)     dDmax    Ef(eV) dHmax(eV)
   scf:    1    -1959.553711    -1959.553525    -1959.553525  0.000981 -3.734786  0.024964
     spin moment: S , {S} =    0.00000  -0.00000  -0.00000  -0.00000
   scf:    2    -1959.552707    -1959.553295    -1959.553295  0.001249 -3.727815  0.044714
     spin moment: S , {S} =    0.00000  -0.00000  -0.00000  -0.00000
   scf:    3    -1959.553616    -1959.553562    -1959.553562  0.000956 -3.733335  0.008768
     spin moment: S , {S} =    0.00000  -0.00000  -0.00000  -0.00000
   scf:    4    -1959.553564    -1959.553563    -1959.553563  0.000034 -3.733272  0.004055
     spin moment: S , {S} =    0.00000  -0.00000  -0.00000  -0.00000
   scf:    5    -1959.553563    -1959.553563    -1959.553563  0.000024 -3.733319  0.000598
     spin moment: S , {S} =    0.00000  -0.00000  -0.00000  -0.00000
   scf:    6    -1959.553563    -1959.553563    -1959.553563  0.000003 -3.733305  0.000231
     spin moment: S , {S} =    0.00000  -0.00000  -0.00000  -0.00000
   scf:    7    -1959.553563    -1959.553563    -1959.553563  0.000002 -3.733292  0.000054
     spin moment: S , {S} =    0.00000  -0.00000  -0.00000  -0.00000
   scf:    8    -1959.553563    -1959.553563    -1959.553563  0.000001 -3.733289  0.000017
     spin moment: S , {S} =    0.00000  -0.00000  -0.00000  -0.00000
   scf:    9    -1959.553563    -1959.553563    -1959.553563  0.000000 -3.733288  0.000007
     spin moment: S , {S} =    0.00000  -0.00000  -0.00000  -0.00000
   scf:   10    -1959.553563    -1959.553563    -1959.553563  0.000000 -3.733288  0.000004
     spin moment: S , {S} =    0.00000  -0.00000  -0.00000  -0.00000
   scf:   11    -1959.553563    -1959.553563    -1959.553563  0.000000 -3.733289  0.000001
     spin moment: S , {S} =    0.00000  -0.00000  -0.00000  -0.00000
   scf:   12    -1959.553563    -1959.553563    -1959.553563  0.000000 -3.733289  0.000001
     spin moment: S , {S} =    0.00000  -0.00000  -0.00000  -0.00000

SCF Convergence by DM+H criterion
max |DM_out - DM_in|         :     0.0000000479
max |H_out - H_in|      (eV) :     0.0000005158
SCF cycle converged after 12 iterations

Using DM_out to compute the final energy and forces
No. of atoms with KB's overlaping orbs in proc 0. Max # of overlaps:      14     134

siesta: E_KS(eV) =            -1959.5536
     spin moment: S , {S} =    0.00000  -0.00000  -0.00000  -0.00000

siesta: Atomic forces (eV/Ang):
     1    0.005665    0.031635   -0.000000
     2    0.042181    0.033115   -0.000000
     3   -0.023046   -0.049948    0.000000
     4    0.021992   -0.013175    0.000000
     5   -0.017556   -0.063933   -0.000000
     6    0.004528   -0.044614    0.000000
     7    0.088176    0.136654   -0.000000
     8    0.061819   -0.345994   -0.000000
     9   -0.073586    0.310049   -0.000000
    10    0.051128    0.245374   -0.000000
    11   -0.081923   -0.148740   -0.000000
    12   -0.080557    0.047195    0.000000
    13   -0.058584   -0.036858    0.000000
    14   -0.009266   -0.028926    0.000000
    15   -0.157838    0.026897    0.000000
----------------------------------------
   Tot   -0.226867    0.098731   -0.000000
----------------------------------------
   Max    0.345994
   Res    0.093956    sqrt( Sum f_i^2 / 3N )
----------------------------------------
   Max    0.345994    constrained

Stress tensor Voigt[x,y,z,yz,xz,xy] (kbar):        0.75       -0.58        0.02       -0.00       -0.00        1.03
(Free)E + p*V (eV/cell)    -1959.6491
Target enthalpy (eV/cell)    -1959.5536

cgvc: Finished line minimization    2.  Mean atomic displacement =    0.0201

                     ====================================
                        Begin CG opt. move =      6
                     ====================================

outcoor: Atomic coordinates (Ang):                          
    2.22616807   -5.20287676    0.00000000   1       1  H
    1.34516284   -4.62258877   -0.00000000   2       2  N
   -0.29547563   -5.36074673    0.00000000   3       3  Si
   -0.40716333   -6.84748489   -0.00000000   1       4  H
   -1.68029534   -4.37005774   -0.00000000   2       5  N
   -1.01379741   -2.70270174    0.00000000   3       6  Si
   -1.34668715   -0.52647799    0.00000000   3       7  Si
   -2.99331046    0.08602605    0.00000000   2       8  N
   -3.34273243    1.07473149    0.00000000   1       9  H
   -3.74480042   -0.65953819   -0.00000000   1      10  H
    0.03960124    0.51946723   -0.00000000   2      11  N
    1.69110151   -0.00516090    0.00000000   3      12  Si
    2.69804334    1.11805092   -0.00000000   1      13  H
    2.44940484   -1.57913507    0.00000001   2      14  N
    1.19306544   -2.78564719   -0.00000000   3      15  Si

outcell: Unit cell vectors (Ang):
       14.779133    0.000000    0.000000
        0.000000   16.638097    0.000000
        0.000000    0.000000    9.854683

outcell: Cell vector modules (Ang)   :   14.779133   16.638097    9.854683
outcell: Cell angles (23,13,12) (deg):     90.0000     90.0000     90.0000
outcell: Cell volume (Ang**3)        :   2423.2335
<dSpData1D:S at geom step 6
  <sparsity:sparsity for geom step 6
    nrows_g=155 nrows=35 sparsity=.2195 nnzs=5273, refcount: 8>
  <dData1D:(new from dSpData1D) n=5273, refcount: 1>
refcount: 1>
new_DM -- step:     7
Re-using DM from previous geometries...
Number of DMs in history: 1
 DM extrapolation coefficients: 
1   1.00000
New DM after history re-use:
<dSpData2D:SpM extrapolated using coords
  <sparsity:sparsity for geom step 6
    nrows_g=155 nrows=35 sparsity=.2195 nnzs=5273, refcount: 10>
  <dData2D:(temp array for extrapolation) n=5273 m=8, refcount: 1>
refcount: 1>
     spin moment: S , {S} =    0.00000  -0.00000  -0.00000  -0.00000
No. of atoms with KB's overlaping orbs in proc 0. Max # of overlaps:      14     134
New grid distribution:   1
           1       1:   90    1:   48    1:   20
           2       1:   90    1:   48   21:   40
           3       1:   90    1:   48   41:   60
           4       1:   90   49:   96    1:   20
           5       1:   90   49:   96   21:   40
           6       1:   90   49:   96   41:   60

InitMesh: MESH =   180 x   192 x   120 =     4147200
InitMesh: (bp) =    90 x    96 x    60 =      518400
InitMesh: Mesh cutoff (required, used) =   340.000   368.042 Ry
ExtMesh (bp) on 0 =   202 x   152 x   132 =     4052928
New grid distribution:   2
           1       1:   12    1:   76    1:   60
           2      13:   90    1:   76   21:   60
           3       1:   13   77:   96    1:   60
           4      14:   90   77:   96    1:   21
           5      13:   90    1:   76    1:   20
           6      14:   90   77:   96   22:   60
New grid distribution:   3
           1       1:   19    1:   62    1:   60
           2       1:   21   63:   96    1:   60
           3      20:   90    1:   62   25:   60
           4      22:   90   63:   96    1:   26
           5      20:   90    1:   62    1:   24
           6      22:   90   63:   96   27:   60
Setting up quadratic distribution...
ExtMesh (bp) on 0 =   124 x   180 x   172 =     3839040
PhiOnMesh: Number of (b)points on node 0 =                54720
PhiOnMesh: nlist on node 0 =               969120

        iscf     Eharris(eV)        E_KS(eV)     FreeEng(eV)     dDmax    Ef(eV) dHmax(eV)
   scf:    1    -1959.553253    -1959.559764    -1959.559764  0.003879 -3.759659  0.082610
     spin moment: S , {S} =    0.00000  -0.00000  -0.00000   0.00000
   scf:    2    -1959.545881    -1959.555886    -1959.555886  0.004152 -3.796531  0.221034
     spin moment: S , {S} =    0.00000  -0.00000  -0.00000   0.00000
   scf:    3    -1959.561412    -1959.560412    -1959.560412  0.003181 -3.769228  0.011599
     spin moment: S , {S} =    0.00000  -0.00000  -0.00000   0.00000
[...]
   -0.24672843   -6.93007797   -0.00000000   1       4  H
   -1.72413651   -4.48356370   -0.00000012   2       5  N
   -1.15995966   -2.76531346    0.00000098   3       6  Si
   -1.47855033   -0.56630472   -0.00000047   3       7  Si
   -3.00341511    0.30844721    0.00000002   2       8  N
   -3.03826506    1.36190814    0.00000000   1       9  H
   -3.94026638   -0.17246786   -0.00000000   1      10  H
   -0.07939666    0.45687271    0.00000010   2      11  N
    1.57087359   -0.02418215    0.00000001   3      12  Si
    2.54373794    1.12475535    0.00000000   1      13  H
    2.32446482   -1.59349775    0.00000007   2      14  N
    1.05499925   -2.78040698   -0.00000015   3      15  Si

outcell: Unit cell vectors (Ang):
       14.779133    0.000000    0.000000
        0.000000   16.638097    0.000000
        0.000000    0.000000    9.854683

outcell: Cell vector modules (Ang)   :   14.779133   16.638097    9.854683
outcell: Cell angles (23,13,12) (deg):     90.0000     90.0000     90.0000
outcell: Cell volume (Ang**3)        :   2423.2335
<dSpData1D:S at geom step 96
  <sparsity:sparsity for geom step 96
    nrows_g=155 nrows=35 sparsity=.2195 nnzs=5273, refcount: 8>
  <dData1D:(new from dSpData1D) n=5273, refcount: 1>
refcount: 1>
new_DM -- step:    97
Re-using DM from previous geometries...
Number of DMs in history: 1
 DM extrapolation coefficients: 
1   1.00000
New DM after history re-use:
<dSpData2D:SpM extrapolated using coords
  <sparsity:sparsity for geom step 96
    nrows_g=155 nrows=35 sparsity=.2195 nnzs=5273, refcount: 10>
  <dData2D:(temp array for extrapolation) n=5273 m=8, refcount: 1>
refcount: 1>
     spin moment: S , {S} =    0.00000  -0.00000  -0.00000   0.00000
No. of atoms with KB's overlaping orbs in proc 0. Max # of overlaps:      14     133
New grid distribution:   1
           1       1:   90    1:   48    1:   20
           2       1:   90    1:   48   21:   40
           3       1:   90    1:   48   41:   60
           4       1:   90   49:   96    1:   20
           5       1:   90   49:   96   21:   40
           6       1:   90   49:   96   41:   60

InitMesh: MESH =   180 x   192 x   120 =     4147200
InitMesh: (bp) =    90 x    96 x    60 =      518400
InitMesh: Mesh cutoff (required, used) =   340.000   368.042 Ry
ExtMesh (bp) on 0 =   202 x   152 x   132 =     4052928
New grid distribution:   2
           1       1:   13    1:   75    1:   60
           2      14:   90    1:   75   21:   60
           3       1:   12   76:   96    1:   60
           4      13:   90   76:   96    1:   21
           5      14:   90    1:   75    1:   20
           6      13:   90   76:   96   22:   60
New grid distribution:   3
           1       1:   19    1:   62    1:   60
           2       1:   21   63:   96    1:   60
           3      20:   90    1:   62   25:   60
           4      22:   90   63:   96    1:   26
           5      20:   90    1:   62    1:   24
           6      22:   90   63:   96   27:   60
Setting up quadratic distribution...
ExtMesh (bp) on 0 =   125 x   179 x   172 =     3848500
PhiOnMesh: Number of (b)points on node 0 =                58500
PhiOnMesh: nlist on node 0 =               997237

        iscf     Eharris(eV)        E_KS(eV)     FreeEng(eV)     dDmax    Ef(eV) dHmax(eV)
   scf:    1    -1959.689175    -1959.689599    -1959.689599  0.000113 -3.737710  0.003408
     spin moment: S , {S} =    0.00000  -0.00000  -0.00000   0.00000
   scf:    2    -1959.689559    -1959.689588    -1959.689588  0.000176 -3.738673  0.009708
     spin moment: S , {S} =    0.00000  -0.00000  -0.00000   0.00000
   scf:    3    -1959.689605    -1959.689601    -1959.689601  0.000140 -3.737900  0.000601
     spin moment: S , {S} =    0.00000  -0.00000  -0.00000   0.00000
   scf:    4    -1959.689601    -1959.689601    -1959.689601  0.000003 -3.737913  0.000329
     spin moment: S , {S} =    0.00000  -0.00000  -0.00000   0.00000
   scf:    5    -1959.689601    -1959.689601    -1959.689601  0.000002 -3.737912  0.000122
     spin moment: S , {S} =    0.00000  -0.00000  -0.00000   0.00000
   scf:    6    -1959.689601    -1959.689601    -1959.689601  0.000001 -3.737916  0.000027
     spin moment: S , {S} =    0.00000  -0.00000  -0.00000   0.00000
   scf:    7    -1959.689601    -1959.689601    -1959.689601  0.000001 -3.737919  0.000006
     spin moment: S , {S} =    0.00000  -0.00000  -0.00000   0.00000
   scf:    8    -1959.689601    -1959.689601    -1959.689601  0.000000 -3.737919  0.000003
     spin moment: S , {S} =    0.00000  -0.00000  -0.00000   0.00000
   scf:    9    -1959.689601    -1959.689601    -1959.689601  0.000000 -3.737919  0.000001
     spin moment: S , {S} =    0.00000  -0.00000  -0.00000   0.00000
   scf:   10    -1959.689601    -1959.689601    -1959.689601  0.000000 -3.737919  0.000001
     spin moment: S , {S} =    0.00000  -0.00000  -0.00000   0.00000

SCF Convergence by DM+H criterion
max |DM_out - DM_in|         :     0.0000000707
max |H_out - H_in|      (eV) :     0.0000005613
SCF cycle converged after 10 iterations

Using DM_out to compute the final energy and forces
No. of atoms with KB's overlaping orbs in proc 0. Max # of overlaps:      14     133

siesta: E_KS(eV) =            -1959.6896
     spin moment: S , {S} =    0.00000  -0.00000  -0.00000   0.00000

siesta: Atomic forces (eV/Ang):
     1   -0.002977   -0.006444   -0.000000
     2   -0.000706   -0.003753   -0.000000
     3    0.000992    0.004206   -0.000000
     4   -0.001001   -0.002946    0.000000
     5    0.001349   -0.000943   -0.000000
     6   -0.001517    0.000465    0.000002
     7   -0.003981    0.001426   -0.000001
     8   -0.000984   -0.003000   -0.000000
     9    0.001676    0.000906    0.000000
    10    0.003612   -0.007207    0.000000
    11    0.003086    0.001315    0.000000
    12   -0.000476   -0.000277    0.000000
    13   -0.003466    0.003337   -0.000000
    14   -0.001676   -0.000997    0.000000
    15    0.002359    0.000496   -0.000000
----------------------------------------
   Tot   -0.003709   -0.013418    0.000000
----------------------------------------
   Max    0.007207
   Res    0.002306    sqrt( Sum f_i^2 / 3N )
----------------------------------------
   Max    0.007207    constrained

Stress tensor Voigt[x,y,z,yz,xz,xy] (kbar):        0.26        0.81        0.02       -0.00        0.00        0.18
(Free)E + p*V (eV/cell)    -1960.2376
Target enthalpy (eV/cell)    -1959.6896

                     ====================================
                        Begin CG opt. move =     97
                     ====================================

outcoor: Atomic coordinates (Ang):                          
    2.21762232   -5.11279452   -0.00000000   1       1  H
    1.29501137   -4.59896583   -0.00000005   2       2  N
   -0.29904047   -5.42682372   -0.00000018   3       3  Si
   -0.24674975   -6.93013012   -0.00000000   1       4  H
   -1.72423401   -4.48368219   -0.00000012   2       5  N
   -1.16006198   -2.76542566    0.00000092   3       6  Si
   -1.47852890   -0.56637991   -0.00000044   3       7  Si
   -3.00339962    0.30830853    0.00000002   2       8  N
   -3.03826294    1.36179510    0.00000000   1       9  H
   -3.94024356   -0.17255215   -0.00000000   1      10  H
   -0.07927414    0.45677789    0.00000009   2      11  N
    1.57094203   -0.02429720    0.00000001   3      12  Si
    2.54369079    1.12474014    0.00000000   1      13  H
    2.32454704   -1.59358938    0.00000007   2      14  N
    1.05498597   -2.78042589   -0.00000014   3      15  Si

outcell: Unit cell vectors (Ang):
       14.779133    0.000000    0.000000
        0.000000   16.638097    0.000000
        0.000000    0.000000    9.854683

outcell: Cell vector modules (Ang)   :   14.779133   16.638097    9.854683
outcell: Cell angles (23,13,12) (deg):     90.0000     90.0000     90.0000
outcell: Cell volume (Ang**3)        :   2423.2335
<dSpData1D:S at geom step 97
  <sparsity:sparsity for geom step 97
    nrows_g=155 nrows=35 sparsity=.2195 nnzs=5273, refcount: 8>
  <dData1D:(new from dSpData1D) n=5273, refcount: 1>
refcount: 1>
new_DM -- step:    98
Re-using DM from previous geometries...
Number of DMs in history: 1
 DM extrapolation coefficients: 
1   1.00000
New DM after history re-use:
<dSpData2D:SpM extrapolated using coords
  <sparsity:sparsity for geom step 97
    nrows_g=155 nrows=35 sparsity=.2195 nnzs=5273, refcount: 10>
  <dData2D:(temp array for extrapolation) n=5273 m=8, refcount: 1>
refcount: 1>
     spin moment: S , {S} =    0.00000  -0.00000  -0.00000   0.00000
No. of atoms with KB's overlaping orbs in proc 0. Max # of overlaps:      14     133
New grid distribution:   1
           1       1:   90    1:   48    1:   20
           2       1:   90    1:   48   21:   40
           3       1:   90    1:   48   41:   60
           4       1:   90   49:   96    1:   20
           5       1:   90   49:   96   21:   40
           6       1:   90   49:   96   41:   60

InitMesh: MESH =   180 x   192 x   120 =     4147200
InitMesh: (bp) =    90 x    96 x    60 =      518400
InitMesh: Mesh cutoff (required, used) =   340.000   368.042 Ry
ExtMesh (bp) on 0 =   202 x   152 x   132 =     4052928
New grid distribution:   2
           1       1:   13    1:   75    1:   60
           2      14:   90    1:   75   21:   60
           3       1:   12   76:   96    1:   60
           4      13:   90   76:   96    1:   21
           5      14:   90    1:   75    1:   20
           6      13:   90   76:   96   22:   60
New grid distribution:   3
           1       1:   19    1:   62    1:   60
           2       1:   21   63:   96    1:   60
           3      20:   90    1:   62   25:   60
           4      22:   90   63:   96    1:   26
           5      20:   90    1:   62    1:   24
           6      22:   90   63:   96   27:   60
Setting up quadratic distribution...
ExtMesh (bp) on 0 =   125 x   179 x   172 =     3848500
PhiOnMesh: Number of (b)points on node 0 =                58500
PhiOnMesh: nlist on node 0 =               997233

        iscf     Eharris(eV)        E_KS(eV)     FreeEng(eV)     dDmax    Ef(eV) dHmax(eV)
   scf:    1    -1959.689752    -1959.689602    -1959.689602  0.000040 -3.737806  0.001215
     spin moment: S , {S} =    0.00000  -0.00000  -0.00000   0.00000
   scf:    2    -1959.689597    -1959.689601    -1959.689601  0.000063 -3.737462  0.003462
     spin moment: S , {S} =    0.00000  -0.00000  -0.00000   0.00000
   scf:    3    -1959.689603    -1959.689602    -1959.689602  0.000050 -3.737738  0.000214
     spin moment: S , {S} =    0.00000  -0.00000  -0.00000   0.00000
   scf:    4    -1959.689602    -1959.689602    -1959.689602  0.000001 -3.737733  0.000117
     spin moment: S , {S} =    0.00000  -0.00000  -0.00000   0.00000
   scf:    5    -1959.689602    -1959.689602    -1959.689602  0.000001 -3.737733  0.000044
     spin moment: S , {S} =    0.00000  -0.00000  -0.00000   0.00000
   scf:    6    -1959.689602    -1959.689602    -1959.689602  0.000000 -3.737732  0.000009
     spin moment: S , {S} =    0.00000  -0.00000  -0.00000   0.00000
   scf:    7    -1959.689602    -1959.689602    -1959.689602  0.000000 -3.737731  0.000002
     spin moment: S , {S} =    0.00000  -0.00000  -0.00000   0.00000
   scf:    8    -1959.689602    -1959.689602    -1959.689602  0.000000 -3.737731  0.000001
     spin moment: S , {S} =    0.00000  -0.00000  -0.00000   0.00000
   scf:    9    -1959.689602    -1959.689602    -1959.689602  0.000000 -3.737731  0.000001
     spin moment: S , {S} =    0.00000  -0.00000  -0.00000   0.00000

SCF Convergence by DM+H criterion
max |DM_out - DM_in|         :     0.0000000269
max |H_out - H_in|      (eV) :     0.0000005207
SCF cycle converged after 9 iterations

Using DM_out to compute the final energy and forces
No. of atoms with KB's overlaping orbs in proc 0. Max # of overlaps:      14     133

siesta: E_KS(eV) =            -1959.6896
     spin moment: S , {S} =    0.00000  -0.00000  -0.00000   0.00000

siesta: Atomic forces (eV/Ang):
     1   -0.001110   -0.003227   -0.000000
     2    0.000438   -0.002676   -0.000000
     3    0.001772    0.002862   -0.000000
     4    0.000235   -0.000651    0.000000
     5    0.001282   -0.000134   -0.000000
     6   -0.000323    0.001159    0.000002
     7   -0.002423    0.001200   -0.000001
     8   -0.000537   -0.000238    0.000000
     9    0.001728   -0.000443    0.000000
    10    0.000752   -0.002398    0.000000
    11   -0.000033    0.000914    0.000000
    12    0.000187    0.000300    0.000000
    13   -0.001066    0.003344   -0.000000
    14   -0.001784   -0.001654    0.000000
    15    0.001429   -0.000442   -0.000000
----------------------------------------
   Tot    0.000546   -0.002084    0.000000
----------------------------------------
   Max    0.003344
   Res    0.001269    sqrt( Sum f_i^2 / 3N )
----------------------------------------
   Max    0.003344    constrained

Stress tensor Voigt[x,y,z,yz,xz,xy] (kbar):        0.26        0.81        0.02        0.00       -0.00        0.18
(Free)E + p*V (eV/cell)    -1960.2386
Target enthalpy (eV/cell)    -1959.6896

outcoor: Relaxed atomic coordinates (Ang):                  
    2.21762232   -5.11279452   -0.00000000   1       1  H
    1.29501137   -4.59896583   -0.00000005   2       2  N
   -0.29904047   -5.42682372   -0.00000018   3       3  Si
   -0.24674975   -6.93013012   -0.00000000   1       4  H
   -1.72423401   -4.48368219   -0.00000012   2       5  N
   -1.16006198   -2.76542566    0.00000092   3       6  Si
   -1.47852890   -0.56637991   -0.00000044   3       7  Si
   -3.00339962    0.30830853    0.00000002   2       8  N
   -3.03826294    1.36179510    0.00000000   1       9  H
   -3.94024356   -0.17255215   -0.00000000   1      10  H
   -0.07927414    0.45677789    0.00000009   2      11  N
    1.57094203   -0.02429720    0.00000001   3      12  Si
    2.54369079    1.12474014    0.00000000   1      13  H
    2.32454704   -1.59358938    0.00000007   2      14  N
    1.05498597   -2.78042589   -0.00000014   3      15  Si

siesta: Eigenvalues (eV):
ik =     1
  -21.2746  -21.2746  -21.1472  -21.1472  -19.7639  -19.7639  -19.4882  -19.4882  -18.9744  -18.9744
  -13.9345  -13.9345  -13.1442  -13.1442  -12.8180  -12.8180  -12.3983  -12.3983  -11.9049  -11.9049
  -11.2535  -11.2535  -10.4971  -10.4971   -9.4666   -9.4666   -9.1308   -9.1308   -8.5478   -8.5478
   -8.4075   -8.4075   -8.2314   -8.2314   -7.6888   -7.6888   -7.6434   -7.6434   -7.0915   -7.0915
   -6.6659   -6.6659   -6.4251   -6.4251   -6.1016   -6.1016   -5.8787   -5.8787   -4.5489   -4.5489
   -2.4913   -2.4913   -2.3792   -2.3792   -2.0201   -2.0201   -1.8942   -1.8942   -1.6747   -1.6747
   -0.9396   -0.9396   -0.5542   -0.5542   -0.4955   -0.4955    0.2326    0.2326    0.3060    0.3060
    1.0050    1.0050    1.0322    1.0322    1.6055    1.6055    1.8735    1.8735    2.1865    2.1865
    2.5049    2.5049    2.6030    2.6030    2.7952    2.7952    2.8408    2.8408    3.5180    3.5180
    3.7840    3.7840    4.0470    4.0470    4.3819    4.3819    4.4105    4.4105    4.7973    4.7973
    4.9309    4.9309    5.5515    5.5515    5.6059    5.6059    5.8223    5.8223    5.9918    5.9918
    6.3022    6.3022    6.8295    6.8295    6.9094    6.9094    7.2311    7.2311    7.4275    7.4275
    7.6875    7.6875    8.0147    8.0147    8.0342    8.0342    8.6149    8.6149    8.6533    8.6533
    9.0717    9.0717    9.3941    9.3941    9.5951    9.5951    9.6161    9.6161   10.1287   10.1287
   10.6202   10.6202   11.0700   11.0700   11.2748   11.2748   11.4470   11.4470   12.1161   12.1161
   12.4440   12.4440   12.7190   12.7190   12.9962   12.9962   13.6004   13.6004   14.2109   14.2109
   14.4649   14.4649   14.8059   14.8059   15.9473   15.9473   16.5241   16.5241   17.0331   17.0331
   17.5590   17.5590   18.2173   18.2173   18.4111   18.4111   18.4812   18.4812   19.9691   19.9691
   20.7749   20.7749   20.8621   20.8621   21.9595   21.9595   22.5432   22.5432   22.8409   22.8409
   24.3697   24.3697   25.3136   25.3136   25.7905   25.7905   26.3289   26.3289   28.1906   28.1906
   29.5816   29.5816   30.3075   30.3075   30.5835   30.5835   30.6797   30.6797   31.0455   31.0455
   31.3540   31.3540   32.0582   32.0582   32.0675   32.0675   33.3600   33.3600   34.5746   34.5746
   35.7541   35.7541   36.9723   36.9723   37.3239   37.3239   37.3621   37.3621   38.2334   38.2334
   40.1633   40.1633   40.5162   40.5162   41.1327   41.1327   41.3354   41.3354   41.4149   41.4149
   42.9776   42.9776   43.6778   43.6778   44.2223   44.2223   44.4722   44.4722   44.9665   44.9665
   45.0589   45.0589   46.1543   46.1543   46.4372   46.4372   46.8967   46.8967   48.5459   48.5459
   50.0896   50.0896   50.2917   50.2917   51.5255   51.5255   53.7487   53.7487   54.6211   54.6211
   56.0004   56.0004   56.5719   56.5719   57.2043   57.2043   59.3896   59.3896   59.8218   59.8218
   60.7518   60.7518   61.2687   61.2687   61.8720   61.8720   65.4695   65.4695   66.8601   66.8601
   68.4665   68.4665   71.0335   71.0335   78.2310   78.2310   92.7301   92.7301   95.2041   95.2041
  100.1554  100.1554  102.5691  102.5691  112.9309  112.9309  122.9762  122.9762  140.0334  140.0334
siesta: Fermi energy =      -3.737731 eV

siesta: Program's energy decomposition (eV):
siesta: Ebs     =      -564.853427
siesta: Eions   =      1645.679058
siesta: Ena     =       215.178036
siesta: Ekin    =      1308.075045
siesta: Enl     =     -1324.900305
siesta: Eso     =        -0.002258
siesta: Edftu   =         0.000000
siesta: DEna    =        29.217715
siesta: DUscf   =         7.180040
siesta: DUext   =         0.000000
siesta: Exc     =      -548.758817
siesta: eta*DQ  =         0.000000
siesta: Emadel  =         0.000000
siesta: Emeta   =         0.000000
siesta: Emolmec =         0.000000
siesta: Ekinion =         0.000000
siesta: Eharris =     -1959.689602
siesta: Etot    =     -1959.689602
siesta: FreeEng =     -1959.689602

siesta: Final energy (eV):
siesta:  Band Struct. =    -564.853427
siesta:       Kinetic =    1308.075045
siesta:       Hartree =    3297.617749
siesta:       Edftu   =       0.000000
siesta:       Eso     =      -0.002258
siesta:    Ext. field =       0.000000
siesta:   Exch.-corr. =    -548.758817
siesta:  Ion-electron =   -7755.732684
siesta:       Ion-ion =    1739.111364
siesta:       Ekinion =       0.000000
siesta:         Total =   -1959.689602
siesta:         Fermi =      -3.737731

siesta: Stress tensor (static) (eV/Ang**3):
siesta:     0.000161    0.000113   -0.000000
siesta:     0.000113    0.000508    0.000000
siesta:    -0.000000    0.000000    0.000011

siesta: Cell volume =       2423.233521 Ang**3

siesta: Pressure (static):
siesta:                Solid            Molecule  Units
siesta:          -0.00000247         -0.00000248  Ry/Bohr**3
siesta:          -0.00022656         -0.00022735  eV/Ang**3
siesta:          -0.36299840         -0.36425295  kBar
(Free)E+ p_basis*V_orbitals  =       -1949.007732
(Free)Eharris+ p_basis*V_orbitals  =       -1949.007732
     spin moment: S , {S} =    0.00000  -0.00000  -0.00000   0.00000

siesta: Electric dipole (a.u.)  =   -0.399773   -0.606363   -0.000000
siesta: Electric dipole (Debye) =   -1.016121   -1.541221   -0.000001

cite: Please see "Adenine.bib" for an exhaustive BiBTeX file.
cite: Please clearly indicate Siesta version in published work: v4.1.5-1-g384057250
cite: This calculation has made use of the following articles
cite: which are encouraged to be cited in a published work.
        Primary SIESTA paper
          DOI: www.doi.org/10.1088/0953-8984/14/11/302
        Spin-orbit coupling (on-site approximation)
          DOI: www.doi.org/10.1088/0953-8984/19/19/489001


WARNING: alloc-realloc-dealloc name mismatch
         Name: atomlist isa
         Size:               -60. Bytes
         Node:     0
         Subsequent mismatches will not be reported
>> End of run:  14-OCT-2023  15:46:58
Job completed
