Siesta Version  : v4.1.5-1-g384057250
Architecture    : gcc
Compiler version: GNU Fortran (Ubuntu 11.3.0-1ubuntu1~22.04) 11.3.0
Compiler flags  : mpifort -O2 -fPIC -ftree-vectorize -fallow-argument-mismatch
PP flags        : -DFC_HAVE_ABORT -DMPI -DSIESTA__FLOOK -DSIESTA__METIS -DSIESTA__MUMPS -DCDF -DNCDF -DNCDF_4 -DNCDF_PARALLEL -DSIESTA__MRRR -DSIESTA__ELPA
Libraries       : libncdf.a libfdict.a  -lflookall -ldl -lnetcdff -lnetcdf -lhdf5_hl -lhdf5 -lhdf5_fortran -lz -lscalapack-openmpi -lopenblas -lmetis -lzmumps -lcmumps -ldmumps -lmumps_common -lpord -lsmumps -lesmumps -lscotch -lscotcherr -fopenmp -lelpa
PARALLEL version
NetCDF support
NetCDF-4 support
NetCDF-4 MPI-IO support
METIS ordering support
Lua support

* Running on 4 nodes in parallel
>> Start of run:  28-JUN-2023  20:41:17

                           ***********************       
                           *  WELCOME TO SIESTA  *       
                           ***********************       

reinit: Reading from standard input
reinit: Dumped input in INPUT_TMP.35393
************************** Dump of input data file ****************************
SystemLabel      GC
NumberOfAtoms    29
NumberOfSpecies  4
%block ChemicalSpeciesLabel
    1    8  O
    2    7  N
    3   14  Si
    4    1  H
%endblock ChemicalSpeciesLabel
# Single point calculation
MD.TypeOfRun                CG
MD.Steps                    0
SCF.MustConverge            F # In case it does not. There can be 2 very close atoms
AtomicCoordinatesFormat NotScaledCartesianAng
%block AtomicCoordinatesAndAtomicSpecies
1.043624880    3.939228610    0.000000000       1
-3.040641290   1.071078170    0.000000000       2
2.054601450    1.213582070    0.000000000       2
0.999014100    -1.732643800   0.000000000       2
-2.132351640   -1.812968220   0.000000000       2
3.860190550    -1.112298180   0.000000000       2
-1.236183220   1.152964460    0.000000000       3
-0.532924260   -0.939006270   0.000000000       3
0.635660470    2.374516770    0.000000000       3
2.245170240    -0.549967100   0.000000000       3
-3.449816660   -0.583665030   0.000000000       3
2.963714090    1.790992630    0.000000000       4
-4.845591350   -1.123549660   0.000000000       4
4.007020910    -2.152308560   0.000000000       4
4.772194380    -0.502318160   0.000000000       4
-2.265399090   -2.864605110   0.000000000       4
7.857276329    6.894562438    0.000000000       3
9.762160299    8.101201378    0.000000000       3
9.266406159    4.128227468    0.000000000       3
11.343876449   6.597444628    0.000000000       3
7.916898999    5.177134868    0.000000000       2
6.318141269    7.648239748    0.000000000       2
10.918701419   4.858064688    0.000000000       2
9.953505099    9.593355128    0.000000000       4
12.828244429   6.816175448    0.000000000       4
6.206795989    8.697434858    0.000000000       4
5.385583559    7.023325568    0.000000000       4
9.256179329    2.520116348    0.000000000       1
11.694127299   4.131373128    0.000000000       4
%endblock AtomicCoordinatesAndAtomicSpecies
%include ../../../Defaults.fdf
************************** End of input data file *****************************

reinit: -----------------------------------------------------------------------
reinit: System Name: 
reinit: -----------------------------------------------------------------------
reinit: System Label: GC
reinit: -----------------------------------------------------------------------

initatom: Reading input for the pseudopotentials and atomic orbitals ----------
Species number:   1 Atomic number:    8 Label: O
Species number:   2 Atomic number:    7 Label: N
Species number:   3 Atomic number:   14 Label: Si
Species number:   4 Atomic number:    1 Label: H

Ground state valence configuration:   2s02  2p04
Reading pseudopotential information in formatted form from O.psf

Pseudopotential generated from a relativistic atomic calculation

Valence configuration for pseudopotential generation:
2s( 2.00) rc: 0.45
2p( 4.00) rc: 0.92
3d( 0.00) rc: 2.24
4f( 0.00) rc: 0.25
Ground state valence configuration:   2s02  2p03
Reading pseudopotential information in formatted form from N.psf

Pseudopotential generated from a relativistic atomic calculation

Valence configuration for pseudopotential generation:
2s( 2.00) rc: 0.94
2p( 3.00) rc: 0.59
3d( 0.00) rc: 3.46
4f( 0.00) rc: 2.47
Ground state valence configuration:   3s02  3p02
Reading pseudopotential information in formatted form from Si.psf

Pseudopotential generated from a relativistic atomic calculation

Valence configuration for pseudopotential generation:
3s( 2.00) rc: 1.67
3p( 2.00) rc: 2.04
3d( 0.00) rc: 2.89
4f( 0.00) rc: 2.49
Ground state valence configuration:   1s01
Reading pseudopotential information in formatted form from H.psf

Pseudopotential generated from a relativistic atomic calculation

Valence configuration for pseudopotential generation:
1s( 1.00) rc: 0.01
2p( 0.00) rc: 0.60
3d( 0.00) rc: 1.99
4f( 0.00) rc: 2.49
For O, standard SIESTA heuristics set lmxkb to 3
 (one more than the basis l, including polarization orbitals).
Use PS.lmax or PS.KBprojectors blocks to override.
For N, standard SIESTA heuristics set lmxkb to 3
 (one more than the basis l, including polarization orbitals).
Use PS.lmax or PS.KBprojectors blocks to override.
For Si, standard SIESTA heuristics set lmxkb to 3
 (one more than the basis l, including polarization orbitals).
Use PS.lmax or PS.KBprojectors blocks to override.
For H, standard SIESTA heuristics set lmxkb to 2
 (one more than the basis l, including polarization orbitals).
Use PS.lmax or PS.KBprojectors blocks to override.

<basis_specs>
===============================================================================
O                    Z=   8    Mass=  16.000        Charge= 0.17977+309
Lmxo=1 Lmxkb= 3    BasisType=split      Semic=F
L=0  Nsemic=0  Cnfigmx=2
          i=1  nzeta=2  polorb=0  (2s)
            splnorm:   0.28000    
               vcte:    0.0000    
               rinn:    0.0000    
               qcoe:    0.0000    
               qyuk:    0.0000    
               qwid:   0.10000E-01
                rcs:    0.0000      0.0000    
            lambdas:    1.0000      1.0000    
L=1  Nsemic=0  Cnfigmx=2
          i=1  nzeta=2  polorb=1  (2p)
            splnorm:   0.28000    
               vcte:    0.0000    
               rinn:    0.0000    
               qcoe:    0.0000    
               qyuk:    0.0000    
               qwid:   0.10000E-01
                rcs:    0.0000      0.0000    
            lambdas:    1.0000      1.0000    
-------------------------------------------------------------------------------
L=0  Nkbl=1  erefs: 0.17977+309
L=1  Nkbl=1  erefs: 0.17977+309
L=2  Nkbl=1  erefs: 0.17977+309
L=3  Nkbl=1  erefs: 0.17977+309
===============================================================================
</basis_specs>

atom: Called for O                     (Z =   8)

read_vps: Pseudopotential generation method:
read_vps: ATM4.2.7  Troullier-Martins                       
Valence charge for ps generation:    6.00000

xc_check: Exchange-correlation functional:
xc_check: GGA Perdew, Burke & Ernzerhof 1996
V l=0 = -2*Zval/r beyond r=  1.1000
V l=1 = -2*Zval/r beyond r=  1.1000
V l=2 = -2*Zval/r beyond r=  2.2154
V l=3 = -2*Zval/r beyond r=  1.1000
All V_l potentials equal beyond r=  2.2154
This should be close to max(r_c) in ps generation
All pots = -2*Zval/r beyond r=  2.2154

VLOCAL1: 99.0% of the norm of Vloc inside      8.845 Ry
VLOCAL1: 99.9% of the norm of Vloc inside     20.157 Ry
atom: Maximum radius for 4*pi*r*r*local-pseudopot. charge    2.67231
atom: Maximum radius for r*vlocal+2*Zval:    2.32897
GHOST: No ghost state for L =  0
GHOST: No ghost state for L =  1
GHOST: No ghost state for L =  2
GHOST: No ghost state for L =  3

KBgen: Kleinman-Bylander projectors: 
   l= 0   rc=  2.243238   el= -1.759686   Ekb=**********   kbcos= -0.171774
   l= 1   rc=  2.328968   el= -0.663873   Ekb=-14.506792   kbcos= -0.519897
   l= 2   rc=  2.573941   el=  0.002031   Ekb= -1.137373   kbcos= -0.019581
   l= 3   rc=  2.606321   el=  0.003153   Ekb= -1.013546   kbcos= -0.003122

KBgen: Total number of Kleinman-Bylander projectors:   16
atom: -------------------------------------------------------------------------

atom: SANKEY-TYPE ORBITALS:
atom: Selected multiple-zeta basis: split     

SPLIT: Orbitals with angular momentum L= 0

SPLIT: Basis orbitals for state 2s

SPLIT: PAO cut-off radius determined from an
SPLIT: energy shift=  0.002000 Ry

   izeta = 1
                 lambda =    1.000000
                     rc =    4.243912
                 energy =   -1.758270
                kinetic =    3.286084
    potential(screened) =   -5.044353
       potential(ionic) =  -12.921184

   izeta = 2
                 rmatch =    2.187845
              splitnorm =    0.280000
                 energy =   -0.885018
                kinetic =    8.134434
    potential(screened) =   -9.019452
       potential(ionic) =  -17.710645

SPLIT: Orbitals with angular momentum L= 1

SPLIT: Basis orbitals for state 2p

SPLIT: PAO cut-off radius determined from an
SPLIT: energy shift=  0.002000 Ry

   izeta = 1
                 lambda =    1.000000
                     rc =    5.314825
                 energy =   -0.661986
                kinetic =    4.917472
    potential(screened) =   -5.579458
       potential(ionic) =  -13.236259

   izeta = 2
                 rmatch =    2.160663
              splitnorm =    0.280000
                 energy =   -0.068760
                kinetic =    9.183374
    potential(screened) =   -9.252135
       potential(ionic) =  -18.274251

POLgen: Perturbative polarization orbital with L=  2

POLgen: Polarization orbital for state 2p

   izeta = 1
                     rc =    5.314825
                 energy =    1.970580
                kinetic =    3.886128
    potential(screened) =   -1.915547
       potential(ionic) =   -7.749584
atom: Total number of Sankey-type orbitals: 13

atm_pop: Valence configuration (for local Pseudopot. screening):
 2s( 2.00)                                                            
 2p( 4.00)                                                            
Vna: chval, zval:    6.00000   6.00000

Vna:  Cut-off radius for the neutral-atom potential:   5.314825

atom: _________________________________________________________________________

<basis_specs>
===============================================================================
N                    Z=   7    Mass=  14.010        Charge= 0.17977+309
Lmxo=1 Lmxkb= 3    BasisType=split      Semic=F
L=0  Nsemic=0  Cnfigmx=2
          i=1  nzeta=2  polorb=0  (2s)
            splnorm:   0.28000    
               vcte:    0.0000    
               rinn:    0.0000    
               qcoe:    0.0000    
               qyuk:    0.0000    
               qwid:   0.10000E-01
                rcs:    0.0000      0.0000    
            lambdas:    1.0000      1.0000    
L=1  Nsemic=0  Cnfigmx=2
          i=1  nzeta=2  polorb=1  (2p)
            splnorm:   0.28000    
               vcte:    0.0000    
               rinn:    0.0000    
               qcoe:    0.0000    
               qyuk:    0.0000    
               qwid:   0.10000E-01
                rcs:    0.0000      0.0000    
            lambdas:    1.0000      1.0000    
-------------------------------------------------------------------------------
L=0  Nkbl=1  erefs: 0.17977+309
L=1  Nkbl=1  erefs: 0.17977+309
L=2  Nkbl=1  erefs: 0.17977+309
L=3  Nkbl=1  erefs: 0.17977+309
===============================================================================
</basis_specs>

atom: Called for N                     (Z =   7)

read_vps: Pseudopotential generation method:
read_vps: ATM4.2.7  Troullier-Martins                       
Valence charge for ps generation:    5.00000

xc_check: Exchange-correlation functional:
xc_check: GGA Perdew, Burke & Ernzerhof 1996
V l=0 = -2*Zval/r beyond r=  1.2889
V l=1 = -2*Zval/r beyond r=  1.2889
V l=2 = -2*Zval/r beyond r=  3.4178
V l=3 = -2*Zval/r beyond r=  2.4084
All V_l potentials equal beyond r=  3.3753
This should be close to max(r_c) in ps generation
All pots = -2*Zval/r beyond r=  3.4178

VLOCAL1: 99.0% of the norm of Vloc inside      3.810 Ry
VLOCAL1: 99.9% of the norm of Vloc inside      8.683 Ry
atom: Maximum radius for 4*pi*r*r*local-pseudopot. charge    4.02088
atom: Maximum radius for r*vlocal+2*Zval:    3.54838
GHOST: No ghost state for L =  0
GHOST: No ghost state for L =  1
GHOST: No ghost state for L =  2
GHOST: No ghost state for L =  3

KBgen: Kleinman-Bylander projectors: 
   l= 0   rc=  3.417763   el= -1.365098   Ekb= -4.433130   kbcos= -0.707855
   l= 1   rc=  3.375302   el= -0.521201   Ekb=-13.264039   kbcos= -0.535594
   l= 2   rc=  3.872880   el=  0.001991   Ekb= -0.641094   kbcos= -0.062456
   l= 3   rc=  3.970931   el=  0.003093   Ekb= -0.474517   kbcos= -0.018236

KBgen: Total number of Kleinman-Bylander projectors:   16
atom: -------------------------------------------------------------------------

atom: SANKEY-TYPE ORBITALS:
atom: Selected multiple-zeta basis: split     

SPLIT: Orbitals with angular momentum L= 0

SPLIT: Basis orbitals for state 2s

SPLIT: PAO cut-off radius determined from an
SPLIT: energy shift=  0.002000 Ry

   izeta = 1
                 lambda =    1.000000
                     rc =    4.730425
                 energy =   -1.363399
                kinetic =    1.245246
    potential(screened) =   -2.608645
       potential(ionic) =   -8.121105

   izeta = 2
                 rmatch =    2.531849
              splitnorm =    0.280000
                 energy =   -0.959908
                kinetic =    2.409435
    potential(screened) =   -3.369343
       potential(ionic) =   -9.427975

SPLIT: Orbitals with angular momentum L= 1

SPLIT: Basis orbitals for state 2p

SPLIT: PAO cut-off radius determined from an
SPLIT: energy shift=  0.002000 Ry

   izeta = 1
                 lambda =    1.000000
                     rc =    5.924108
                 energy =   -0.519262
                kinetic =    3.672940
    potential(screened) =   -4.192202
       potential(ionic) =   -9.518354

   izeta = 2
                 rmatch =    2.531849
              splitnorm =    0.280000
                 energy =   -0.104258
                kinetic =    6.807538
    potential(screened) =   -6.911796
       potential(ionic) =  -13.149920

POLgen: Perturbative polarization orbital with L=  2

POLgen: Polarization orbital for state 2p

   izeta = 1
                     rc =    5.924108
                 energy =    1.427508
                kinetic =    2.872379
    potential(screened) =   -1.444871
       potential(ionic) =   -5.563644
atom: Total number of Sankey-type orbitals: 13

atm_pop: Valence configuration (for local Pseudopot. screening):
 2s( 2.00)                                                            
 2p( 3.00)                                                            
Vna: chval, zval:    5.00000   5.00000

Vna:  Cut-off radius for the neutral-atom potential:   5.924108

atom: _________________________________________________________________________

<basis_specs>
===============================================================================
Si                   Z=  14    Mass=  28.090        Charge= 0.17977+309
Lmxo=1 Lmxkb= 3    BasisType=split      Semic=F
L=0  Nsemic=0  Cnfigmx=3
          i=1  nzeta=2  polorb=0  (3s)
            splnorm:   0.28000    
               vcte:    0.0000    
               rinn:    0.0000    
               qcoe:    0.0000    
               qyuk:    0.0000    
               qwid:   0.10000E-01
                rcs:    0.0000      0.0000    
            lambdas:    1.0000      1.0000    
L=1  Nsemic=0  Cnfigmx=3
          i=1  nzeta=2  polorb=1  (3p)
            splnorm:   0.28000    
               vcte:    0.0000    
               rinn:    0.0000    
               qcoe:    0.0000    
               qyuk:    0.0000    
               qwid:   0.10000E-01
                rcs:    0.0000      0.0000    
            lambdas:    1.0000      1.0000    
-------------------------------------------------------------------------------
L=0  Nkbl=1  erefs: 0.17977+309
L=1  Nkbl=1  erefs: 0.17977+309
L=2  Nkbl=1  erefs: 0.17977+309
L=3  Nkbl=1  erefs: 0.17977+309
===============================================================================
</basis_specs>

atom: Called for Si                    (Z =  14)

read_vps: Pseudopotential generation method:
read_vps: ATM4.2.7  Troullier-Martins                       
Valence charge for ps generation:    4.00000

xc_check: Exchange-correlation functional:
xc_check: GGA Perdew, Burke & Ernzerhof 1996
V l=0 = -2*Zval/r beyond r=  2.7826
V l=1 = -2*Zval/r beyond r=  2.7826
V l=2 = -2*Zval/r beyond r=  2.9253
V l=3 = -2*Zval/r beyond r=  2.7826
All V_l potentials equal beyond r=  2.8530
This should be close to max(r_c) in ps generation
All pots = -2*Zval/r beyond r=  2.9253

VLOCAL1: 99.0% of the norm of Vloc inside      5.333 Ry
VLOCAL1: 99.9% of the norm of Vloc inside     12.154 Ry
atom: Maximum radius for 4*pi*r*r*local-pseudopot. charge    3.39869
atom: Maximum radius for r*vlocal+2*Zval:    2.96205
GHOST: No ghost state for L =  0
GHOST: No ghost state for L =  1
GHOST: No ghost state for L =  2
GHOST: No ghost state for L =  3

KBgen: Kleinman-Bylander projectors: 
   l= 0   rc=  3.075247   el= -0.794092   Ekb=  5.879390   kbcos=  0.167461
   l= 1   rc=  3.153101   el= -0.300068   Ekb=  2.642817   kbcos=  0.058301
   l= 2   rc=  3.273594   el=  0.001958   Ekb= -1.185135   kbcos= -0.104411
   l= 3   rc=  3.232927   el=  0.003046   Ekb= -0.497174   kbcos= -0.015889

KBgen: Total number of Kleinman-Bylander projectors:   16
atom: -------------------------------------------------------------------------

atom: SANKEY-TYPE ORBITALS:
atom: Selected multiple-zeta basis: split     

SPLIT: Orbitals with angular momentum L= 0

SPLIT: Basis orbitals for state 3s

SPLIT: PAO cut-off radius determined from an
SPLIT: energy shift=  0.002000 Ry

   izeta = 1
                 lambda =    1.000000
                     rc =    6.429618
                 energy =   -0.792283
                kinetic =    0.525293
    potential(screened) =   -1.317576
       potential(ionic) =   -3.744923

   izeta = 2
                 rmatch =    3.998416
              splitnorm =    0.280000
                 energy =   -0.583081
                kinetic =    1.069570
    potential(screened) =   -1.652651
       potential(ionic) =   -4.235185

SPLIT: Orbitals with angular momentum L= 1

SPLIT: Basis orbitals for state 3p

SPLIT: PAO cut-off radius determined from an
SPLIT: energy shift=  0.002000 Ry

   izeta = 1
                 lambda =    1.000000
                     rc =    8.464845
                 energy =   -0.298236
                kinetic =    0.785360
    potential(screened) =   -1.083596
       potential(ionic) =   -3.273779

   izeta = 2
                 rmatch =    4.587816
              splitnorm =    0.280000
                 energy =   -0.131871
                kinetic =    1.403687
    potential(screened) =   -1.535557
       potential(ionic) =   -4.015310

POLgen: Perturbative polarization orbital with L=  2

POLgen: Polarization orbital for state 3p

   izeta = 1
                     rc =    8.464845
                 energy =    0.321949
                kinetic =    1.055677
    potential(screened) =   -0.733728
       potential(ionic) =   -2.672950
atom: Total number of Sankey-type orbitals: 13

atm_pop: Valence configuration (for local Pseudopot. screening):
 3s( 2.00)                                                            
 3p( 2.00)                                                            
Vna: chval, zval:    4.00000   4.00000

Vna:  Cut-off radius for the neutral-atom potential:   8.464845

atom: _________________________________________________________________________

<basis_specs>
===============================================================================
H                    Z=   1    Mass=  1.0100        Charge= 0.17977+309
Lmxo=0 Lmxkb= 2    BasisType=split      Semic=F
L=0  Nsemic=0  Cnfigmx=1
          i=1  nzeta=2  polorb=1  (1s)
            splnorm:   0.62000    
               vcte:    0.0000    
               rinn:    0.0000    
               qcoe:    0.0000    
               qyuk:    0.0000    
               qwid:   0.10000E-01
                rcs:    0.0000      0.0000    
            lambdas:    1.0000      1.0000    
-------------------------------------------------------------------------------
L=0  Nkbl=1  erefs: 0.17977+309
L=1  Nkbl=1  erefs: 0.17977+309
L=2  Nkbl=1  erefs: 0.17977+309
===============================================================================
</basis_specs>

atom: Called for H                     (Z =   1)

read_vps: Pseudopotential generation method:
read_vps: ATM4.2.7  Troullier-Martins                       
Valence charge for ps generation:    1.00000

xc_check: Exchange-correlation functional:
xc_check: GGA Perdew, Burke & Ernzerhof 1996
V l=0 = -2*Zval/r beyond r=  0.0098
V l=1 = -2*Zval/r beyond r=  0.5817
V l=2 = -2*Zval/r beyond r=  1.9372
All V_l potentials equal beyond r=  1.9372
This should be close to max(r_c) in ps generation
All pots = -2*Zval/r beyond r=  1.9372

VLOCAL1: 99.0% of the norm of Vloc inside     11.567 Ry
VLOCAL1: 99.9% of the norm of Vloc inside     26.362 Ry
atom: Maximum radius for 4*pi*r*r*local-pseudopot. charge    2.25106
atom: Maximum radius for r*vlocal+2*Zval:    1.91306
GHOST: No ghost state for L =  0
GHOST: No ghost state for L =  1
GHOST: No ghost state for L =  2

KBgen: Kleinman-Bylander projectors: 
   l= 0   rc=  2.036604   el= -0.477180   Ekb= -6.081590   kbcos= -0.277285
   l= 1   rc=  2.195416   el=  0.001076   Ekb= -0.926943   kbcos= -0.034643
   l= 2   rc=  2.251056   el=  0.002010   Ekb= -0.130941   kbcos= -0.009788

KBgen: Total number of Kleinman-Bylander projectors:    9
atom: -------------------------------------------------------------------------

atom: SANKEY-TYPE ORBITALS:
atom: Selected multiple-zeta basis: split     

SPLIT: Orbitals with angular momentum L= 0

SPLIT: Basis orbitals for state 1s

SPLIT: PAO cut-off radius determined from an
SPLIT: energy shift=  0.002000 Ry

   izeta = 1
                 lambda =    1.000000
                     rc =    6.518340
                 energy =   -0.475305
                kinetic =    0.912139
    potential(screened) =   -1.387444
       potential(ionic) =   -1.907295

   izeta = 2
                 rmatch =    2.141150
              splitnorm =    0.620000
                 energy =    0.566467
                kinetic =    3.772856
    potential(screened) =   -3.206389
       potential(ionic) =   -3.759093

POLgen: Perturbative polarization orbital with L=  1

POLgen: Polarization orbital for state 1s

   izeta = 1
                     rc =    6.518340
                 energy =    0.533861
                kinetic =    1.121086
    potential(screened) =   -0.587225
       potential(ionic) =   -1.053027
atom: Total number of Sankey-type orbitals:  5

atm_pop: Valence configuration (for local Pseudopot. screening):
 1s( 1.00)                                                            
Vna: chval, zval:    1.00000   1.00000

Vna:  Cut-off radius for the neutral-atom potential:   6.518340

atom: _________________________________________________________________________

prinput: Basis input ----------------------------------------------------------

PAO.BasisType split     

%block ChemicalSpeciesLabel
    1    8 O                       # Species index, atomic number, species label
    2    7 N                       # Species index, atomic number, species label
    3   14 Si                      # Species index, atomic number, species label
    4    1 H                       # Species index, atomic number, species label
%endblock ChemicalSpeciesLabel

%block PAO.Basis                 # Define Basis set
O                     2                    # Species label, number of l-shells
 n=2   0   2                         # n, l, Nzeta 
   4.244      2.188   
   1.000      1.000   
 n=2   1   2 P   1                   # n, l, Nzeta, Polarization, NzetaPol
   5.315      2.161   
   1.000      1.000   
N                     2                    # Species label, number of l-shells
 n=2   0   2                         # n, l, Nzeta 
   4.730      2.532   
   1.000      1.000   
 n=2   1   2 P   1                   # n, l, Nzeta, Polarization, NzetaPol
   5.924      2.532   
   1.000      1.000   
Si                    2                    # Species label, number of l-shells
 n=3   0   2                         # n, l, Nzeta 
   6.430      3.998   
   1.000      1.000   
 n=3   1   2 P   1                   # n, l, Nzeta, Polarization, NzetaPol
   8.465      4.588   
   1.000      1.000   
H                     1                    # Species label, number of l-shells
 n=1   0   2 P   1                   # n, l, Nzeta, Polarization, NzetaPol
   6.518      2.141   
   1.000      1.000   
%endblock PAO.Basis

prinput: ----------------------------------------------------------------------

Dumping basis to NetCDF file O.ion.nc
Dumping basis to NetCDF file N.ion.nc
Dumping basis to NetCDF file Si.ion.nc
Dumping basis to NetCDF file H.ion.nc
coor:   Atomic-coordinates input format  =     Cartesian coordinates
coor:                                          (in Angstroms)

siesta: Atomic coordinates (Bohr) and species
siesta:      1.97217   7.44407   0.00000  1        1
siesta:     -5.74598   2.02405   0.00000  2        2
siesta:      3.88264   2.29334   0.00000  2        3
siesta:      1.88786  -3.27422   0.00000  2        4
siesta:     -4.02956  -3.42601   0.00000  2        5
siesta:      7.29471  -2.10194   0.00000  2        6
siesta:     -2.33605   2.17879   0.00000  3        7
siesta:     -1.00708  -1.77447   0.00000  3        8
siesta:      1.20122   4.48719   0.00000  3        9
siesta:      4.24276  -1.03929   0.00000  3       10
siesta:     -6.51921  -1.10297   0.00000  3       11
siesta:      5.60061   3.38449   0.00000  4       12
siesta:     -9.15684  -2.12320   0.00000  4       13
siesta:      7.57218  -4.06728   0.00000  4       14
siesta:      9.01814  -0.94924   0.00000  4       15
siesta:     -4.28099  -5.41332   0.00000  4       16
siesta:     14.84811  13.02884   0.00000  3       17
siesta:     18.44782  15.30906   0.00000  3       18
siesta:     17.51098   7.80122   0.00000  3       19
siesta:     21.43683  12.46737   0.00000  3       20
siesta:     14.96078   9.78337   0.00000  2       21
siesta:     11.93956  14.45308   0.00000  2       22
siesta:     20.63336   9.18042   0.00000  2       23
siesta:     18.80941  18.12882   0.00000  4       24
siesta:     24.24188  12.88071   0.00000  4       25
siesta:     11.72915  16.43578   0.00000  4       26
siesta:     10.17728  13.27217   0.00000  4       27
siesta:     17.49165   4.76233   0.00000  1       28
siesta:     22.09871   7.80717   0.00000  4       29

siesta: Automatic unit cell vectors (Ang):
siesta:   27.029802    0.000000    0.000000
siesta:    0.000000   21.292339    0.000000
siesta:    0.000000    0.000000    9.854683

siesta: System type = molecule  

initatomlists: Number of atoms, orbitals, and projectors:     29   297   394

siesta: ******************** Simulation parameters ****************************
siesta:
siesta: The following are some of the parameters of the simulation.
siesta: A complete list of the parameters used, including default values,
siesta: can be found in file out.fdf
siesta:
redata: Spin configuration                          = spin-orbit
redata: Number of spin components                   = 8
redata: Time-Reversal Symmetry                      = F
redata: Spin spiral                                 = F
############################################################
This spin-orbit implementation uses a local approximation.
From 4.2 and onwards the full non-local approximation is implemented
You are strongly advised to use >=4.2 versions!
############################################################
redata: Long output                                 =   F
redata: Number of Atomic Species                    =        4
redata: Charge density info will appear in .RHO file
redata: Write Mulliken Pop.                         = Atomic and Orbital charges
redata: Matel table size (NRTAB)                    =     1024
redata: Mesh Cutoff                                 =   340.0000 Ry
redata: Net charge of the system                    =     0.0000 |e|
redata: Min. number of SCF Iter                     =        1
redata: Max. number of SCF Iter                     =      200
redata: SCF mix quantity                            = Hamiltonian
redata: Mix DM or H after convergence               =   F
redata: Recompute H after scf cycle                 =   F
redata: Mix DM in first SCF step                    =   T
redata: Write Pulay info on disk                    =   F
redata: New DM Occupancy tolerance                  = 0.000000000001
redata: No kicks to SCF
redata: DM Mixing Weight for Kicks                  =     0.5000
redata: Require Harris convergence for SCF          =   F
redata: Harris energy tolerance for SCF             =     0.000100 eV
redata: Require DM convergence for SCF              =   T
redata: DM tolerance for SCF                        =     0.000008
redata: Require EDM convergence for SCF             =   F
redata: EDM tolerance for SCF                       =     0.001000 eV
redata: Require H convergence for SCF               =   T
redata: Hamiltonian tolerance for SCF               =     0.000001 eV
redata: Require (free) Energy convergence for SCF   =   F
redata: (free) Energy tolerance for SCF             =     0.000100 eV
redata: Using Saved Data (generic)                  =   F
redata: Use continuation files for DM               =   F
redata: Neglect nonoverlap interactions             =   F
redata: Method of Calculation                       = Diagonalization
redata: Electronic Temperature                      =   299.9978 K
redata: Fix the spin of the system                  =   F
redata: Dynamics option                             = Single-point calculation
mix.SCF: Pulay mixing                            = Pulay
mix.SCF:    Variant                              = stable
mix.SCF:    History steps                        = 6
mix.SCF:    Linear mixing weight                 =     0.250000
mix.SCF:    Mixing weight                        =     0.250000
mix.SCF:    SVD condition                        = 0.1000E-07
mix.SCF:    Restart steps                        = 24
mix.SCF:    Restart save steps                   = 3
mix.SCF: Spin-component mixing                   all
redata: Save all siesta data in one NC              =   F
redata: ***********************************************************************

%block SCF.Mixers
  Pulay
%endblock SCF.Mixers

%block SCF.Mixer.Pulay
  # Mixing method
  method pulay
  variant stable

  # Mixing options
  weight 0.2500
  weight.linear 0.2500
  history 6
  restart 24
  restart.save 3
%endblock SCF.Mixer.Pulay

DM_history_depth set to one: no extrapolation allowed by default for geometry relaxation
Size of DM history Fstack: 1
Total number of electrons:    98.000000
Total ionic charge:    98.000000

* ProcessorY, Blocksize:    2  24


* Orbital distribution balance (max,min):    81    72


Time-reversal symmetry not used.

siesta: k-grid: Number of k-points =     1
siesta: k-grid: Cutoff (effective) =     4.927 Ang
siesta: k-grid: Supercell and displacements
siesta: k-grid:    1   0   0      0.000
siesta: k-grid:    0   1   0      0.000
siesta: k-grid:    0   0   1      0.000

diag: Algorithm                                     = ELPA-1stage
diag: Parallel over k                               =   F
diag: Use parallel 2D distribution                  =   T
diag: Parallel block-size                           = 24
diag: Parallel distribution                         =     2 x     2
diag: Used triangular part                          = Lower
diag: Absolute tolerance                            =  0.100E-15
diag: Orthogonalization factor                      =  0.100E-05
diag: Memory factor                                 =  1.0000


ts: **************************************************************
ts: Save H and S matrices                           =    F
ts: Save DM and EDM matrices                        =    F
ts: Only save the overlap matrix S                  =    F
ts: **************************************************************

************************ Begin: TS CHECKS AND WARNINGS ************************
************************ End: TS CHECKS AND WARNINGS **************************


                     ====================================
                        Single-point calculation
                     ====================================

outcoor: Atomic coordinates (Ang):                          
    1.04362488    3.93922861    0.00000000   1       1  O
   -3.04064129    1.07107817    0.00000000   2       2  N
    2.05460145    1.21358207    0.00000000   2       3  N
    0.99901410   -1.73264380    0.00000000   2       4  N
   -2.13235164   -1.81296822    0.00000000   2       5  N
    3.86019055   -1.11229818    0.00000000   2       6  N
   -1.23618322    1.15296446    0.00000000   3       7  Si
   -0.53292426   -0.93900627    0.00000000   3       8  Si
    0.63566047    2.37451677    0.00000000   3       9  Si
    2.24517024   -0.54996710    0.00000000   3      10  Si
   -3.44981666   -0.58366503    0.00000000   3      11  Si
    2.96371409    1.79099263    0.00000000   4      12  H
   -4.84559135   -1.12354966    0.00000000   4      13  H
    4.00702091   -2.15230856    0.00000000   4      14  H
    4.77219438   -0.50231816    0.00000000   4      15  H
   -2.26539909   -2.86460511    0.00000000   4      16  H
    7.85727633    6.89456244    0.00000000   3      17  Si
    9.76216030    8.10120138    0.00000000   3      18  Si
    9.26640616    4.12822747    0.00000000   3      19  Si
   11.34387645    6.59744463    0.00000000   3      20  Si
    7.91689900    5.17713487    0.00000000   2      21  N
    6.31814127    7.64823975    0.00000000   2      22  N
   10.91870142    4.85806469    0.00000000   2      23  N
    9.95350510    9.59335513    0.00000000   4      24  H
   12.82824443    6.81617545    0.00000000   4      25  H
    6.20679599    8.69743486    0.00000000   4      26  H
    5.38558356    7.02332557    0.00000000   4      27  H
    9.25617933    2.52011635    0.00000000   1      28  O
   11.69412730    4.13137313    0.00000000   4      29  H

outcell: Unit cell vectors (Ang):
       27.029802    0.000000    0.000000
        0.000000   21.292339    0.000000
        0.000000    0.000000    9.854683

outcell: Cell vector modules (Ang)   :   27.029802   21.292339    9.854683
outcell: Cell angles (23,13,12) (deg):     90.0000     90.0000     90.0000
outcell: Cell volume (Ang**3)        :   5671.6433
<dSpData1D:S at geom step 0
  <sparsity:sparsity for geom step 0
    nrows_g=297 nrows=81 sparsity=.1415 nnzs=12485, refcount: 8>
  <dData1D:(new from dSpData1D) n=12485, refcount: 1>
refcount: 1>
new_DM -- step:     1
Initializing Density Matrix...
DM filled with atomic data:
<dSpData2D:DM initialized from atoms
  <sparsity:sparsity for geom step 0
    nrows_g=297 nrows=81 sparsity=.1415 nnzs=12485, refcount: 9>
  <dData2D:DM n=12485 m=8, refcount: 1>
refcount: 1>
     spin moment: S , {S} =   56.00000   0.00000   0.00000  56.00000
No. of atoms with KB's overlaping orbs in proc 0. Max # of overlaps:      29     142

Initializing spin-orbit part of the Hamiltonian
  Adding spin-orbit effects for O 
  Adding spin-orbit effects for N 
  Adding spin-orbit effects for Si
  Adding spin-orbit effects for H 


New grid distribution:   1
           1       1:  150    1:   60    1:   30
           2       1:  150    1:   60   31:   60
           3       1:  150   61:  120    1:   30
           4       1:  150   61:  120   31:   60

InitMesh: MESH =   300 x   240 x   120 =     8640000
InitMesh: (bp) =   150 x   120 x    60 =     1080000
InitMesh: Mesh cutoff (required, used) =   340.000   340.454 Ry
ExtMesh (bp) on 0 =   250 x   164 x   142 =     5822000
New grid distribution:   2
           1      52:  150    1:   35    1:   60
           2       1:   51    1:   36    1:   60
           3      52:  150   36:  120    1:   60
           4       1:   51   37:  120    1:   60
New grid distribution:   3
           1      54:  150    1:   38    1:   60
           2       1:   53    1:   39    1:   60
           3      54:  150   39:  120    1:   60
           4       1:   53   40:  120    1:   60
Setting up quadratic distribution...
ExtMesh (bp) on 0 =   199 x   139 x   172 =     4757692
PhiOnMesh: Number of (b)points on node 0 =               207900
PhiOnMesh: nlist on node 0 =              2441063

stepf: Fermi-Dirac step function

siesta: Program's energy decomposition (eV):
siesta: Ebs     =      -623.218474
siesta: Eions   =      3585.165840
siesta: Ena     =       382.019161
siesta: Ekin    =      3369.062439
siesta: Enl     =     -3297.670971
siesta: Eso     =        -0.003411
siesta: Edftu   =         0.000000
siesta: DEna    =       153.677677
siesta: DUscf   =        81.847334
siesta: DUext   =         0.000000
siesta: Exc     =     -1203.936243
siesta: eta*DQ  =         0.000000
siesta: Emadel  =         0.000000
siesta: Emeta   =         0.000000
siesta: Emolmec =         0.000000
siesta: Ekinion =         0.000000
siesta: Eharris =     -4020.281553
siesta: Etot    =     -4100.169853
siesta: FreeEng =     -4100.171276

        iscf     Eharris(eV)        E_KS(eV)     FreeEng(eV)     dDmax    Ef(eV) dHmax(eV)
   scf:    1    -4020.281553    -4100.169853    -4100.171276  0.965054 -4.904546 21.838471
     spin moment: S , {S} =    2.00727  -0.00000   0.00000   2.00727
timer: Routine,Calls,Time,% = IterSCF        1      12.036  17.15
   scf:    2    -4146.805305    -4135.607024    -4135.608828  0.450430 -4.228854 11.665788
     spin moment: S , {S} =    1.98908   0.00000   0.00000   1.98908
   scf:    3    -4106.368660    -4132.936000    -4132.952437  0.421111 -4.338485 12.101726
     spin moment: S , {S} =    2.12475  -0.00000  -0.00000   2.12475
   scf:    4    -4149.497361    -4144.734905    -4144.734906  0.317377 -3.906000  7.156146
     spin moment: S , {S} =    0.00010  -0.00000  -0.00000   0.00010
   scf:    5    -4146.085974    -4145.516211    -4145.516211  0.036612 -3.723978  4.575128
     spin moment: S , {S} =    0.00006  -0.00000  -0.00000   0.00006
   scf:    6    -4146.286930    -4145.910940    -4145.910940  0.024285 -3.602074  2.244332
     spin moment: S , {S} =    0.00003  -0.00000   0.00000   0.00003
   scf:    7    -4146.266709    -4146.085166    -4146.085166  0.021626 -3.817214  0.885778
     spin moment: S , {S} =    0.00001   0.00000  -0.00000   0.00001
   scf:    8    -4146.204508    -4146.142837    -4146.142837  0.012301 -3.746542  0.506989
     spin moment: S , {S} =    0.00000  -0.00000  -0.00000   0.00000
   scf:    9    -4146.181437    -4146.161449    -4146.161449  0.006523 -3.702830  0.385623
     spin moment: S , {S} =    0.00000  -0.00000  -0.00000   0.00000
   scf:   10    -4146.213407    -4146.180896    -4146.180896  0.021956 -3.796909  0.233946
     spin moment: S , {S} =    0.00000   0.00000   0.00000  -0.00000
   scf:   11    -4146.184727    -4146.182820    -4146.182820  0.005649 -3.784759  0.062789
     spin moment: S , {S} =    0.00000   0.00000   0.00000  -0.00000
   scf:   12    -4146.184007    -4146.183427    -4146.183427  0.001003 -3.780245  0.028019
     spin moment: S , {S} =    0.00000   0.00000   0.00000  -0.00000
   scf:   13    -4146.183922    -4146.183672    -4146.183672  0.001233 -3.777259  0.018392
     spin moment: S , {S} =    0.00000   0.00000   0.00000  -0.00000
   scf:   14    -4146.183935    -4146.183797    -4146.183797  0.000961 -3.776958  0.010462
     spin moment: S , {S} =    0.00000   0.00000   0.00000  -0.00000
   scf:   15    -4146.183899    -4146.183845    -4146.183845  0.000823 -3.776024  0.007801
     spin moment: S , {S} =    0.00000   0.00000   0.00000  -0.00000
   scf:   16    -4146.183914    -4146.183876    -4146.183876  0.000887 -3.775394  0.005475
     spin moment: S , {S} =    0.00000   0.00000   0.00000   0.00000
   scf:   17    -4146.183892    -4146.183883    -4146.183883  0.000396 -3.775317  0.004129
     spin moment: S , {S} =    0.00000   0.00000   0.00000   0.00000
   scf:   18    -4146.183892    -4146.183887    -4146.183887  0.000318 -3.775527  0.002601
     spin moment: S , {S} =    0.00000   0.00000   0.00000   0.00000
   scf:   19    -4146.183891    -4146.183889    -4146.183889  0.000227 -3.775679  0.001778
     spin moment: S , {S} =    0.00000   0.00000   0.00000   0.00000
   scf:   20    -4146.183891    -4146.183890    -4146.183890  0.000156 -3.775693  0.001184
     spin moment: S , {S} =    0.00000   0.00000   0.00000   0.00000
   scf:   21    -4146.183891    -4146.183890    -4146.183890  0.000187 -3.775663  0.000523
     spin moment: S , {S} =    0.00000   0.00000   0.00000   0.00000
   scf:   22    -4146.183891    -4146.183891    -4146.183891  0.000093 -3.775633  0.000213
     spin moment: S , {S} =    0.00000   0.00000   0.00000   0.00000
   scf:   23    -4146.183891    -4146.183891    -4146.183891  0.000025 -3.775630  0.000165
     spin moment: S , {S} =    0.00000   0.00000   0.00000   0.00000
   scf:   24    -4146.183891    -4146.183891    -4146.183891  0.000010 -3.775637  0.000083
     spin moment: S , {S} =    0.00000   0.00000   0.00000   0.00000
mix: Pulay -- resetting history
   scf:   25    -4146.183891    -4146.183891    -4146.183891  0.000005 -3.775641  0.000041
     spin moment: S , {S} =    0.00000   0.00000   0.00000   0.00000
   scf:   26    -4146.183891    -4146.183891    -4146.183891  0.000002 -3.775641  0.000033
     spin moment: S , {S} =    0.00000   0.00000   0.00000   0.00000
   scf:   27    -4146.183891    -4146.183891    -4146.183891  0.000002 -3.775638  0.000019
     spin moment: S , {S} =    0.00000   0.00000   0.00000   0.00000
   scf:   28    -4146.183891    -4146.183891    -4146.183891  0.000002 -3.775637  0.000011
     spin moment: S , {S} =    0.00000   0.00000   0.00000   0.00000
   scf:   29    -4146.183891    -4146.183891    -4146.183891  0.000001 -3.775636  0.000007
     spin moment: S , {S} =    0.00000   0.00000   0.00000   0.00000
   scf:   30    -4146.183891    -4146.183891    -4146.183891  0.000001 -3.775636  0.000003
     spin moment: S , {S} =    0.00000   0.00000   0.00000   0.00000
   scf:   31    -4146.183891    -4146.183891    -4146.183891  0.000001 -3.775636  0.000002
     spin moment: S , {S} =    0.00000   0.00000   0.00000   0.00000
   scf:   32    -4146.183891    -4146.183891    -4146.183891  0.000000 -3.775637  0.000001
     spin moment: S , {S} =    0.00000   0.00000   0.00000   0.00000
   scf:   33    -4146.183891    -4146.183891    -4146.183891  0.000000 -3.775637  0.000001
     spin moment: S , {S} =    0.00000   0.00000   0.00000   0.00000

SCF Convergence by DM+H criterion
max |DM_out - DM_in|         :     0.0000001474
max |H_out - H_in|      (eV) :     0.0000006436
SCF cycle converged after 33 iterations

Using DM_out to compute the final energy and forces
No. of atoms with KB's overlaping orbs in proc 0. Max # of overlaps:      29     142

siesta: E_KS(eV) =            -4146.1839

siesta: E_KS - E_eggbox =     -4146.1839
     spin moment: S , {S} =    0.00000   0.00000   0.00000   0.00000

siesta: Atomic forces (eV/Ang):
     1    2.323377   -3.036137   -0.000000
     2    0.015508    0.031384    0.000000
     3    0.784923   -0.421254   -0.000000
     4    0.772288   -0.016854    0.000000
     5    0.061313   -0.105153   -0.000000
     6    1.818273    0.653074   -0.000000
     7    0.042004   -0.263394   -0.000000
     8   -0.438457    0.303272    0.000000
     9   -0.205655    1.314937    0.000000
    10   -1.092841    0.373646   -0.000000
    11   -0.025205   -0.019857    0.000000
    12   -0.313761   -0.310698    0.000000
    13   -0.014429   -0.043513   -0.000000
    14    0.201623   -0.052617    0.000000
    15   -1.333499   -0.965657   -0.000000
    16   -0.023673    0.199173   -0.000000
    17    1.069294   -1.150211    0.000000
    18   -0.225950    0.206444    0.000000
    19   -0.198759   -1.322282   -0.000000
    20   -0.012326   -0.439662    0.000000
    21   -0.333944    1.094088   -0.000000
    22   -2.229656   -0.865399   -0.000000
    23    0.276942    0.569678    0.000000
    24    0.089501   -0.057720   -0.000000
    25    0.036774    0.053813   -0.000000
    26   -0.118531   -0.232088    0.000000
    27    1.751871    1.329513    0.000000
    28    4.382005   -1.716515   -0.000000
    29   -0.029543    0.118586    0.000000
----------------------------------------
   Tot    7.029466   -4.771402    0.000000
----------------------------------------
   Max    4.382005
   Res    0.866113    sqrt( Sum f_i^2 / 3N )
----------------------------------------
   Max    4.382005    constrained

Stress tensor Voigt[x,y,z,yz,xz,xy] (kbar):        0.14        1.59       -0.07       -0.00       -0.00        1.30
(Free)E + p*V (eV/cell)    -4148.1510
Target enthalpy (eV/cell)    -4146.1839

mulliken: Atomic and Orbital Populations:

Species: O                   

Atom      Orb        Charge      Spin       Svec
----------------------------------------------------------------
    1  1 2s         1.75629   0.00000      0.000  -0.000  -0.000
    1  2 2s         0.05841   0.00000     -0.000   0.000   0.000
    1  3 2py        1.42551   0.00000     -0.000   0.000  -0.000
    1  4 2pz        1.54294   0.00000     -0.000   0.000   0.000
    1  5 2px        1.62477   0.00000     -0.000   0.000  -0.000
    1  6 2py        0.03956   0.00000      0.000  -0.000   0.000
    1  7 2pz       -0.00652   0.00000     -0.000  -0.000   0.000
    1  8 2px        0.00724   0.00000      0.000  -0.000   0.000
    1  9 3Pdxy      0.00707   0.00000      0.000  -0.000   0.000
    1 10 3Pdyz      0.00910   0.00000      0.000   0.000  -0.000
    1 11 3Pdz2      0.00159   0.00000     -0.000  -0.000   0.000
    1 12 3Pdxz      0.00038   0.00000     -0.000   0.000   0.000
    1 13 3Pdx2-y2   0.00694   0.00000     -0.000  -0.000   0.000
    1     Total     6.47329   0.00000     -0.000   0.000  -0.000

   28  1 2s         1.74995   0.00000      0.000   0.000   0.000
   28  2 2s         0.06314   0.00000     -0.000  -0.000  -0.000
   28  3 2py        1.40813   0.00000     -0.000  -0.000   0.000
   28  4 2pz        1.54247   0.00000      0.000  -0.000   0.000
   28  5 2px        1.64514   0.00000      0.000   0.000  -0.000
   28  6 2py        0.04253   0.00000     -0.000  -0.000   0.000
   28  7 2pz       -0.00465   0.00000     -0.000  -0.000  -0.000
   28  8 2px        0.01065   0.00000     -0.000  -0.000   0.000
   28  9 3Pdxy      0.00646   0.00000      0.000  -0.000  -0.000
   28 10 3Pdyz      0.00978   0.00000     -0.000   0.000  -0.000
   28 11 3Pdz2      0.00127   0.00000     -0.000   0.000   0.000
   28 12 3Pdxz     -0.00018   0.00000     -0.000  -0.000  -0.000
   28 13 3Pdx2-y2   0.00775   0.00000      0.000  -0.000  -0.000
   28     Total     6.48244   0.00000      0.000  -0.000   0.000

----------------------------------------------------------------
Total              12.95573   0.00000      0.000  -0.000   0.000


Species: N                   

Atom      Orb        Charge      Spin       Svec
----------------------------------------------------------------
    2  1 2s         1.55144   0.00000     -0.000   0.000  -0.000
    2  2 2s         0.08415   0.00000      0.000  -0.000   0.000
    2  3 2py        1.04360   0.00000     -0.000   0.000  -0.000
    2  4 2pz        1.22422   0.00000      0.000  -0.000  -0.000
    2  5 2px        0.98948   0.00000      0.000   0.000  -0.000
    2  6 2py        0.18855   0.00000      0.000   0.000   0.000
    2  7 2pz        0.05543   0.00000      0.000  -0.000   0.000
    2  8 2px        0.19586   0.00000     -0.000  -0.000   0.000
    2  9 3Pdxy      0.00840   0.00000     -0.000   0.000   0.000
    2 10 3Pdyz      0.01099   0.00000     -0.000   0.000   0.000
    2 11 3Pdz2      0.00195   0.00000     -0.000  -0.000   0.000
    2 12 3Pdxz      0.00758   0.00000      0.000  -0.000   0.000
    2 13 3Pdx2-y2   0.00909   0.00000      0.000  -0.000  -0.000
    2     Total     5.37073   0.00000     -0.000   0.000  -0.000

    3  1 2s         1.40082   0.00000      0.000  -0.000  -0.000
    3  2 2s         0.11634   0.00000     -0.000   0.000   0.000
    3  3 2py        0.94146   0.00000      0.000   0.000  -0.000
    3  4 2pz        1.54356   0.00000     -0.000   0.000  -0.000
    3  5 2px        1.08156   0.00000      0.000  -0.000  -0.000
    3  6 2py        0.24856   0.00000     -0.000  -0.000   0.000
    3  7 2pz        0.00730   0.00000      0.000  -0.000   0.000
    3  8 2px        0.17865   0.00000      0.000   0.000   0.000
    3  9 3Pdxy      0.00399   0.00000     -0.000  -0.000   0.000
    3 10 3Pdyz      0.00419   0.00000      0.000   0.000   0.000
    3 11 3Pdz2      0.00075   0.00000     -0.000   0.000   0.000
    3 12 3Pdxz      0.00279   0.00000      0.000   0.000  -0.000
    3 13 3Pdx2-y2   0.00284   0.00000      0.000  -0.000  -0.000
    3     Total     5.53282   0.00000      0.000  -0.000  -0.000

    4  1 2s         1.45979   0.00000      0.000   0.000  -0.000
    4  2 2s         0.11892   0.00000     -0.000  -0.000   0.000
    4  3 2py        1.13095   0.00000     -0.000   0.000  -0.000
    4  4 2pz        1.29465   0.00000      0.000  -0.000  -0.000
    4  5 2px        0.82590   0.00000      0.000   0.000  -0.000
    4  6 2py        0.14949   0.00000      0.000   0.000   0.000
    4  7 2pz        0.05362   0.00000     -0.000   0.000   0.000
    4  8 2px        0.29233   0.00000     -0.000  -0.000   0.000
    4  9 3Pdxy      0.00869   0.00000     -0.000   0.000   0.000
    4 10 3Pdyz      0.01045   0.00000      0.000  -0.000   0.000
    4 11 3Pdz2      0.00126   0.00000      0.000  -0.000  -0.000
    4 12 3Pdxz      0.00499   0.00000      0.000   0.000  -0.000
    4 13 3Pdx2-y2   0.00798   0.00000      0.000  -0.000  -0.000
    4     Total     5.35901   0.00000      0.000  -0.000  -0.000

    5  1 2s         1.37617   0.00000      0.000  -0.000  -0.000
    5  2 2s         0.12797   0.00000     -0.000   0.000   0.000
    5  3 2py        1.02614   0.00000      0.000   0.000  -0.000
    5  4 2pz        1.50088   0.00000      0.000   0.000  -0.000
    5  5 2px        1.06000   0.00000     -0.000   0.000  -0.000
    5  6 2py        0.20372   0.00000     -0.000   0.000   0.000
    5  7 2pz        0.01343   0.00000     -0.000  -0.000   0.000
    5  8 2px        0.20092   0.00000      0.000  -0.000   0.000
    5  9 3Pdxy      0.00393   0.00000      0.000  -0.000   0.000
    5 10 3Pdyz      0.00241   0.00000     -0.000  -0.000   0.000
    5 11 3Pdz2      0.00142   0.00000      0.000   0.000   0.000
    5 12 3Pdxz      0.00685   0.00000     -0.000   0.000   0.000
    5 13 3Pdx2-y2   0.00559   0.00000     -0.000  -0.000   0.000
    5     Total     5.52943   0.00000      0.000   0.000  -0.000

    6  1 2s         1.26982   0.00000      0.000   0.000  -0.000
    6  2 2s         0.17905   0.00000     -0.000  -0.000   0.000
    6  3 2py        1.07685   0.00000      0.000   0.000  -0.000
    6  4 2pz        1.57439   0.00000      0.000   0.000  -0.000
    6  5 2px        0.95574   0.00000     -0.000   0.000  -0.000
    6  6 2py        0.18790   0.00000     -0.000  -0.000   0.000
    6  7 2pz        0.02986   0.00000     -0.000   0.000   0.000
    6  8 2px        0.25561   0.00000     -0.000  -0.000   0.000
    6  9 3Pdxy      0.00246   0.00000     -0.000  -0.000   0.000
    6 10 3Pdyz      0.00016   0.00000      0.000  -0.000  -0.000
    6 11 3Pdz2      0.00177   0.00000     -0.000  -0.000   0.000
    6 12 3Pdxz      0.00326   0.00000     -0.000  -0.000   0.000
    6 13 3Pdx2-y2   0.00396   0.00000      0.000  -0.000  -0.000
    6     Total     5.54083   0.00000     -0.000   0.000  -0.000

   21  1 2s         1.42450   0.00000      0.000  -0.000   0.000
   21  2 2s         0.12792   0.00000     -0.000   0.000  -0.000
   21  3 2py        0.87110   0.00000      0.000   0.000  -0.000
   21  4 2pz        1.29437   0.00000      0.000   0.000  -0.000
   21  5 2px        1.15637   0.00000      0.000  -0.000  -0.000
   21  6 2py        0.27564   0.00000     -0.000  -0.000  -0.000
   21  7 2pz        0.04901   0.00000     -0.000  -0.000   0.000
   21  8 2px        0.16324   0.00000     -0.000   0.000   0.000
   21  9 3Pdxy      0.00650   0.00000      0.000  -0.000   0.000
   21 10 3Pdyz      0.00509   0.00000      0.000   0.000  -0.000
   21 11 3Pdz2      0.00017   0.00000     -0.000   0.000   0.000
   21 12 3Pdxz      0.00576   0.00000      0.000  -0.000  -0.000
   21 13 3Pdx2-y2   0.00561   0.00000     -0.000   0.000  -0.000
   21     Total     5.38526   0.00000      0.000  -0.000  -0.000

   22  1 2s         1.29429   0.00000      0.000   0.000   0.000
   22  2 2s         0.16783   0.00000     -0.000  -0.000  -0.000
   22  3 2py        1.05588   0.00000     -0.000   0.000  -0.000
   22  4 2pz        1.55783   0.00000      0.000   0.000  -0.000
   22  5 2px        0.98250   0.00000      0.000   0.000  -0.000
   22  6 2py        0.19694   0.00000      0.000  -0.000   0.000
   22  7 2pz        0.02826   0.00000      0.000  -0.000  -0.000
   22  8 2px        0.23507   0.00000      0.000  -0.000   0.000
   22  9 3Pdxy      0.00330   0.00000     -0.000  -0.000  -0.000
   22 10 3Pdyz      0.00035   0.00000      0.000   0.000   0.000
   22 11 3Pdz2      0.00256   0.00000     -0.000  -0.000   0.000
   22 12 3Pdxz      0.00316   0.00000     -0.000   0.000   0.000
   22 13 3Pdx2-y2   0.00474   0.00000      0.000  -0.000  -0.000
   22     Total     5.53270   0.00000      0.000   0.000  -0.000

   23  1 2s         1.39732   0.00000     -0.000   0.000  -0.000
   23  2 2s         0.11784   0.00000      0.000  -0.000  -0.000
   23  3 2py        1.00694   0.00000      0.000   0.000  -0.000
   23  4 2pz        1.52454   0.00000     -0.000   0.000  -0.000
   23  5 2px        1.06533   0.00000      0.000  -0.000  -0.000
   23  6 2py        0.21148   0.00000     -0.000  -0.000   0.000
   23  7 2pz        0.00496   0.00000      0.000  -0.000   0.000
   23  8 2px        0.19790   0.00000     -0.000   0.000   0.000
   23  9 3Pdxy      0.00530   0.00000      0.000  -0.000   0.000
   23 10 3Pdyz      0.00445   0.00000      0.000   0.000  -0.000
   23 11 3Pdz2      0.00060   0.00000     -0.000   0.000   0.000
   23 12 3Pdxz      0.00243   0.00000     -0.000   0.000  -0.000
   23 13 3Pdx2-y2   0.00137   0.00000     -0.000   0.000  -0.000
   23     Total     5.54047   0.00000      0.000   0.000  -0.000

----------------------------------------------------------------
Total              56.74697   0.00000      0.000   0.000  -0.000


Species: Si                  

Atom      Orb        Charge      Spin       Svec
----------------------------------------------------------------
    7  1 3s         0.66767   0.00000     -0.000   0.000   0.000
    7  2 3s         0.36501   0.00000      0.000  -0.000   0.000
    7  3 3py        0.48780   0.00000      0.000   0.000   0.000
    7  4 3pz        0.69016   0.00000     -0.000   0.000   0.000
    7  5 3px        0.12482   0.00000      0.000   0.000  -0.000
    7  6 3py        0.26463   0.00000      0.000  -0.000   0.000
    7  7 3pz        0.25920   0.00000      0.000  -0.000   0.000
    7  8 3px        0.43846   0.00000     -0.000  -0.000   0.000
    7  9 3Pdxy      0.24569   0.00000     -0.000   0.000   0.000
    7 10 3Pdyz      0.02942   0.00000     -0.000   0.000  -0.000
    7 11 3Pdz2      0.01175   0.00000      0.000  -0.000   0.000
    7 12 3Pdxz      0.14566   0.00000      0.000   0.000  -0.000
    7 13 3Pdx2-y2   0.11290   0.00000     -0.000   0.000   0.000
    7     Total     3.84315   0.00000      0.000   0.000   0.000

    8  1 3s         0.65677   0.00000     -0.000  -0.000  -0.000
    8  2 3s         0.36851   0.00000     -0.000   0.000   0.000
    8  3 3py        0.38791   0.00000      0.000   0.000  -0.000
    8  4 3pz        0.52620   0.00000      0.000   0.000  -0.000
    8  5 3px       -0.03083   0.00000     -0.000  -0.000   0.000
    8  6 3py        0.30891   0.00000     -0.000  -0.000   0.000
    8  7 3pz        0.20190   0.00000     -0.000  -0.000   0.000
    8  8 3px        0.51460   0.00000      0.000   0.000  -0.000
    8  9 3Pdxy      0.24586   0.00000     -0.000  -0.000   0.000
    8 10 3Pdyz      0.11218   0.00000      0.000  -0.000  -0.000
    8 11 3Pdz2      0.01453   0.00000      0.000   0.000   0.000
    8 12 3Pdxz      0.15319   0.00000      0.000   0.000   0.000
    8 13 3Pdx2-y2   0.20021   0.00000      0.000  -0.000  -0.000
    8     Total     3.65995   0.00000      0.000  -0.000  -0.000

    9  1 3s         0.60395   0.00000      0.000  -0.000   0.000
    9  2 3s         0.36647   0.00000     -0.000   0.000  -0.000
    9  3 3py        0.07521   0.00000      0.000   0.000   0.000
    9  4 3pz        0.48509   0.00000      0.000   0.000  -0.000
    9  5 3px        0.37778   0.00000     -0.000  -0.000  -0.000
    9  6 3py        0.44737   0.00000     -0.000  -0.000   0.000
    9  7 3pz        0.18775   0.00000     -0.000   0.000  -0.000
    9  8 3px        0.27379   0.00000      0.000   0.000  -0.000
    9  9 3Pdxy      0.31176   0.00000     -0.000   0.000   0.000
    9 10 3Pdyz      0.18994   0.00000     -0.000   0.000  -0.000
    9 11 3Pdz2      0.01641   0.00000      0.000   0.000   0.000
    9 12 3Pdxz      0.09702   0.00000     -0.000   0.000  -0.000
    9 13 3Pdx2-y2   0.17187   0.00000     -0.000  -0.000   0.000
    9     Total     3.60441   0.00000     -0.000   0.000  -0.000

   10  1 3s         0.48319   0.00000     -0.000  -0.000   0.000
   10  2 3s         0.37749   0.00000      0.000   0.000   0.000
   10  3 3py        0.24184   0.00000     -0.000   0.000   0.000
   10  4 3pz        0.40925   0.00000     -0.000   0.000   0.000
   10  5 3px        0.10119   0.00000      0.000  -0.000   0.000
   10  6 3py        0.32761   0.00000     -0.000  -0.000   0.000
   10  7 3pz        0.22239   0.00000     -0.000   0.000   0.000
   10  8 3px        0.42854   0.00000      0.000   0.000   0.000
   10  9 3Pdxy      0.16949   0.00000     -0.000   0.000   0.000
   10 10 3Pdyz      0.14029   0.00000     -0.000  -0.000   0.000
   10 11 3Pdz2      0.01040   0.00000      0.000   0.000   0.000
   10 12 3Pdxz      0.17460   0.00000     -0.000  -0.000   0.000
   10 13 3Pdx2-y2   0.31027   0.00000     -0.000  -0.000   0.000
   10     Total     3.39654   0.00000     -0.000   0.000   0.000

   11  1 3s         0.55276   0.00000      0.000  -0.000   0.000
   11  2 3s         0.38539   0.00000     -0.000   0.000   0.000
   11  3 3py        0.32155   0.00000     -0.000   0.000   0.000
   11  4 3pz        0.53984   0.00000      0.000  -0.000   0.000
   11  5 3px        0.12376   0.00000     -0.000   0.000   0.000
   11  6 3py        0.28693   0.00000      0.000  -0.000   0.000
   11  7 3pz        0.17764   0.00000     -0.000   0.000   0.000
   11  8 3px        0.44683   0.00000      0.000  -0.000   0.000
   11  9 3Pdxy      0.22532   0.00000      0.000   0.000   0.000
   11 10 3Pdyz      0.12620   0.00000     -0.000  -0.000   0.000
   11 11 3Pdz2      0.00957   0.00000     -0.000   0.000   0.000
   11 12 3Pdxz      0.05268   0.00000      0.000  -0.000   0.000
   11 13 3Pdx2-y2   0.20373   0.00000     -0.000  -0.000   0.000
   11     Total     3.45220   0.00000     -0.000  -0.000   0.000

   17  1 3s         0.63952   0.00000     -0.000  -0.000   0.000
   17  2 3s         0.36053   0.00000      0.000   0.000   0.000
   17  3 3py        0.22806   0.00000     -0.000  -0.000   0.000
   17  4 3pz        0.42389   0.00000     -0.000  -0.000   0.000
   17  5 3px        0.24488   0.00000      0.000   0.000   0.000
   17  6 3py        0.38767   0.00000     -0.000   0.000  -0.000
   17  7 3pz        0.21113   0.00000      0.000  -0.000   0.000
   17  8 3px        0.36832   0.00000     -0.000  -0.000  -0.000
   17  9 3Pdxy      0.30208   0.00000      0.000   0.000   0.000
   17 10 3Pdyz      0.14308   0.00000     -0.000  -0.000   0.000
   17 11 3Pdz2      0.00910   0.00000      0.000   0.000   0.000
   17 12 3Pdxz      0.14325   0.00000     -0.000  -0.000   0.000
   17 13 3Pdx2-y2   0.16332   0.00000      0.000   0.000  -0.000
   17     Total     3.62484   0.00000     -0.000  -0.000   0.000

   18  1 3s         0.74438   0.00000     -0.000   0.000   0.000
   18  2 3s         0.33939   0.00000      0.000  -0.000   0.000
   18  3 3py        0.07988   0.00000      0.000  -0.000   0.000
   18  4 3pz        0.82290   0.00000      0.000  -0.000   0.000
   18  5 3px        0.55530   0.00000      0.000   0.000   0.000
   18  6 3py        0.51771   0.00000     -0.000   0.000   0.000
   18  7 3pz        0.19753   0.00000     -0.000   0.000   0.000
   18  8 3px        0.25005   0.00000     -0.000  -0.000   0.000
   18  9 3Pdxy      0.10340   0.00000      0.000   0.000  -0.000
   18 10 3Pdyz      0.02741   0.00000      0.000   0.000  -0.000
   18 11 3Pdz2      0.00873   0.00000     -0.000   0.000  -0.000
   18 12 3Pdxz      0.03022   0.00000     -0.000  -0.000  -0.000
   18 13 3Pdx2-y2   0.11316   0.00000     -0.000   0.000   0.000
   18     Total     3.79006   0.00000     -0.000  -0.000   0.000

   19  1 3s         0.45884   0.00000     -0.000   0.000   0.000
   19  2 3s         0.36539   0.00000      0.000  -0.000  -0.000
   19  3 3py        0.08276   0.00000      0.000   0.000   0.000
   19  4 3pz        0.42921   0.00000     -0.000   0.000   0.000
   19  5 3px        0.35582   0.00000     -0.000  -0.000   0.000
   19  6 3py        0.47019   0.00000     -0.000  -0.000  -0.000
   19  7 3pz        0.18311   0.00000      0.000  -0.000  -0.000
   19  8 3px        0.23896   0.00000      0.000   0.000  -0.000
   19  9 3Pdxy      0.34148   0.00000     -0.000  -0.000  -0.000
   19 10 3Pdyz      0.18830   0.00000     -0.000  -0.000   0.000
   19 11 3Pdz2      0.01599   0.00000      0.000   0.000  -0.000
   19 12 3Pdxz      0.08745   0.00000     -0.000  -0.000   0.000
   19 13 3Pdx2-y2   0.23705   0.00000     -0.000   0.000   0.000
   19     Total     3.45455   0.00000     -0.000   0.000   0.000

   20  1 3s         0.67329   0.00000     -0.000  -0.000  -0.000
   20  2 3s         0.37806   0.00000      0.000   0.000   0.000
   20  3 3py        0.33114   0.00000     -0.000   0.000  -0.000
   20  4 3pz        0.58972   0.00000     -0.000   0.000  -0.000
   20  5 3px        0.13790   0.00000     -0.000   0.000  -0.000
   20  6 3py        0.29223   0.00000      0.000  -0.000   0.000
   20  7 3pz        0.16387   0.00000      0.000   0.000  -0.000
   20  8 3px        0.49984   0.00000      0.000   0.000   0.000
   20  9 3Pdxy      0.10031   0.00000      0.000  -0.000  -0.000
   20 10 3Pdyz      0.13386   0.00000     -0.000   0.000  -0.000
   20 11 3Pdz2      0.00736   0.00000      0.000  -0.000   0.000
   20 12 3Pdxz      0.02697   0.00000      0.000  -0.000   0.000
   20 13 3Pdx2-y2   0.17200   0.00000      0.000   0.000  -0.000
   20     Total     3.50655   0.00000     -0.000   0.000  -0.000

----------------------------------------------------------------
Total              89.07921   0.00000     -0.000   0.000   0.000


Species: H                   

Atom      Orb        Charge      Spin       Svec
----------------------------------------------------------------
   12  1 1s         0.49759   0.00000     -0.000  -0.000  -0.000
   12  2 1s         0.18183   0.00000      0.000   0.000   0.000
   12  3 2Ppy       0.02911   0.00000      0.000   0.000  -0.000
   12  4 2Ppz       0.03424   0.00000      0.000   0.000   0.000
   12  5 2Ppx       0.02281   0.00000     -0.000   0.000  -0.000
   12     Total     0.76557   0.00000     -0.000  -0.000  -0.000

   13  1 1s         1.01881   0.00000      0.000  -0.000  -0.000
   13  2 1s         0.09543   0.00000     -0.000  -0.000   0.000
   13  3 2Ppy       0.01808   0.00000     -0.000  -0.000  -0.000
   13  4 2Ppz       0.02006   0.00000      0.000   0.000   0.000
   13  5 2Ppx       0.03516   0.00000     -0.000   0.000   0.000
   13     Total     1.18754   0.00000      0.000  -0.000  -0.000

   14  1 1s         0.46030   0.00000      0.000   0.000   0.000
   14  2 1s         0.19990   0.00000     -0.000  -0.000   0.000
   14  3 2Ppy       0.01789   0.00000      0.000  -0.000   0.000
   14  4 2Ppz       0.04542   0.00000     -0.000   0.000  -0.000
   14  5 2Ppx       0.01713   0.00000      0.000  -0.000   0.000
   14     Total     0.74065   0.00000      0.000   0.000   0.000

   15  1 1s         0.49887   0.00000      0.000  -0.000  -0.000
   15  2 1s         0.17837   0.00000     -0.000   0.000  -0.000
   15  3 2Ppy       0.00513   0.00000      0.000   0.000  -0.000
   15  4 2Ppz       0.04294   0.00000     -0.000  -0.000  -0.000
   15  5 2Ppx       0.02800   0.00000      0.000  -0.000   0.000
   15     Total     0.75330   0.00000      0.000  -0.000  -0.000

   16  1 1s         0.51016   0.00000     -0.000  -0.000   0.000
   16  2 1s         0.18724   0.00000      0.000   0.000   0.000
   16  3 2Ppy       0.02980   0.00000     -0.000  -0.000  -0.000
   16  4 2Ppz       0.03981   0.00000     -0.000  -0.000  -0.000
   16  5 2Ppx       0.02358   0.00000     -0.000   0.000  -0.000
   16     Total     0.79060   0.00000     -0.000  -0.000   0.000

   24  1 1s         1.06346   0.00000     -0.000  -0.000  -0.000
   24  2 1s         0.07421   0.00000     -0.000   0.000   0.000
   24  3 2Ppy       0.03209   0.00000      0.000   0.000   0.000
   24  4 2Ppz       0.03075   0.00000     -0.000   0.000   0.000
   24  5 2Ppx       0.01729   0.00000      0.000  -0.000  -0.000
   24     Total     1.21780   0.00000     -0.000  -0.000  -0.000

   25  1 1s         1.04324   0.00000      0.000  -0.000  -0.000
   25  2 1s         0.08647   0.00000     -0.000   0.000  -0.000
   25  3 2Ppy       0.01227   0.00000     -0.000  -0.000  -0.000
   25  4 2Ppz       0.01846   0.00000     -0.000   0.000  -0.000
   25  5 2Ppx       0.03571   0.00000     -0.000  -0.000   0.000
   25     Total     1.19615   0.00000      0.000  -0.000  -0.000

   26  1 1s         0.47568   0.00000      0.000  -0.000  -0.000
   26  2 1s         0.19627   0.00000     -0.000   0.000   0.000
   26  3 2Ppy       0.02098   0.00000     -0.000   0.000   0.000
   26  4 2Ppz       0.04907   0.00000     -0.000  -0.000  -0.000
   26  5 2Ppx       0.01607   0.00000      0.000  -0.000   0.000
   26     Total     0.75808   0.00000     -0.000  -0.000  -0.000

   27  1 1s         0.51365   0.00000     -0.000  -0.000  -0.000
   27  2 1s         0.16887   0.00000     -0.000  -0.000  -0.000
   27  3 2Ppy       0.00665   0.00000      0.000  -0.000  -0.000
   27  4 2Ppz       0.03796   0.00000      0.000   0.000  -0.000
   27  5 2Ppx       0.02847   0.00000     -0.000   0.000  -0.000
   27     Total     0.75559   0.00000      0.000  -0.000  -0.000

   29  1 1s         0.48434   0.00000     -0.000   0.000   0.000
   29  2 1s         0.18766   0.00000      0.000   0.000   0.000
   29  3 2Ppy       0.02513   0.00000     -0.000  -0.000  -0.000
   29  4 2Ppz       0.03423   0.00000      0.000  -0.000  -0.000
   29  5 2Ppx       0.02415   0.00000     -0.000   0.000  -0.000
   29     Total     0.75551   0.00000     -0.000  -0.000   0.000

----------------------------------------------------------------
Total              98.00000   0.00000      0.000   0.000   0.000


siesta: Eigenvalues (eV):
ik =     1
  -21.9466  -21.9466  -21.7449  -21.7449  -21.5900  -21.5900  -21.5669  -21.5669  -21.2517  -21.2517
  -20.9699  -20.9699  -20.8609  -20.8609  -19.8560  -19.8560  -19.3791  -19.3791  -19.3698  -19.3698
  -14.7305  -14.7305  -13.9126  -13.9126  -13.3349  -13.3349  -13.2282  -13.2282  -13.1240  -13.1240
  -12.9111  -12.9111  -12.8801  -12.8801  -12.4876  -12.4876  -12.3887  -12.3887  -12.0095  -12.0095
  -11.4886  -11.4886  -10.7894  -10.7894  -10.7837  -10.7837  -10.7351  -10.7351  -10.0724  -10.0724
   -9.5214   -9.5214   -9.2662   -9.2662   -8.8818   -8.8818   -8.7219   -8.7219   -8.6842   -8.6842
   -8.6520   -8.6520   -8.3761   -8.3761   -8.2134   -8.2134   -7.8326   -7.8326   -7.6656   -7.6656
   -7.5241   -7.5241   -7.3685   -7.3685   -7.3104   -7.3104   -6.9236   -6.9236   -6.7226   -6.7226
   -6.5382   -6.5382   -6.4758   -6.4758   -6.1193   -6.1193   -6.0912   -6.0912   -6.0603   -6.0603
   -5.6593   -5.6593   -5.6574   -5.6574   -5.4225   -5.4225   -4.3284   -4.3284   -3.2246   -3.2246
   -2.3354   -2.3354   -2.2823   -2.2823   -2.2663   -2.2663   -1.9077   -1.9077   -1.8812   -1.8812
   -1.8230   -1.8230   -1.7554   -1.7554   -1.5737   -1.5737   -1.5544   -1.5544   -0.9718   -0.9718
   -0.9596   -0.9596   -0.8467   -0.8467   -0.4059   -0.4059   -0.1465   -0.1465    0.0145    0.0145
    0.2730    0.2730    0.4158    0.4158    0.5165    0.5165    0.7210    0.7210    0.7448    0.7448
    0.9674    0.9674    1.2036    1.2036    1.3027    1.3027    1.3773    1.3773    1.4596    1.4596
    1.6587    1.6587    1.8176    1.8176    1.9096    1.9096    2.3310    2.3310    2.7240    2.7240
    2.7290    2.7290    2.8362    2.8362    2.9945    2.9945    3.1312    3.1312    3.3245    3.3245
    3.3635    3.3635    3.7592    3.7592    3.8359    3.8359    4.0986    4.0986    4.2715    4.2715
    4.4339    4.4339    4.5419    4.5419    4.5605    4.5605    4.6014    4.6014    4.8265    4.8265
    4.9571    4.9571    4.9615    4.9615    5.2213    5.2213    5.5127    5.5127    5.6497    5.6497
    5.6919    5.6919    5.8019    5.8019    5.8627    5.8627    5.9365    5.9365    5.9695    5.9695
    6.1861    6.1861    6.3159    6.3159    6.6458    6.6458    6.7129    6.7129    6.8257    6.8257
    7.0602    7.0602    7.1805    7.1805    7.3712    7.3712    7.5038    7.5038    7.7355    7.7355
    7.8123    7.8123    8.0288    8.0288    8.1038    8.1038    8.2203    8.2203    8.2776    8.2776
    8.4960    8.4960    8.6668    8.6668    8.7446    8.7446    8.9493    8.9493    9.2067    9.2067
    9.2091    9.2091    9.2414    9.2414    9.7536    9.7536    9.8043    9.8043    9.8458    9.8458
    9.9840    9.9840   10.1751   10.1751   10.4184   10.4184   10.7159   10.7159   10.8122   10.8122
   10.9053   10.9053   11.0705   11.0705   11.2195   11.2195   11.6899   11.6899   11.8163   11.8163
   11.8815   11.8815   11.9049   11.9049   12.1695   12.1695   12.3634   12.3634   12.5245   12.5245
   12.7118   12.7118   12.7529   12.7529   13.3704   13.3704   13.5134   13.5134   13.7419   13.7419
   13.7579   13.7579   14.0609   14.0609   14.2126   14.2126   14.4181   14.4181   14.8102   14.8102
   14.8726   14.8726   15.3443   15.3443   15.9762   15.9762   16.4067   16.4067   16.6827   16.6827
   16.9354   16.9354   17.3977   17.3977   17.6883   17.6883   18.2047   18.2047   18.3181   18.3181
   18.5637   18.5637   19.1113   19.1113   19.3286   19.3286   19.9327   19.9327   20.2594   20.2594
   20.9002   20.9002   21.3283   21.3283   21.7848   21.7848   22.1953   22.1953   22.4206   22.4206
   23.1082   23.1082   23.2679   23.2679   23.7607   23.7607   23.8224   23.8224   23.8501   23.8501
   24.8161   24.8161   25.1952   25.1952   26.0159   26.0159   26.7737   26.7737   27.3846   27.3846
   28.3723   28.3723   29.0824   29.0824   29.1088   29.1088   29.4971   29.4971   29.5682   29.5682
   30.0375   30.0375   30.1128   30.1128   30.2297   30.2297   30.5936   30.5936   30.7799   30.7799
   31.0088   31.0088   31.1829   31.1829   31.4808   31.4808   31.5985   31.5985   32.2424   32.2424
   32.6809   32.6809   33.8430   33.8430   34.5026   34.5026   34.7158   34.7158   34.9693   34.9693
   34.9903   34.9903   35.1408   35.1408   35.3620   35.3620   35.6500   35.6500   35.8960   35.8960
   36.7460   36.7460   36.7974   36.7974   37.0179   37.0179   37.1927   37.1927   37.5255   37.5255
   38.1638   38.1638   38.2782   38.2782   39.3593   39.3593   39.4553   39.4553   39.8923   39.8923
   40.2325   40.2325   40.5135   40.5135   40.5987   40.5987   40.6644   40.6644   40.9541   40.9541
   41.0629   41.0629   41.4671   41.4671   42.3988   42.3988   42.6339   42.6339   43.0177   43.0177
   43.1411   43.1411   43.7760   43.7760   43.8879   43.8879   44.0294   44.0294   44.2409   44.2409
   44.6673   44.6673   44.7220   44.7220   45.0438   45.0438   45.3485   45.3485   46.1089   46.1089
   46.3681   46.3681   46.8288   46.8288   47.1775   47.1775   48.6317   48.6317   48.9833   48.9833
   49.4525   49.4525   50.3241   50.3241   50.4926   50.4926   50.7244   50.7244   50.9093   50.9093
   51.3634   51.3634   51.5784   51.5784   52.6907   52.6907   52.6996   52.6996   54.1937   54.1937
   54.2882   54.2882   54.5823   54.5823   54.7228   54.7228   55.8129   55.8129   55.8577   55.8577
   55.8811   55.8811   56.0178   56.0178   56.5050   56.5050   57.8435   57.8435   58.2221   58.2221
   58.6592   58.6592   60.1384   60.1384   60.4852   60.4852   60.5805   60.5805   61.1274   61.1274
   61.8285   61.8285   61.9938   61.9938   62.2153   62.2153   64.4715   64.4715   66.4646   66.4646
   67.1411   67.1411   67.2105   67.2105   68.1914   68.1914   68.7594   68.7594   70.8352   70.8352
   74.0554   74.0554   79.9809   79.9809   91.0550   91.0550   91.9153   91.9153   93.3656   93.3656
   98.4448   98.4448   98.7672   98.7672   99.7520   99.7520  103.3923  103.3923  103.8060  103.8060
  110.1022  110.1022  111.6111  111.6111  123.6188  123.6188  125.7123  125.7123  129.9480  129.9480
  135.0120  135.0120  138.3056  138.3056
siesta: Fermi energy =      -3.775637 eV

siesta: Program's energy decomposition (eV):
siesta: Ebs     =     -1134.857486
siesta: Eions   =      3585.165840
siesta: Ena     =       382.019161
siesta: Ekin    =      2902.777716
siesta: Enl     =     -2787.589246
siesta: Eso     =        -0.004282
siesta: Edftu   =         0.000000
siesta: DEna    =        46.998760
siesta: DUscf   =        14.342703
siesta: DUext   =         0.000000
siesta: Exc     =     -1119.562863
siesta: eta*DQ  =         0.000000
siesta: Emadel  =         0.000000
siesta: Emeta   =         0.000000
siesta: Emolmec =         0.000000
siesta: Ekinion =         0.000000
siesta: Eharris =     -4146.183891
siesta: Etot    =     -4146.183891
siesta: FreeEng =     -4146.183891

siesta: Final energy (eV):
siesta:  Band Struct. =   -1134.857486
siesta:       Kinetic =    2902.777716
siesta:       Hartree =    8154.493314
siesta:       Edftu   =       0.000000
siesta:       Eso     =      -0.004282
siesta:    Ext. field =       0.000000
siesta:   Exch.-corr. =   -1119.562863
siesta:  Ion-electron =  -18893.281262
siesta:       Ion-ion =    4809.393487
siesta:       Ekinion =       0.000000
siesta:         Total =   -4146.183891
siesta:         Fermi =      -3.775637

siesta: Atomic forces (eV/Ang):
siesta:      1    2.323377   -3.036137   -0.000000
siesta:      2    0.015508    0.031384    0.000000
siesta:      3    0.784923   -0.421254   -0.000000
siesta:      4    0.772288   -0.016854    0.000000
siesta:      5    0.061313   -0.105153   -0.000000
siesta:      6    1.818273    0.653074   -0.000000
siesta:      7    0.042004   -0.263394   -0.000000
siesta:      8   -0.438457    0.303272    0.000000
siesta:      9   -0.205655    1.314937    0.000000
siesta:     10   -1.092841    0.373646   -0.000000
siesta:     11   -0.025205   -0.019857    0.000000
siesta:     12   -0.313761   -0.310698    0.000000
siesta:     13   -0.014429   -0.043513   -0.000000
siesta:     14    0.201623   -0.052617    0.000000
siesta:     15   -1.333499   -0.965657   -0.000000
siesta:     16   -0.023673    0.199173   -0.000000
siesta:     17    1.069294   -1.150211    0.000000
siesta:     18   -0.225950    0.206444    0.000000
siesta:     19   -0.198759   -1.322282   -0.000000
siesta:     20   -0.012326   -0.439662    0.000000
siesta:     21   -0.333944    1.094088   -0.000000
siesta:     22   -2.229656   -0.865399   -0.000000
siesta:     23    0.276942    0.569678    0.000000
siesta:     24    0.089501   -0.057720   -0.000000
siesta:     25    0.036774    0.053813   -0.000000
siesta:     26   -0.118531   -0.232088    0.000000
siesta:     27    1.751871    1.329513    0.000000
siesta:     28    4.382005   -1.716515   -0.000000
siesta:     29   -0.029543    0.118586    0.000000
siesta: ----------------------------------------
siesta:    Tot    7.029466   -4.771402    0.000000

siesta: Stress tensor (static) (eV/Ang**3):
siesta:     0.000088    0.000811   -0.000000
siesta:     0.000811    0.000995    0.000000
siesta:    -0.000000   -0.000000   -0.000042

siesta: Cell volume =       5671.643323 Ang**3

siesta: Pressure (static):
siesta:                Solid            Molecule  Units
siesta:          -0.00000378         -0.00000786  Ry/Bohr**3
siesta:          -0.00034683         -0.00072180  eV/Ang**3
siesta:          -0.55569362         -1.15646263  kBar
(Free)E+ p_basis*V_orbitals  =       -4126.333473
(Free)Eharris+ p_basis*V_orbitals  =       -4126.333473
     spin moment: S , {S} =    0.00000   0.00000   0.00000   0.00000

siesta: Electric dipole (a.u.)  =    1.534899    0.007581   -0.000000
siesta: Electric dipole (Debye) =    3.901327    0.019268   -0.000000

cite: Please see "GC.bib" for an exhaustive BiBTeX file.
cite: Please clearly indicate Siesta version in published work: v4.1.5-1-g384057250
cite: This calculation has made use of the following articles
cite: which are encouraged to be cited in a published work.
        Primary SIESTA paper
          DOI: www.doi.org/10.1088/0953-8984/14/11/302
        Spin-orbit coupling (on-site approximation)
          DOI: www.doi.org/10.1088/0953-8984/19/19/489001


WARNING: alloc-realloc-dealloc name mismatch
         Name: atomlist isa
         Size:              -116. Bytes
         Node:     0
         Subsequent mismatches will not be reported
>> End of run:  28-JUN-2023  20:46:19
Job completed
