Siesta Version  : v4.1.5-1-g384057250
Architecture    : gcc
Compiler version: GNU Fortran (Ubuntu 11.3.0-1ubuntu1~22.04) 11.3.0
Compiler flags  : mpifort -O2 -fPIC -ftree-vectorize -fallow-argument-mismatch
PP flags        : -DFC_HAVE_ABORT -DMPI -DSIESTA__FLOOK -DSIESTA__METIS -DSIESTA__MUMPS -DCDF -DNCDF -DNCDF_4 -DNCDF_PARALLEL -DSIESTA__MRRR -DSIESTA__ELPA
Libraries       : libncdf.a libfdict.a  -lflookall -ldl -lnetcdff -lnetcdf -lhdf5_hl -lhdf5 -lhdf5_fortran -lz -lscalapack-openmpi -lopenblas -lmetis -lzmumps -lcmumps -ldmumps -lmumps_common -lpord -lsmumps -lesmumps -lscotch -lscotcherr -fopenmp -lelpa
PARALLEL version
NetCDF support
NetCDF-4 support
NetCDF-4 MPI-IO support
METIS ordering support
Lua support

* Running on 4 nodes in parallel
>> Start of run:  28-JUN-2023  20:31:46

                           ***********************       
                           *  WELCOME TO SIESTA  *       
                           ***********************       

reinit: Reading from standard input
reinit: Dumped input in INPUT_TMP.64335
************************** Dump of input data file ****************************
SystemLabel      GC
NumberOfAtoms    29
NumberOfSpecies  4
%block ChemicalSpeciesLabel
    1    8  O
    2    7  N
    3   14  Si
    4    1  H
%endblock ChemicalSpeciesLabel
# Single point calculation
MD.TypeOfRun                CG
MD.Steps                    0
SCF.MustConverge            F # In case it does not. There can be 2 very close atoms
AtomicCoordinatesFormat NotScaledCartesianAng
%block AtomicCoordinatesAndAtomicSpecies
1.043624880    3.939228610    0.000000000       1
-3.040641290   1.071078170    0.000000000       2
2.054601450    1.213582070    0.000000000       2
0.999014100    -1.732643800   0.000000000       2
-2.132351640   -1.812968220   0.000000000       2
3.860190550    -1.112298180   0.000000000       2
-1.236183220   1.152964460    0.000000000       3
-0.532924260   -0.939006270   0.000000000       3
0.635660470    2.374516770    0.000000000       3
2.245170240    -0.549967100   0.000000000       3
-3.449816660   -0.583665030   0.000000000       3
2.963714090    1.790992630    0.000000000       4
-4.845591350   -1.123549660   0.000000000       4
4.007020910    -2.152308560   0.000000000       4
4.772194380    -0.502318160   0.000000000       4
-2.265399090   -2.864605110   0.000000000       4
7.629543690    6.738877737    0.000000000       3
9.534427660    7.945516677    0.000000000       3
9.038673520    3.972542767    0.000000000       3
11.116143810   6.441759927    0.000000000       3
7.689166360    5.021450167    0.000000000       2
6.090408630    7.492555047    0.000000000       2
10.690968780   4.702379987    0.000000000       2
9.725772460    9.437670427    0.000000000       4
12.600511790   6.660490747    0.000000000       4
5.979063350    8.541750157    0.000000000       4
5.157850920    6.867640867    0.000000000       4
9.028446690    2.364431647    0.000000000       1
11.466394660   3.975688427    0.000000000       4
%endblock AtomicCoordinatesAndAtomicSpecies
%include ../../../Defaults.fdf
************************** End of input data file *****************************

reinit: -----------------------------------------------------------------------
reinit: System Name: 
reinit: -----------------------------------------------------------------------
reinit: System Label: GC
reinit: -----------------------------------------------------------------------

initatom: Reading input for the pseudopotentials and atomic orbitals ----------
Species number:   1 Atomic number:    8 Label: O
Species number:   2 Atomic number:    7 Label: N
Species number:   3 Atomic number:   14 Label: Si
Species number:   4 Atomic number:    1 Label: H

Ground state valence configuration:   2s02  2p04
Reading pseudopotential information in formatted form from O.psf

Pseudopotential generated from a relativistic atomic calculation

Valence configuration for pseudopotential generation:
2s( 2.00) rc: 0.45
2p( 4.00) rc: 0.92
3d( 0.00) rc: 2.24
4f( 0.00) rc: 0.25
Ground state valence configuration:   2s02  2p03
Reading pseudopotential information in formatted form from N.psf

Pseudopotential generated from a relativistic atomic calculation

Valence configuration for pseudopotential generation:
2s( 2.00) rc: 0.94
2p( 3.00) rc: 0.59
3d( 0.00) rc: 3.46
4f( 0.00) rc: 2.47
Ground state valence configuration:   3s02  3p02
Reading pseudopotential information in formatted form from Si.psf

Pseudopotential generated from a relativistic atomic calculation

Valence configuration for pseudopotential generation:
3s( 2.00) rc: 1.67
3p( 2.00) rc: 2.04
3d( 0.00) rc: 2.89
4f( 0.00) rc: 2.49
Ground state valence configuration:   1s01
Reading pseudopotential information in formatted form from H.psf

Pseudopotential generated from a relativistic atomic calculation

Valence configuration for pseudopotential generation:
1s( 1.00) rc: 0.01
2p( 0.00) rc: 0.60
3d( 0.00) rc: 1.99
4f( 0.00) rc: 2.49
For O, standard SIESTA heuristics set lmxkb to 3
 (one more than the basis l, including polarization orbitals).
Use PS.lmax or PS.KBprojectors blocks to override.
For N, standard SIESTA heuristics set lmxkb to 3
 (one more than the basis l, including polarization orbitals).
Use PS.lmax or PS.KBprojectors blocks to override.
For Si, standard SIESTA heuristics set lmxkb to 3
 (one more than the basis l, including polarization orbitals).
Use PS.lmax or PS.KBprojectors blocks to override.
For H, standard SIESTA heuristics set lmxkb to 2
 (one more than the basis l, including polarization orbitals).
Use PS.lmax or PS.KBprojectors blocks to override.

<basis_specs>
===============================================================================
O                    Z=   8    Mass=  16.000        Charge= 0.17977+309
Lmxo=1 Lmxkb= 3    BasisType=split      Semic=F
L=0  Nsemic=0  Cnfigmx=2
          i=1  nzeta=2  polorb=0  (2s)
            splnorm:   0.28000    
               vcte:    0.0000    
               rinn:    0.0000    
               qcoe:    0.0000    
               qyuk:    0.0000    
               qwid:   0.10000E-01
                rcs:    0.0000      0.0000    
            lambdas:    1.0000      1.0000    
L=1  Nsemic=0  Cnfigmx=2
          i=1  nzeta=2  polorb=1  (2p)
            splnorm:   0.28000    
               vcte:    0.0000    
               rinn:    0.0000    
               qcoe:    0.0000    
               qyuk:    0.0000    
               qwid:   0.10000E-01
                rcs:    0.0000      0.0000    
            lambdas:    1.0000      1.0000    
-------------------------------------------------------------------------------
L=0  Nkbl=1  erefs: 0.17977+309
L=1  Nkbl=1  erefs: 0.17977+309
L=2  Nkbl=1  erefs: 0.17977+309
L=3  Nkbl=1  erefs: 0.17977+309
===============================================================================
</basis_specs>

atom: Called for O                     (Z =   8)

read_vps: Pseudopotential generation method:
read_vps: ATM4.2.7  Troullier-Martins                       
Valence charge for ps generation:    6.00000

xc_check: Exchange-correlation functional:
xc_check: GGA Perdew, Burke & Ernzerhof 1996
V l=0 = -2*Zval/r beyond r=  1.1000
V l=1 = -2*Zval/r beyond r=  1.1000
V l=2 = -2*Zval/r beyond r=  2.2154
V l=3 = -2*Zval/r beyond r=  1.1000
All V_l potentials equal beyond r=  2.2154
This should be close to max(r_c) in ps generation
All pots = -2*Zval/r beyond r=  2.2154

VLOCAL1: 99.0% of the norm of Vloc inside      8.845 Ry
VLOCAL1: 99.9% of the norm of Vloc inside     20.157 Ry
atom: Maximum radius for 4*pi*r*r*local-pseudopot. charge    2.67231
atom: Maximum radius for r*vlocal+2*Zval:    2.32897
GHOST: No ghost state for L =  0
GHOST: No ghost state for L =  1
GHOST: No ghost state for L =  2
GHOST: No ghost state for L =  3

KBgen: Kleinman-Bylander projectors: 
   l= 0   rc=  2.243238   el= -1.759686   Ekb=**********   kbcos= -0.171774
   l= 1   rc=  2.328968   el= -0.663873   Ekb=-14.506792   kbcos= -0.519897
   l= 2   rc=  2.573941   el=  0.002031   Ekb= -1.137373   kbcos= -0.019581
   l= 3   rc=  2.606321   el=  0.003153   Ekb= -1.013546   kbcos= -0.003122

KBgen: Total number of Kleinman-Bylander projectors:   16
atom: -------------------------------------------------------------------------

atom: SANKEY-TYPE ORBITALS:
atom: Selected multiple-zeta basis: split     

SPLIT: Orbitals with angular momentum L= 0

SPLIT: Basis orbitals for state 2s

SPLIT: PAO cut-off radius determined from an
SPLIT: energy shift=  0.002000 Ry

   izeta = 1
                 lambda =    1.000000
                     rc =    4.243912
                 energy =   -1.758270
                kinetic =    3.286084
    potential(screened) =   -5.044353
       potential(ionic) =  -12.921184

   izeta = 2
                 rmatch =    2.187845
              splitnorm =    0.280000
                 energy =   -0.885018
                kinetic =    8.134434
    potential(screened) =   -9.019452
       potential(ionic) =  -17.710645

SPLIT: Orbitals with angular momentum L= 1

SPLIT: Basis orbitals for state 2p

SPLIT: PAO cut-off radius determined from an
SPLIT: energy shift=  0.002000 Ry

   izeta = 1
                 lambda =    1.000000
                     rc =    5.314825
                 energy =   -0.661986
                kinetic =    4.917472
    potential(screened) =   -5.579458
       potential(ionic) =  -13.236259

   izeta = 2
                 rmatch =    2.160663
              splitnorm =    0.280000
                 energy =   -0.068760
                kinetic =    9.183374
    potential(screened) =   -9.252135
       potential(ionic) =  -18.274251

POLgen: Perturbative polarization orbital with L=  2

POLgen: Polarization orbital for state 2p

   izeta = 1
                     rc =    5.314825
                 energy =    1.970580
                kinetic =    3.886128
    potential(screened) =   -1.915547
       potential(ionic) =   -7.749584
atom: Total number of Sankey-type orbitals: 13

atm_pop: Valence configuration (for local Pseudopot. screening):
 2s( 2.00)                                                            
 2p( 4.00)                                                            
Vna: chval, zval:    6.00000   6.00000

Vna:  Cut-off radius for the neutral-atom potential:   5.314825

atom: _________________________________________________________________________

<basis_specs>
===============================================================================
N                    Z=   7    Mass=  14.010        Charge= 0.17977+309
Lmxo=1 Lmxkb= 3    BasisType=split      Semic=F
L=0  Nsemic=0  Cnfigmx=2
          i=1  nzeta=2  polorb=0  (2s)
            splnorm:   0.28000    
               vcte:    0.0000    
               rinn:    0.0000    
               qcoe:    0.0000    
               qyuk:    0.0000    
               qwid:   0.10000E-01
                rcs:    0.0000      0.0000    
            lambdas:    1.0000      1.0000    
L=1  Nsemic=0  Cnfigmx=2
          i=1  nzeta=2  polorb=1  (2p)
            splnorm:   0.28000    
               vcte:    0.0000    
               rinn:    0.0000    
               qcoe:    0.0000    
               qyuk:    0.0000    
               qwid:   0.10000E-01
                rcs:    0.0000      0.0000    
            lambdas:    1.0000      1.0000    
-------------------------------------------------------------------------------
L=0  Nkbl=1  erefs: 0.17977+309
L=1  Nkbl=1  erefs: 0.17977+309
L=2  Nkbl=1  erefs: 0.17977+309
L=3  Nkbl=1  erefs: 0.17977+309
===============================================================================
</basis_specs>

atom: Called for N                     (Z =   7)

read_vps: Pseudopotential generation method:
read_vps: ATM4.2.7  Troullier-Martins                       
Valence charge for ps generation:    5.00000

xc_check: Exchange-correlation functional:
xc_check: GGA Perdew, Burke & Ernzerhof 1996
V l=0 = -2*Zval/r beyond r=  1.2889
V l=1 = -2*Zval/r beyond r=  1.2889
V l=2 = -2*Zval/r beyond r=  3.4178
V l=3 = -2*Zval/r beyond r=  2.4084
All V_l potentials equal beyond r=  3.3753
This should be close to max(r_c) in ps generation
All pots = -2*Zval/r beyond r=  3.4178

VLOCAL1: 99.0% of the norm of Vloc inside      3.810 Ry
VLOCAL1: 99.9% of the norm of Vloc inside      8.683 Ry
atom: Maximum radius for 4*pi*r*r*local-pseudopot. charge    4.02088
atom: Maximum radius for r*vlocal+2*Zval:    3.54838
GHOST: No ghost state for L =  0
GHOST: No ghost state for L =  1
GHOST: No ghost state for L =  2
GHOST: No ghost state for L =  3

KBgen: Kleinman-Bylander projectors: 
   l= 0   rc=  3.417763   el= -1.365098   Ekb= -4.433130   kbcos= -0.707855
   l= 1   rc=  3.375302   el= -0.521201   Ekb=-13.264039   kbcos= -0.535594
   l= 2   rc=  3.872880   el=  0.001991   Ekb= -0.641094   kbcos= -0.062456
   l= 3   rc=  3.970931   el=  0.003093   Ekb= -0.474517   kbcos= -0.018236

KBgen: Total number of Kleinman-Bylander projectors:   16
atom: -------------------------------------------------------------------------

atom: SANKEY-TYPE ORBITALS:
atom: Selected multiple-zeta basis: split     

SPLIT: Orbitals with angular momentum L= 0

SPLIT: Basis orbitals for state 2s

SPLIT: PAO cut-off radius determined from an
SPLIT: energy shift=  0.002000 Ry

   izeta = 1
                 lambda =    1.000000
                     rc =    4.730425
                 energy =   -1.363399
                kinetic =    1.245246
    potential(screened) =   -2.608645
       potential(ionic) =   -8.121105

   izeta = 2
                 rmatch =    2.531849
              splitnorm =    0.280000
                 energy =   -0.959908
                kinetic =    2.409435
    potential(screened) =   -3.369343
       potential(ionic) =   -9.427975

SPLIT: Orbitals with angular momentum L= 1

SPLIT: Basis orbitals for state 2p

SPLIT: PAO cut-off radius determined from an
SPLIT: energy shift=  0.002000 Ry

   izeta = 1
                 lambda =    1.000000
                     rc =    5.924108
                 energy =   -0.519262
                kinetic =    3.672940
    potential(screened) =   -4.192202
       potential(ionic) =   -9.518354

   izeta = 2
                 rmatch =    2.531849
              splitnorm =    0.280000
                 energy =   -0.104258
                kinetic =    6.807538
    potential(screened) =   -6.911796
       potential(ionic) =  -13.149920

POLgen: Perturbative polarization orbital with L=  2

POLgen: Polarization orbital for state 2p

   izeta = 1
                     rc =    5.924108
                 energy =    1.427508
                kinetic =    2.872379
    potential(screened) =   -1.444871
       potential(ionic) =   -5.563644
atom: Total number of Sankey-type orbitals: 13

atm_pop: Valence configuration (for local Pseudopot. screening):
 2s( 2.00)                                                            
 2p( 3.00)                                                            
Vna: chval, zval:    5.00000   5.00000

Vna:  Cut-off radius for the neutral-atom potential:   5.924108

atom: _________________________________________________________________________

<basis_specs>
===============================================================================
Si                   Z=  14    Mass=  28.090        Charge= 0.17977+309
Lmxo=1 Lmxkb= 3    BasisType=split      Semic=F
L=0  Nsemic=0  Cnfigmx=3
          i=1  nzeta=2  polorb=0  (3s)
            splnorm:   0.28000    
               vcte:    0.0000    
               rinn:    0.0000    
               qcoe:    0.0000    
               qyuk:    0.0000    
               qwid:   0.10000E-01
                rcs:    0.0000      0.0000    
            lambdas:    1.0000      1.0000    
L=1  Nsemic=0  Cnfigmx=3
          i=1  nzeta=2  polorb=1  (3p)
            splnorm:   0.28000    
               vcte:    0.0000    
               rinn:    0.0000    
               qcoe:    0.0000    
               qyuk:    0.0000    
               qwid:   0.10000E-01
                rcs:    0.0000      0.0000    
            lambdas:    1.0000      1.0000    
-------------------------------------------------------------------------------
L=0  Nkbl=1  erefs: 0.17977+309
L=1  Nkbl=1  erefs: 0.17977+309
L=2  Nkbl=1  erefs: 0.17977+309
L=3  Nkbl=1  erefs: 0.17977+309
===============================================================================
</basis_specs>

atom: Called for Si                    (Z =  14)

read_vps: Pseudopotential generation method:
read_vps: ATM4.2.7  Troullier-Martins                       
Valence charge for ps generation:    4.00000

xc_check: Exchange-correlation functional:
xc_check: GGA Perdew, Burke & Ernzerhof 1996
V l=0 = -2*Zval/r beyond r=  2.7826
V l=1 = -2*Zval/r beyond r=  2.7826
V l=2 = -2*Zval/r beyond r=  2.9253
V l=3 = -2*Zval/r beyond r=  2.7826
All V_l potentials equal beyond r=  2.8530
This should be close to max(r_c) in ps generation
All pots = -2*Zval/r beyond r=  2.9253

VLOCAL1: 99.0% of the norm of Vloc inside      5.333 Ry
VLOCAL1: 99.9% of the norm of Vloc inside     12.154 Ry
atom: Maximum radius for 4*pi*r*r*local-pseudopot. charge    3.39869
atom: Maximum radius for r*vlocal+2*Zval:    2.96205
GHOST: No ghost state for L =  0
GHOST: No ghost state for L =  1
GHOST: No ghost state for L =  2
GHOST: No ghost state for L =  3

KBgen: Kleinman-Bylander projectors: 
   l= 0   rc=  3.075247   el= -0.794092   Ekb=  5.879390   kbcos=  0.167461
   l= 1   rc=  3.153101   el= -0.300068   Ekb=  2.642817   kbcos=  0.058301
   l= 2   rc=  3.273594   el=  0.001958   Ekb= -1.185135   kbcos= -0.104411
   l= 3   rc=  3.232927   el=  0.003046   Ekb= -0.497174   kbcos= -0.015889

KBgen: Total number of Kleinman-Bylander projectors:   16
atom: -------------------------------------------------------------------------

atom: SANKEY-TYPE ORBITALS:
atom: Selected multiple-zeta basis: split     

SPLIT: Orbitals with angular momentum L= 0

SPLIT: Basis orbitals for state 3s

SPLIT: PAO cut-off radius determined from an
SPLIT: energy shift=  0.002000 Ry

   izeta = 1
                 lambda =    1.000000
                     rc =    6.429618
                 energy =   -0.792283
                kinetic =    0.525293
    potential(screened) =   -1.317576
       potential(ionic) =   -3.744923

   izeta = 2
                 rmatch =    3.998416
              splitnorm =    0.280000
                 energy =   -0.583081
                kinetic =    1.069570
    potential(screened) =   -1.652651
       potential(ionic) =   -4.235185

SPLIT: Orbitals with angular momentum L= 1

SPLIT: Basis orbitals for state 3p

SPLIT: PAO cut-off radius determined from an
SPLIT: energy shift=  0.002000 Ry

   izeta = 1
                 lambda =    1.000000
                     rc =    8.464845
                 energy =   -0.298236
                kinetic =    0.785360
    potential(screened) =   -1.083596
       potential(ionic) =   -3.273779

   izeta = 2
                 rmatch =    4.587816
              splitnorm =    0.280000
                 energy =   -0.131871
                kinetic =    1.403687
    potential(screened) =   -1.535557
       potential(ionic) =   -4.015310

POLgen: Perturbative polarization orbital with L=  2

POLgen: Polarization orbital for state 3p

   izeta = 1
                     rc =    8.464845
                 energy =    0.321949
                kinetic =    1.055677
    potential(screened) =   -0.733728
       potential(ionic) =   -2.672950
atom: Total number of Sankey-type orbitals: 13

atm_pop: Valence configuration (for local Pseudopot. screening):
 3s( 2.00)                                                            
 3p( 2.00)                                                            
Vna: chval, zval:    4.00000   4.00000

Vna:  Cut-off radius for the neutral-atom potential:   8.464845

atom: _________________________________________________________________________

<basis_specs>
===============================================================================
H                    Z=   1    Mass=  1.0100        Charge= 0.17977+309
Lmxo=0 Lmxkb= 2    BasisType=split      Semic=F
L=0  Nsemic=0  Cnfigmx=1
          i=1  nzeta=2  polorb=1  (1s)
            splnorm:   0.62000    
               vcte:    0.0000    
               rinn:    0.0000    
               qcoe:    0.0000    
               qyuk:    0.0000    
               qwid:   0.10000E-01
                rcs:    0.0000      0.0000    
            lambdas:    1.0000      1.0000    
-------------------------------------------------------------------------------
L=0  Nkbl=1  erefs: 0.17977+309
L=1  Nkbl=1  erefs: 0.17977+309
L=2  Nkbl=1  erefs: 0.17977+309
===============================================================================
</basis_specs>

atom: Called for H                     (Z =   1)

read_vps: Pseudopotential generation method:
read_vps: ATM4.2.7  Troullier-Martins                       
Valence charge for ps generation:    1.00000

xc_check: Exchange-correlation functional:
xc_check: GGA Perdew, Burke & Ernzerhof 1996
V l=0 = -2*Zval/r beyond r=  0.0098
V l=1 = -2*Zval/r beyond r=  0.5817
V l=2 = -2*Zval/r beyond r=  1.9372
All V_l potentials equal beyond r=  1.9372
This should be close to max(r_c) in ps generation
All pots = -2*Zval/r beyond r=  1.9372

VLOCAL1: 99.0% of the norm of Vloc inside     11.567 Ry
VLOCAL1: 99.9% of the norm of Vloc inside     26.362 Ry
atom: Maximum radius for 4*pi*r*r*local-pseudopot. charge    2.25106
atom: Maximum radius for r*vlocal+2*Zval:    1.91306
GHOST: No ghost state for L =  0
GHOST: No ghost state for L =  1
GHOST: No ghost state for L =  2

KBgen: Kleinman-Bylander projectors: 
   l= 0   rc=  2.036604   el= -0.477180   Ekb= -6.081590   kbcos= -0.277285
   l= 1   rc=  2.195416   el=  0.001076   Ekb= -0.926943   kbcos= -0.034643
   l= 2   rc=  2.251056   el=  0.002010   Ekb= -0.130941   kbcos= -0.009788

KBgen: Total number of Kleinman-Bylander projectors:    9
atom: -------------------------------------------------------------------------

atom: SANKEY-TYPE ORBITALS:
atom: Selected multiple-zeta basis: split     

SPLIT: Orbitals with angular momentum L= 0

SPLIT: Basis orbitals for state 1s

SPLIT: PAO cut-off radius determined from an
SPLIT: energy shift=  0.002000 Ry

   izeta = 1
                 lambda =    1.000000
                     rc =    6.518340
                 energy =   -0.475305
                kinetic =    0.912139
    potential(screened) =   -1.387444
       potential(ionic) =   -1.907295

   izeta = 2
                 rmatch =    2.141150
              splitnorm =    0.620000
                 energy =    0.566467
                kinetic =    3.772856
    potential(screened) =   -3.206389
       potential(ionic) =   -3.759093

POLgen: Perturbative polarization orbital with L=  1

POLgen: Polarization orbital for state 1s

   izeta = 1
                     rc =    6.518340
                 energy =    0.533861
                kinetic =    1.121086
    potential(screened) =   -0.587225
       potential(ionic) =   -1.053027
atom: Total number of Sankey-type orbitals:  5

atm_pop: Valence configuration (for local Pseudopot. screening):
 1s( 1.00)                                                            
Vna: chval, zval:    1.00000   1.00000

Vna:  Cut-off radius for the neutral-atom potential:   6.518340

atom: _________________________________________________________________________

prinput: Basis input ----------------------------------------------------------

PAO.BasisType split     

%block ChemicalSpeciesLabel
    1    8 O                       # Species index, atomic number, species label
    2    7 N                       # Species index, atomic number, species label
    3   14 Si                      # Species index, atomic number, species label
    4    1 H                       # Species index, atomic number, species label
%endblock ChemicalSpeciesLabel

%block PAO.Basis                 # Define Basis set
O                     2                    # Species label, number of l-shells
 n=2   0   2                         # n, l, Nzeta 
   4.244      2.188   
   1.000      1.000   
 n=2   1   2 P   1                   # n, l, Nzeta, Polarization, NzetaPol
   5.315      2.161   
   1.000      1.000   
N                     2                    # Species label, number of l-shells
 n=2   0   2                         # n, l, Nzeta 
   4.730      2.532   
   1.000      1.000   
 n=2   1   2 P   1                   # n, l, Nzeta, Polarization, NzetaPol
   5.924      2.532   
   1.000      1.000   
Si                    2                    # Species label, number of l-shells
 n=3   0   2                         # n, l, Nzeta 
   6.430      3.998   
   1.000      1.000   
 n=3   1   2 P   1                   # n, l, Nzeta, Polarization, NzetaPol
   8.465      4.588   
   1.000      1.000   
H                     1                    # Species label, number of l-shells
 n=1   0   2 P   1                   # n, l, Nzeta, Polarization, NzetaPol
   6.518      2.141   
   1.000      1.000   
%endblock PAO.Basis

prinput: ----------------------------------------------------------------------

Dumping basis to NetCDF file O.ion.nc
Dumping basis to NetCDF file N.ion.nc
Dumping basis to NetCDF file Si.ion.nc
Dumping basis to NetCDF file H.ion.nc
coor:   Atomic-coordinates input format  =     Cartesian coordinates
coor:                                          (in Angstroms)

siesta: Atomic coordinates (Bohr) and species
siesta:      1.97217   7.44407   0.00000  1        1
siesta:     -5.74598   2.02405   0.00000  2        2
siesta:      3.88264   2.29334   0.00000  2        3
siesta:      1.88786  -3.27422   0.00000  2        4
siesta:     -4.02956  -3.42601   0.00000  2        5
siesta:      7.29471  -2.10194   0.00000  2        6
siesta:     -2.33605   2.17879   0.00000  3        7
siesta:     -1.00708  -1.77447   0.00000  3        8
siesta:      1.20122   4.48719   0.00000  3        9
siesta:      4.24276  -1.03929   0.00000  3       10
siesta:     -6.51921  -1.10297   0.00000  3       11
siesta:      5.60061   3.38449   0.00000  4       12
siesta:     -9.15684  -2.12320   0.00000  4       13
siesta:      7.57218  -4.06728   0.00000  4       14
siesta:      9.01814  -0.94924   0.00000  4       15
siesta:     -4.28099  -5.41332   0.00000  4       16
siesta:     14.41775  12.73464   0.00000  3       17
siesta:     18.01746  15.01486   0.00000  3       18
siesta:     17.08062   7.50702   0.00000  3       19
siesta:     21.00648  12.17317   0.00000  3       20
siesta:     14.53042   9.48917   0.00000  2       21
siesta:     11.50921  14.15888   0.00000  2       22
siesta:     20.20301   8.88621   0.00000  2       23
siesta:     18.37905  17.83462   0.00000  4       24
siesta:     23.81153  12.58651   0.00000  4       25
siesta:     11.29880  16.14157   0.00000  4       26
siesta:      9.74693  12.97797   0.00000  4       27
siesta:     17.06130   4.46813   0.00000  1       28
siesta:     21.66835   7.51297   0.00000  4       29

siesta: Automatic unit cell vectors (Ang):
siesta:   26.779296    0.000000    0.000000
siesta:    0.000000   21.121086    0.000000
siesta:    0.000000    0.000000    9.854683

siesta: System type = molecule  

initatomlists: Number of atoms, orbitals, and projectors:     29   297   394

siesta: ******************** Simulation parameters ****************************
siesta:
siesta: The following are some of the parameters of the simulation.
siesta: A complete list of the parameters used, including default values,
siesta: can be found in file out.fdf
siesta:
redata: Spin configuration                          = spin-orbit
redata: Number of spin components                   = 8
redata: Time-Reversal Symmetry                      = F
redata: Spin spiral                                 = F
############################################################
This spin-orbit implementation uses a local approximation.
From 4.2 and onwards the full non-local approximation is implemented
You are strongly advised to use >=4.2 versions!
############################################################
redata: Long output                                 =   F
redata: Number of Atomic Species                    =        4
redata: Charge density info will appear in .RHO file
redata: Write Mulliken Pop.                         = Atomic and Orbital charges
redata: Matel table size (NRTAB)                    =     1024
redata: Mesh Cutoff                                 =   340.0000 Ry
redata: Net charge of the system                    =     0.0000 |e|
redata: Min. number of SCF Iter                     =        1
redata: Max. number of SCF Iter                     =      200
redata: SCF mix quantity                            = Hamiltonian
redata: Mix DM or H after convergence               =   F
redata: Recompute H after scf cycle                 =   F
redata: Mix DM in first SCF step                    =   T
redata: Write Pulay info on disk                    =   F
redata: New DM Occupancy tolerance                  = 0.000000000001
redata: No kicks to SCF
redata: DM Mixing Weight for Kicks                  =     0.5000
redata: Require Harris convergence for SCF          =   F
redata: Harris energy tolerance for SCF             =     0.000100 eV
redata: Require DM convergence for SCF              =   T
redata: DM tolerance for SCF                        =     0.000008
redata: Require EDM convergence for SCF             =   F
redata: EDM tolerance for SCF                       =     0.001000 eV
redata: Require H convergence for SCF               =   T
redata: Hamiltonian tolerance for SCF               =     0.000001 eV
redata: Require (free) Energy convergence for SCF   =   F
redata: (free) Energy tolerance for SCF             =     0.000100 eV
redata: Using Saved Data (generic)                  =   F
redata: Use continuation files for DM               =   F
redata: Neglect nonoverlap interactions             =   F
redata: Method of Calculation                       = Diagonalization
redata: Electronic Temperature                      =   299.9978 K
redata: Fix the spin of the system                  =   F
redata: Dynamics option                             = Single-point calculation
mix.SCF: Pulay mixing                            = Pulay
mix.SCF:    Variant                              = stable
mix.SCF:    History steps                        = 6
mix.SCF:    Linear mixing weight                 =     0.250000
mix.SCF:    Mixing weight                        =     0.250000
mix.SCF:    SVD condition                        = 0.1000E-07
mix.SCF:    Restart steps                        = 24
mix.SCF:    Restart save steps                   = 3
mix.SCF: Spin-component mixing                   all
redata: Save all siesta data in one NC              =   F
redata: ***********************************************************************

%block SCF.Mixers
  Pulay
%endblock SCF.Mixers

%block SCF.Mixer.Pulay
  # Mixing method
  method pulay
  variant stable

  # Mixing options
  weight 0.2500
  weight.linear 0.2500
  history 6
  restart 24
  restart.save 3
%endblock SCF.Mixer.Pulay

DM_history_depth set to one: no extrapolation allowed by default for geometry relaxation
Size of DM history Fstack: 1
Total number of electrons:    98.000000
Total ionic charge:    98.000000

* ProcessorY, Blocksize:    2  24


* Orbital distribution balance (max,min):    81    72


Time-reversal symmetry not used.

siesta: k-grid: Number of k-points =     1
siesta: k-grid: Cutoff (effective) =     4.927 Ang
siesta: k-grid: Supercell and displacements
siesta: k-grid:    1   0   0      0.000
siesta: k-grid:    0   1   0      0.000
siesta: k-grid:    0   0   1      0.000

diag: Algorithm                                     = ELPA-1stage
diag: Parallel over k                               =   F
diag: Use parallel 2D distribution                  =   T
diag: Parallel block-size                           = 24
diag: Parallel distribution                         =     2 x     2
diag: Used triangular part                          = Lower
diag: Absolute tolerance                            =  0.100E-15
diag: Orthogonalization factor                      =  0.100E-05
diag: Memory factor                                 =  1.0000


ts: **************************************************************
ts: Save H and S matrices                           =    F
ts: Save DM and EDM matrices                        =    F
ts: Only save the overlap matrix S                  =    F
ts: **************************************************************

************************ Begin: TS CHECKS AND WARNINGS ************************
************************ End: TS CHECKS AND WARNINGS **************************


                     ====================================
                        Single-point calculation
                     ====================================

outcoor: Atomic coordinates (Ang):                          
    1.04362488    3.93922861    0.00000000   1       1  O
   -3.04064129    1.07107817    0.00000000   2       2  N
    2.05460145    1.21358207    0.00000000   2       3  N
    0.99901410   -1.73264380    0.00000000   2       4  N
   -2.13235164   -1.81296822    0.00000000   2       5  N
    3.86019055   -1.11229818    0.00000000   2       6  N
   -1.23618322    1.15296446    0.00000000   3       7  Si
   -0.53292426   -0.93900627    0.00000000   3       8  Si
    0.63566047    2.37451677    0.00000000   3       9  Si
    2.24517024   -0.54996710    0.00000000   3      10  Si
   -3.44981666   -0.58366503    0.00000000   3      11  Si
    2.96371409    1.79099263    0.00000000   4      12  H
   -4.84559135   -1.12354966    0.00000000   4      13  H
    4.00702091   -2.15230856    0.00000000   4      14  H
    4.77219438   -0.50231816    0.00000000   4      15  H
   -2.26539909   -2.86460511    0.00000000   4      16  H
    7.62954369    6.73887774    0.00000000   3      17  Si
    9.53442766    7.94551668    0.00000000   3      18  Si
    9.03867352    3.97254277    0.00000000   3      19  Si
   11.11614381    6.44175993    0.00000000   3      20  Si
    7.68916636    5.02145017    0.00000000   2      21  N
    6.09040863    7.49255505    0.00000000   2      22  N
   10.69096878    4.70237999    0.00000000   2      23  N
    9.72577246    9.43767043    0.00000000   4      24  H
   12.60051179    6.66049075    0.00000000   4      25  H
    5.97906335    8.54175016    0.00000000   4      26  H
    5.15785092    6.86764087    0.00000000   4      27  H
    9.02844669    2.36443165    0.00000000   1      28  O
   11.46639466    3.97568843    0.00000000   4      29  H

outcell: Unit cell vectors (Ang):
       26.779296    0.000000    0.000000
        0.000000   21.121086    0.000000
        0.000000    0.000000    9.854683

outcell: Cell vector modules (Ang)   :   26.779296   21.121086    9.854683
outcell: Cell angles (23,13,12) (deg):     90.0000     90.0000     90.0000
outcell: Cell volume (Ang**3)        :   5573.8859
<dSpData1D:S at geom step 0
  <sparsity:sparsity for geom step 0
    nrows_g=297 nrows=81 sparsity=.1450 nnzs=12789, refcount: 8>
  <dData1D:(new from dSpData1D) n=12789, refcount: 1>
refcount: 1>
new_DM -- step:     1
Initializing Density Matrix...
DM filled with atomic data:
<dSpData2D:DM initialized from atoms
  <sparsity:sparsity for geom step 0
    nrows_g=297 nrows=81 sparsity=.1450 nnzs=12789, refcount: 9>
  <dData2D:DM n=12789 m=8, refcount: 1>
refcount: 1>
     spin moment: S , {S} =   56.00000   0.00000   0.00000  56.00000
No. of atoms with KB's overlaping orbs in proc 0. Max # of overlaps:      29     142

Initializing spin-orbit part of the Hamiltonian
  Adding spin-orbit effects for O 
  Adding spin-orbit effects for N 
  Adding spin-orbit effects for Si
  Adding spin-orbit effects for H 


New grid distribution:   1
           1       1:  150    1:   60    1:   30
           2       1:  150    1:   60   31:   60
           3       1:  150   61:  120    1:   30
           4       1:  150   61:  120   31:   60

InitMesh: MESH =   300 x   240 x   120 =     8640000
InitMesh: (bp) =   150 x   120 x    60 =     1080000
InitMesh: Mesh cutoff (required, used) =   340.000   346.853 Ry
ExtMesh (bp) on 0 =   254 x   164 x   142 =     5915152
New grid distribution:   2
           1      51:  150    1:   34    1:   60
           2       1:   50    1:   35    1:   60
           3      51:  150   35:  120    1:   60
           4       1:   50   36:  120    1:   60
New grid distribution:   3
           1      54:  150    1:   38    1:   60
           2       1:   53    1:   39    1:   60
           3      54:  150   39:  120    1:   60
           4       1:   53   40:  120    1:   60
Setting up quadratic distribution...
ExtMesh (bp) on 0 =   204 x   138 x   172 =     4842144
PhiOnMesh: Number of (b)points on node 0 =               204000
PhiOnMesh: nlist on node 0 =              2465476

stepf: Fermi-Dirac step function

siesta: Program's energy decomposition (eV):
siesta: Ebs     =      -621.934066
siesta: Eions   =      3585.165840
siesta: Ena     =       382.019160
siesta: Ekin    =      3369.874566
siesta: Enl     =     -3298.405907
siesta: Eso     =        -0.003411
siesta: Edftu   =         0.000000
siesta: DEna    =       153.679960
siesta: DUscf   =        81.855034
siesta: DUext   =         0.000000
siesta: Exc     =     -1204.234664
siesta: eta*DQ  =         0.000000
siesta: Emadel  =         0.000000
siesta: Emeta   =         0.000000
siesta: Emolmec =         0.000000
siesta: Ekinion =         0.000000
siesta: Eharris =     -4020.491978
siesta: Etot    =     -4100.381101
siesta: FreeEng =     -4100.382525

        iscf     Eharris(eV)        E_KS(eV)     FreeEng(eV)     dDmax    Ef(eV) dHmax(eV)
   scf:    1    -4020.491978    -4100.381101    -4100.382525  0.964965 -4.904542 21.843252
     spin moment: S , {S} =    2.00725   0.00000   0.00000   2.00725
timer: Routine,Calls,Time,% = IterSCF        1      12.394  17.37
   scf:    2    -4147.149574    -4135.870080    -4135.871810  0.451030 -4.226383 11.760460
     spin moment: S , {S} =    1.98961   0.00000   0.00000   1.98961
   scf:    3    -4107.373006    -4133.371951    -4133.387236  0.421579 -4.335842 11.985647
     spin moment: S , {S} =    2.09326  -0.00000  -0.00000   2.09326
   scf:    4    -4149.654600    -4144.951540    -4144.951541  0.315914 -3.904102  7.129159
     spin moment: S , {S} =    0.00010   0.00000  -0.00000   0.00010
   scf:    5    -4146.292114    -4145.727023    -4145.727023  0.036356 -3.709966  4.548357
     spin moment: S , {S} =    0.00006  -0.00000  -0.00000   0.00006
   scf:    6    -4146.502597    -4146.124302    -4146.124302  0.024358 -3.580044  2.214683
     spin moment: S , {S} =    0.00003  -0.00000   0.00000   0.00003
   scf:    7    -4146.478518    -4146.297867    -4146.297867  0.021477 -3.794881  0.886343
     spin moment: S , {S} =    0.00001  -0.00000  -0.00000   0.00001
   scf:    8    -4146.417632    -4146.355747    -4146.355747  0.012358 -3.724619  0.503992
     spin moment: S , {S} =    0.00000  -0.00000  -0.00000   0.00000
   scf:    9    -4146.394207    -4146.374294    -4146.374294  0.006503 -3.681471  0.380382
     spin moment: S , {S} =    0.00000   0.00000  -0.00000   0.00000
   scf:   10    -4146.425784    -4146.393736    -4146.393736  0.021624 -3.796499  0.231660
     spin moment: S , {S} =    0.00000  -0.00000   0.00000  -0.00000
   scf:   11    -4146.397498    -4146.395616    -4146.395616  0.005653 -3.783286  0.060924
     spin moment: S , {S} =    0.00000   0.00000   0.00000  -0.00000
   scf:   12    -4146.396737    -4146.396190    -4146.396190  0.000966 -3.778695  0.026903
     spin moment: S , {S} =    0.00000   0.00000   0.00000   0.00000
   scf:   13    -4146.396663    -4146.396423    -4146.396423  0.001254 -3.775794  0.017649
     spin moment: S , {S} =    0.00000   0.00000   0.00000  -0.00000
   scf:   14    -4146.396678    -4146.396544    -4146.396544  0.001018 -3.775430  0.010766
     spin moment: S , {S} =    0.00000   0.00000   0.00000  -0.00000
   scf:   15    -4146.396646    -4146.396592    -4146.396592  0.000850 -3.774550  0.008063
     spin moment: S , {S} =    0.00000   0.00000   0.00000   0.00000
   scf:   16    -4146.396664    -4146.396624    -4146.396624  0.000954 -3.776391  0.005509
     spin moment: S , {S} =    0.00000   0.00000   0.00000   0.00000
   scf:   17    -4146.396640    -4146.396631    -4146.396631  0.000409 -3.776351  0.004190
     spin moment: S , {S} =    0.00000   0.00000   0.00000   0.00000
   scf:   18    -4146.396640    -4146.396635    -4146.396635  0.000339 -3.775336  0.002570
     spin moment: S , {S} =    0.00000   0.00000   0.00000   0.00000
   scf:   19    -4146.396640    -4146.396637    -4146.396637  0.000244 -3.775486  0.001713
     spin moment: S , {S} =    0.00000   0.00000   0.00000   0.00000
   scf:   20    -4146.396639    -4146.396638    -4146.396638  0.000180 -3.775491  0.001048
     spin moment: S , {S} =    0.00000  -0.00000   0.00000   0.00000
   scf:   21    -4146.396639    -4146.396639    -4146.396639  0.000173 -3.775465  0.000430
     spin moment: S , {S} =    0.00000   0.00000   0.00000   0.00000
   scf:   22    -4146.396639    -4146.396639    -4146.396639  0.000077 -3.775433  0.000182
     spin moment: S , {S} =    0.00000   0.00000   0.00000   0.00000
   scf:   23    -4146.396639    -4146.396639    -4146.396639  0.000019 -3.775431  0.000132
     spin moment: S , {S} =    0.00000   0.00000   0.00000   0.00000
   scf:   24    -4146.396639    -4146.396639    -4146.396639  0.000007 -3.775434  0.000063
     spin moment: S , {S} =    0.00000   0.00000   0.00000   0.00000
mix: Pulay -- resetting history
   scf:   25    -4146.396639    -4146.396639    -4146.396639  0.000004 -3.775435  0.000036
     spin moment: S , {S} =    0.00000   0.00000   0.00000   0.00000
   scf:   26    -4146.396639    -4146.396639    -4146.396639  0.000002 -3.775435  0.000028
     spin moment: S , {S} =    0.00000   0.00000   0.00000   0.00000
   scf:   27    -4146.396639    -4146.396639    -4146.396639  0.000002 -3.775432  0.000015
     spin moment: S , {S} =    0.00000   0.00000  -0.00000  -0.00000
   scf:   28    -4146.396639    -4146.396639    -4146.396639  0.000001 -3.775431  0.000010
     spin moment: S , {S} =    0.00000  -0.00000   0.00000  -0.00000
   scf:   29    -4146.396639    -4146.396639    -4146.396639  0.000001 -3.775431  0.000006
     spin moment: S , {S} =    0.00000  -0.00000   0.00000  -0.00000
   scf:   30    -4146.396639    -4146.396639    -4146.396639  0.000001 -3.775431  0.000003
     spin moment: S , {S} =    0.00000   0.00000   0.00000  -0.00000
   scf:   31    -4146.396639    -4146.396639    -4146.396639  0.000000 -3.775431  0.000001
     spin moment: S , {S} =    0.00000   0.00000   0.00000  -0.00000
   scf:   32    -4146.396639    -4146.396639    -4146.396639  0.000000 -3.775431  0.000001
     spin moment: S , {S} =    0.00000   0.00000   0.00000  -0.00000

SCF Convergence by DM+H criterion
max |DM_out - DM_in|         :     0.0000001915
max |H_out - H_in|      (eV) :     0.0000008636
SCF cycle converged after 32 iterations

Using DM_out to compute the final energy and forces
No. of atoms with KB's overlaping orbs in proc 0. Max # of overlaps:      29     142

siesta: E_KS(eV) =            -4146.3966

siesta: E_KS - E_eggbox =     -4146.3966
     spin moment: S , {S} =    0.00000   0.00000   0.00000  -0.00000

siesta: Atomic forces (eV/Ang):
     1    2.983082    2.823934   -0.000000
     2   -0.015841    0.081711   -0.000000
     3    0.789288   -0.436356    0.000000
     4    0.767442   -0.015981   -0.000000
     5    0.055777   -0.095375    0.000000
     6    1.826435    0.660251    0.000000
     7    0.041669   -0.262348    0.000000
     8   -0.432891    0.299941    0.000000
     9   -0.202671    1.297299    0.000000
    10   -1.076386    0.370462   -0.000000
    11   -0.024880   -0.019687    0.000000
    12   -0.402413   -0.254725   -0.000000
    13    0.075752   -0.046227   -0.000000
    14    0.225817   -0.062038   -0.000000
    15   -1.344480   -0.923084    0.000000
    16   -0.045627    0.122801   -0.000000
    17    1.055459   -1.139951    0.000000
    18   -0.223635    0.205103    0.000000
    19   -0.187810   -1.303916   -0.000000
    20   -0.012690   -0.434928   -0.000000
    21   -0.301341    1.091217    0.000000
    22   -2.215473   -0.874706   -0.000000
    23    0.256320    0.575396    0.000000
    24    0.120307   -0.140185   -0.000000
    25    0.040062    0.081188   -0.000000
    26   -0.207568   -0.363845    0.000000
    27    1.777383    1.361281   -0.000000
    28   -2.379946    3.018888   -0.000000
    29   -0.071522    0.076646    0.000000
----------------------------------------
   Tot    0.869616    5.692767    0.000000
----------------------------------------
   Max    3.018888
   Res    0.831859    sqrt( Sum f_i^2 / 3N )
----------------------------------------
   Max    3.018888    constrained

Stress tensor Voigt[x,y,z,yz,xz,xy] (kbar):        0.02        1.37       -0.10       -0.00       -0.00        1.33
(Free)E + p*V (eV/cell)    -4147.9015
Target enthalpy (eV/cell)    -4146.3966

mulliken: Atomic and Orbital Populations:

Species: O                   

Atom      Orb        Charge      Spin       Svec
----------------------------------------------------------------
    1  1 2s         1.75019   0.00000      0.000  -0.000  -0.000
    1  2 2s         0.06405   0.00000     -0.000   0.000   0.000
    1  3 2py        1.42626   0.00000      0.000  -0.000  -0.000
    1  4 2pz        1.54400   0.00000     -0.000  -0.000  -0.000
    1  5 2px        1.62493   0.00000     -0.000  -0.000  -0.000
    1  6 2py        0.03861   0.00000     -0.000   0.000   0.000
    1  7 2pz       -0.00600   0.00000      0.000   0.000   0.000
    1  8 2px        0.00642   0.00000      0.000  -0.000   0.000
    1  9 3Pdxy      0.00706   0.00000     -0.000   0.000   0.000
    1 10 3Pdyz      0.00907   0.00000      0.000  -0.000   0.000
    1 11 3Pdz2      0.00160   0.00000     -0.000   0.000  -0.000
    1 12 3Pdxz      0.00038   0.00000     -0.000   0.000   0.000
    1 13 3Pdx2-y2   0.00697   0.00000      0.000  -0.000   0.000
    1     Total     6.47353   0.00000     -0.000  -0.000  -0.000

   28  1 2s         1.74482   0.00000      0.000  -0.000   0.000
   28  2 2s         0.06804   0.00000     -0.000   0.000   0.000
   28  3 2py        1.40847   0.00000     -0.000  -0.000   0.000
   28  4 2pz        1.54293   0.00000      0.000  -0.000   0.000
   28  5 2px        1.64480   0.00000      0.000   0.000  -0.000
   28  6 2py        0.04195   0.00000     -0.000  -0.000   0.000
   28  7 2pz       -0.00400   0.00000     -0.000  -0.000   0.000
   28  8 2px        0.01074   0.00000     -0.000  -0.000   0.000
   28  9 3Pdxy      0.00643   0.00000      0.000  -0.000   0.000
   28 10 3Pdyz      0.00974   0.00000     -0.000   0.000  -0.000
   28 11 3Pdz2      0.00126   0.00000      0.000   0.000  -0.000
   28 12 3Pdxz     -0.00018   0.00000     -0.000  -0.000  -0.000
   28 13 3Pdx2-y2   0.00771   0.00000      0.000  -0.000  -0.000
   28     Total     6.48269   0.00000      0.000  -0.000   0.000

----------------------------------------------------------------
Total              12.95622   0.00000      0.000  -0.000   0.000


Species: N                   

Atom      Orb        Charge      Spin       Svec
----------------------------------------------------------------
    2  1 2s         1.55129   0.00000     -0.000   0.000  -0.000
    2  2 2s         0.08420   0.00000      0.000  -0.000   0.000
    2  3 2py        1.04387   0.00000     -0.000  -0.000  -0.000
    2  4 2pz        1.22417   0.00000      0.000  -0.000  -0.000
    2  5 2px        0.98966   0.00000      0.000  -0.000  -0.000
    2  6 2py        0.18844   0.00000     -0.000  -0.000   0.000
    2  7 2pz        0.05540   0.00000      0.000   0.000   0.000
    2  8 2px        0.19587   0.00000      0.000   0.000   0.000
    2  9 3Pdxy      0.00839   0.00000     -0.000   0.000   0.000
    2 10 3Pdyz      0.01099   0.00000     -0.000  -0.000   0.000
    2 11 3Pdz2      0.00195   0.00000      0.000  -0.000   0.000
    2 12 3Pdxz      0.00758   0.00000      0.000   0.000   0.000
    2 13 3Pdx2-y2   0.00909   0.00000     -0.000   0.000  -0.000
    2     Total     5.37089   0.00000      0.000  -0.000  -0.000

    3  1 2s         1.40084   0.00000     -0.000  -0.000  -0.000
    3  2 2s         0.11632   0.00000      0.000   0.000   0.000
    3  3 2py        0.94161   0.00000     -0.000  -0.000  -0.000
    3  4 2pz        1.54357   0.00000     -0.000   0.000  -0.000
    3  5 2px        1.08211   0.00000      0.000  -0.000  -0.000
    3  6 2py        0.24854   0.00000      0.000   0.000   0.000
    3  7 2pz        0.00722   0.00000      0.000   0.000   0.000
    3  8 2px        0.17843   0.00000      0.000   0.000   0.000
    3  9 3Pdxy      0.00399   0.00000     -0.000  -0.000   0.000
    3 10 3Pdyz      0.00418   0.00000      0.000  -0.000  -0.000
    3 11 3Pdz2      0.00075   0.00000     -0.000  -0.000   0.000
    3 12 3Pdxz      0.00278   0.00000     -0.000   0.000  -0.000
    3 13 3Pdx2-y2   0.00283   0.00000     -0.000  -0.000  -0.000
    3     Total     5.53317   0.00000     -0.000  -0.000  -0.000

    4  1 2s         1.45982   0.00000      0.000  -0.000  -0.000
    4  2 2s         0.11891   0.00000     -0.000   0.000   0.000
    4  3 2py        1.13091   0.00000      0.000  -0.000  -0.000
    4  4 2pz        1.29467   0.00000     -0.000  -0.000  -0.000
    4  5 2px        0.82599   0.00000      0.000   0.000  -0.000
    4  6 2py        0.14953   0.00000     -0.000   0.000   0.000
    4  7 2pz        0.05359   0.00000      0.000  -0.000   0.000
    4  8 2px        0.29227   0.00000     -0.000  -0.000   0.000
    4  9 3Pdxy      0.00869   0.00000     -0.000   0.000   0.000
    4 10 3Pdyz      0.01045   0.00000     -0.000  -0.000   0.000
    4 11 3Pdz2      0.00126   0.00000     -0.000   0.000   0.000
    4 12 3Pdxz      0.00498   0.00000     -0.000  -0.000  -0.000
    4 13 3Pdx2-y2   0.00797   0.00000      0.000  -0.000  -0.000
    4     Total     5.35906   0.00000      0.000  -0.000  -0.000

    5  1 2s         1.37631   0.00000     -0.000  -0.000  -0.000
    5  2 2s         0.12790   0.00000      0.000   0.000   0.000
    5  3 2py        1.02656   0.00000      0.000  -0.000  -0.000
    5  4 2pz        1.50085   0.00000      0.000   0.000  -0.000
    5  5 2px        1.06000   0.00000     -0.000  -0.000  -0.000
    5  6 2py        0.20351   0.00000     -0.000   0.000   0.000
    5  7 2pz        0.01339   0.00000     -0.000  -0.000   0.000
    5  8 2px        0.20097   0.00000      0.000   0.000   0.000
    5  9 3Pdxy      0.00393   0.00000     -0.000   0.000   0.000
    5 10 3Pdyz      0.00241   0.00000      0.000   0.000   0.000
    5 11 3Pdz2      0.00143   0.00000     -0.000  -0.000   0.000
    5 12 3Pdxz      0.00685   0.00000     -0.000   0.000   0.000
    5 13 3Pdx2-y2   0.00560   0.00000     -0.000  -0.000   0.000
    5     Total     5.52971   0.00000      0.000   0.000  -0.000

    6  1 2s         1.26988   0.00000      0.000   0.000  -0.000
    6  2 2s         0.17905   0.00000     -0.000  -0.000   0.000
    6  3 2py        1.07710   0.00000     -0.000   0.000  -0.000
    6  4 2pz        1.57391   0.00000      0.000   0.000  -0.000
    6  5 2px        0.95621   0.00000     -0.000  -0.000  -0.000
    6  6 2py        0.18787   0.00000      0.000  -0.000   0.000
    6  7 2pz        0.02989   0.00000     -0.000  -0.000   0.000
    6  8 2px        0.25549   0.00000     -0.000   0.000   0.000
    6  9 3Pdxy      0.00246   0.00000      0.000   0.000   0.000
    6 10 3Pdyz      0.00016   0.00000      0.000   0.000  -0.000
    6 11 3Pdz2      0.00176   0.00000     -0.000  -0.000   0.000
    6 12 3Pdxz      0.00326   0.00000      0.000   0.000  -0.000
    6 13 3Pdx2-y2   0.00396   0.00000     -0.000  -0.000  -0.000
    6     Total     5.54100   0.00000     -0.000   0.000  -0.000

   21  1 2s         1.42425   0.00000      0.000  -0.000  -0.000
   21  2 2s         0.12797   0.00000     -0.000   0.000   0.000
   21  3 2py        0.87133   0.00000      0.000   0.000  -0.000
   21  4 2pz        1.29459   0.00000      0.000  -0.000   0.000
   21  5 2px        1.15660   0.00000      0.000  -0.000  -0.000
   21  6 2py        0.27557   0.00000     -0.000  -0.000   0.000
   21  7 2pz        0.04893   0.00000     -0.000   0.000   0.000
   21  8 2px        0.16316   0.00000     -0.000  -0.000   0.000
   21  9 3Pdxy      0.00649   0.00000      0.000  -0.000   0.000
   21 10 3Pdyz      0.00507   0.00000      0.000  -0.000  -0.000
   21 11 3Pdz2      0.00017   0.00000     -0.000  -0.000  -0.000
   21 12 3Pdxz      0.00576   0.00000     -0.000   0.000  -0.000
   21 13 3Pdx2-y2   0.00560   0.00000     -0.000   0.000  -0.000
   21     Total     5.38549   0.00000      0.000  -0.000  -0.000

   22  1 2s         1.29417   0.00000      0.000   0.000  -0.000
   22  2 2s         0.16792   0.00000     -0.000  -0.000   0.000
   22  3 2py        1.05572   0.00000     -0.000   0.000   0.000
   22  4 2pz        1.55722   0.00000      0.000   0.000  -0.000
   22  5 2px        0.98278   0.00000      0.000   0.000  -0.000
   22  6 2py        0.19711   0.00000      0.000  -0.000   0.000
   22  7 2pz        0.02829   0.00000     -0.000   0.000   0.000
   22  8 2px        0.23506   0.00000     -0.000  -0.000   0.000
   22  9 3Pdxy      0.00329   0.00000     -0.000  -0.000  -0.000
   22 10 3Pdyz      0.00035   0.00000     -0.000   0.000  -0.000
   22 11 3Pdz2      0.00255   0.00000     -0.000  -0.000   0.000
   22 12 3Pdxz      0.00317   0.00000     -0.000   0.000   0.000
   22 13 3Pdx2-y2   0.00473   0.00000      0.000  -0.000  -0.000
   22     Total     5.53235   0.00000      0.000   0.000  -0.000

   23  1 2s         1.39725   0.00000     -0.000   0.000  -0.000
   23  2 2s         0.11788   0.00000      0.000  -0.000  -0.000
   23  3 2py        1.00689   0.00000      0.000   0.000  -0.000
   23  4 2pz        1.52461   0.00000     -0.000   0.000  -0.000
   23  5 2px        1.06529   0.00000      0.000  -0.000  -0.000
   23  6 2py        0.21148   0.00000     -0.000  -0.000   0.000
   23  7 2pz        0.00499   0.00000      0.000  -0.000   0.000
   23  8 2px        0.19789   0.00000     -0.000   0.000   0.000
   23  9 3Pdxy      0.00529   0.00000      0.000  -0.000   0.000
   23 10 3Pdyz      0.00445   0.00000      0.000   0.000  -0.000
   23 11 3Pdz2      0.00061   0.00000      0.000   0.000   0.000
   23 12 3Pdxz      0.00243   0.00000      0.000   0.000  -0.000
   23 13 3Pdx2-y2   0.00137   0.00000     -0.000  -0.000  -0.000
   23     Total     5.54043   0.00000     -0.000   0.000  -0.000

----------------------------------------------------------------
Total              56.74832   0.00000      0.000  -0.000  -0.000


Species: Si                  

Atom      Orb        Charge      Spin       Svec
----------------------------------------------------------------
    7  1 3s         0.66785   0.00000      0.000   0.000   0.000
    7  2 3s         0.36492   0.00000     -0.000  -0.000   0.000
    7  3 3py        0.48803   0.00000      0.000   0.000   0.000
    7  4 3pz        0.69057   0.00000     -0.000   0.000   0.000
    7  5 3px        0.12499   0.00000      0.000  -0.000  -0.000
    7  6 3py        0.26453   0.00000      0.000  -0.000   0.000
    7  7 3pz        0.25905   0.00000      0.000   0.000   0.000
    7  8 3px        0.43828   0.00000     -0.000   0.000   0.000
    7  9 3Pdxy      0.24561   0.00000     -0.000   0.000   0.000
    7 10 3Pdyz      0.02937   0.00000      0.000  -0.000   0.000
    7 11 3Pdz2      0.01175   0.00000      0.000  -0.000   0.000
    7 12 3Pdxz      0.14561   0.00000     -0.000  -0.000  -0.000
    7 13 3Pdx2-y2   0.11293   0.00000     -0.000  -0.000   0.000
    7     Total     3.84351   0.00000      0.000   0.000   0.000

    8  1 3s         0.65685   0.00000     -0.000  -0.000  -0.000
    8  2 3s         0.36850   0.00000      0.000   0.000   0.000
    8  3 3py        0.38798   0.00000      0.000  -0.000  -0.000
    8  4 3pz        0.52581   0.00000      0.000   0.000   0.000
    8  5 3px       -0.03082   0.00000     -0.000  -0.000   0.000
    8  6 3py        0.30889   0.00000     -0.000   0.000   0.000
    8  7 3pz        0.20193   0.00000      0.000   0.000   0.000
    8  8 3px        0.51465   0.00000      0.000   0.000   0.000
    8  9 3Pdxy      0.24591   0.00000     -0.000  -0.000   0.000
    8 10 3Pdyz      0.11217   0.00000      0.000   0.000  -0.000
    8 11 3Pdz2      0.01453   0.00000      0.000  -0.000   0.000
    8 12 3Pdxz      0.15325   0.00000      0.000   0.000   0.000
    8 13 3Pdx2-y2   0.20022   0.00000      0.000   0.000   0.000
    8     Total     3.65985   0.00000      0.000   0.000   0.000

    9  1 3s         0.60449   0.00000     -0.000  -0.000   0.000
    9  2 3s         0.36623   0.00000      0.000   0.000  -0.000
    9  3 3py        0.07546   0.00000     -0.000  -0.000   0.000
    9  4 3pz        0.48491   0.00000     -0.000  -0.000  -0.000
    9  5 3px        0.37851   0.00000     -0.000  -0.000  -0.000
    9  6 3py        0.44752   0.00000     -0.000   0.000   0.000
    9  7 3pz        0.18735   0.00000      0.000   0.000  -0.000
    9  8 3px        0.27348   0.00000      0.000   0.000   0.000
    9  9 3Pdxy      0.31210   0.00000      0.000   0.000   0.000
    9 10 3Pdyz      0.18995   0.00000      0.000  -0.000  -0.000
    9 11 3Pdz2      0.01642   0.00000      0.000   0.000   0.000
    9 12 3Pdxz      0.09715   0.00000     -0.000   0.000  -0.000
    9 13 3Pdx2-y2   0.17191   0.00000      0.000  -0.000   0.000
    9     Total     3.60548   0.00000     -0.000  -0.000  -0.000

   10  1 3s         0.48309   0.00000     -0.000  -0.000   0.000
   10  2 3s         0.37753   0.00000      0.000   0.000   0.000
   10  3 3py        0.24173   0.00000      0.000   0.000   0.000
   10  4 3pz        0.40906   0.00000     -0.000  -0.000   0.000
   10  5 3px        0.10111   0.00000     -0.000  -0.000   0.000
   10  6 3py        0.32761   0.00000     -0.000  -0.000   0.000
   10  7 3pz        0.22244   0.00000      0.000   0.000   0.000
   10  8 3px        0.42871   0.00000      0.000   0.000   0.000
   10  9 3Pdxy      0.16947   0.00000     -0.000  -0.000   0.000
   10 10 3Pdyz      0.14014   0.00000      0.000  -0.000   0.000
   10 11 3Pdz2      0.01037   0.00000      0.000   0.000   0.000
   10 12 3Pdxz      0.17466   0.00000     -0.000  -0.000   0.000
   10 13 3Pdx2-y2   0.31020   0.00000     -0.000  -0.000   0.000
   10     Total     3.39614   0.00000     -0.000  -0.000   0.000

   11  1 3s         0.55272   0.00000      0.000  -0.000   0.000
   11  2 3s         0.38535   0.00000     -0.000   0.000   0.000
   11  3 3py        0.32164   0.00000     -0.000  -0.000   0.000
   11  4 3pz        0.54015   0.00000     -0.000   0.000   0.000
   11  5 3px        0.12380   0.00000     -0.000   0.000   0.000
   11  6 3py        0.28686   0.00000      0.000   0.000   0.000
   11  7 3pz        0.17757   0.00000      0.000  -0.000   0.000
   11  8 3px        0.44674   0.00000      0.000   0.000   0.000
   11  9 3Pdxy      0.22531   0.00000      0.000   0.000   0.000
   11 10 3Pdyz      0.12624   0.00000     -0.000  -0.000   0.000
   11 11 3Pdz2      0.00957   0.00000     -0.000  -0.000   0.000
   11 12 3Pdxz      0.05271   0.00000      0.000  -0.000   0.000
   11 13 3Pdx2-y2   0.20378   0.00000     -0.000  -0.000   0.000
   11     Total     3.45244   0.00000     -0.000  -0.000   0.000

   17  1 3s         0.63939   0.00000     -0.000   0.000   0.000
   17  2 3s         0.36060   0.00000      0.000  -0.000  -0.000
   17  3 3py        0.22771   0.00000     -0.000  -0.000   0.000
   17  4 3pz        0.42360   0.00000     -0.000  -0.000   0.000
   17  5 3px        0.24486   0.00000      0.000   0.000   0.000
   17  6 3py        0.38768   0.00000     -0.000   0.000  -0.000
   17  7 3pz        0.21124   0.00000     -0.000  -0.000   0.000
   17  8 3px        0.36844   0.00000     -0.000  -0.000  -0.000
   17  9 3Pdxy      0.30192   0.00000      0.000  -0.000   0.000
   17 10 3Pdyz      0.14299   0.00000     -0.000  -0.000   0.000
   17 11 3Pdz2      0.00909   0.00000      0.000   0.000   0.000
   17 12 3Pdxz      0.14328   0.00000      0.000  -0.000   0.000
   17 13 3Pdx2-y2   0.16338   0.00000     -0.000  -0.000   0.000
   17     Total     3.62417   0.00000     -0.000  -0.000   0.000

   18  1 3s         0.74425   0.00000     -0.000   0.000   0.000
   18  2 3s         0.33949   0.00000      0.000   0.000   0.000
   18  3 3py        0.07978   0.00000      0.000   0.000   0.000
   18  4 3pz        0.82243   0.00000     -0.000  -0.000   0.000
   18  5 3px        0.55528   0.00000     -0.000   0.000   0.000
   18  6 3py        0.51779   0.00000     -0.000   0.000   0.000
   18  7 3pz        0.19760   0.00000      0.000   0.000   0.000
   18  8 3px        0.25011   0.00000      0.000  -0.000   0.000
   18  9 3Pdxy      0.10337   0.00000      0.000  -0.000  -0.000
   18 10 3Pdyz      0.02743   0.00000      0.000  -0.000  -0.000
   18 11 3Pdz2      0.00872   0.00000     -0.000   0.000  -0.000
   18 12 3Pdxz      0.03023   0.00000     -0.000  -0.000  -0.000
   18 13 3Pdx2-y2   0.11308   0.00000      0.000   0.000   0.000
   18     Total     3.78956   0.00000     -0.000   0.000   0.000

   19  1 3s         0.45984   0.00000     -0.000   0.000   0.000
   19  2 3s         0.36513   0.00000      0.000  -0.000  -0.000
   19  3 3py        0.08258   0.00000      0.000   0.000   0.000
   19  4 3pz        0.42916   0.00000     -0.000   0.000   0.000
   19  5 3px        0.35646   0.00000      0.000  -0.000   0.000
   19  6 3py        0.47058   0.00000     -0.000   0.000  -0.000
   19  7 3pz        0.18290   0.00000      0.000   0.000  -0.000
   19  8 3px        0.23877   0.00000     -0.000   0.000  -0.000
   19  9 3Pdxy      0.34172   0.00000     -0.000  -0.000  -0.000
   19 10 3Pdyz      0.18835   0.00000      0.000   0.000  -0.000
   19 11 3Pdz2      0.01607   0.00000      0.000  -0.000   0.000
   19 12 3Pdxz      0.08766   0.00000      0.000   0.000   0.000
   19 13 3Pdx2-y2   0.23728   0.00000     -0.000  -0.000   0.000
   19     Total     3.45652   0.00000     -0.000   0.000   0.000

   20  1 3s         0.67331   0.00000     -0.000  -0.000  -0.000
   20  2 3s         0.37805   0.00000      0.000   0.000   0.000
   20  3 3py        0.33106   0.00000     -0.000   0.000  -0.000
   20  4 3pz        0.59002   0.00000      0.000   0.000  -0.000
   20  5 3px        0.13800   0.00000     -0.000  -0.000  -0.000
   20  6 3py        0.29224   0.00000      0.000  -0.000   0.000
   20  7 3pz        0.16381   0.00000      0.000   0.000  -0.000
   20  8 3px        0.49977   0.00000      0.000   0.000   0.000
   20  9 3Pdxy      0.10027   0.00000      0.000  -0.000  -0.000
   20 10 3Pdyz      0.13381   0.00000      0.000  -0.000  -0.000
   20 11 3Pdz2      0.00736   0.00000      0.000  -0.000   0.000
   20 12 3Pdxz      0.02696   0.00000     -0.000  -0.000  -0.000
   20 13 3Pdx2-y2   0.17202   0.00000      0.000  -0.000   0.000
   20     Total     3.50669   0.00000     -0.000   0.000  -0.000

----------------------------------------------------------------
Total              89.08266   0.00000     -0.000   0.000   0.000


Species: H                   

Atom      Orb        Charge      Spin       Svec
----------------------------------------------------------------
   12  1 1s         0.49699   0.00000     -0.000  -0.000  -0.000
   12  2 1s         0.18178   0.00000     -0.000   0.000   0.000
   12  3 2Ppy       0.02909   0.00000     -0.000   0.000  -0.000
   12  4 2Ppz       0.03416   0.00000     -0.000   0.000  -0.000
   12  5 2Ppx       0.02277   0.00000     -0.000  -0.000  -0.000
   12     Total     0.76479   0.00000     -0.000  -0.000  -0.000

   13  1 1s         1.01902   0.00000      0.000   0.000  -0.000
   13  2 1s         0.09541   0.00000     -0.000  -0.000   0.000
   13  3 2Ppy       0.01808   0.00000     -0.000  -0.000   0.000
   13  4 2Ppz       0.02007   0.00000     -0.000  -0.000   0.000
   13  5 2Ppx       0.03516   0.00000      0.000   0.000   0.000
   13     Total     1.18774   0.00000      0.000   0.000  -0.000

   14  1 1s         0.46029   0.00000      0.000  -0.000  -0.000
   14  2 1s         0.19997   0.00000     -0.000   0.000   0.000
   14  3 2Ppy       0.01790   0.00000      0.000  -0.000   0.000
   14  4 2Ppz       0.04542   0.00000      0.000  -0.000   0.000
   14  5 2Ppx       0.01714   0.00000     -0.000   0.000   0.000
   14     Total     0.74071   0.00000      0.000  -0.000  -0.000

   15  1 1s         0.49757   0.00000      0.000  -0.000  -0.000
   15  2 1s         0.17843   0.00000      0.000  -0.000  -0.000
   15  3 2Ppy       0.00510   0.00000     -0.000  -0.000   0.000
   15  4 2Ppz       0.04267   0.00000     -0.000  -0.000  -0.000
   15  5 2Ppx       0.02799   0.00000      0.000   0.000  -0.000
   15     Total     0.75176   0.00000      0.000  -0.000  -0.000

   16  1 1s         0.50984   0.00000     -0.000  -0.000  -0.000
   16  2 1s         0.18721   0.00000      0.000  -0.000   0.000
   16  3 2Ppy       0.02979   0.00000     -0.000  -0.000  -0.000
   16  4 2Ppz       0.03983   0.00000     -0.000  -0.000  -0.000
   16  5 2Ppx       0.02359   0.00000      0.000   0.000  -0.000
   16     Total     0.79027   0.00000     -0.000  -0.000   0.000

   24  1 1s         1.06329   0.00000     -0.000  -0.000  -0.000
   24  2 1s         0.07436   0.00000     -0.000   0.000   0.000
   24  3 2Ppy       0.03210   0.00000      0.000   0.000   0.000
   24  4 2Ppz       0.03073   0.00000     -0.000  -0.000   0.000
   24  5 2Ppx       0.01729   0.00000      0.000  -0.000  -0.000
   24     Total     1.21777   0.00000     -0.000  -0.000  -0.000

   25  1 1s         1.04322   0.00000      0.000  -0.000  -0.000
   25  2 1s         0.08651   0.00000     -0.000   0.000  -0.000
   25  3 2Ppy       0.01227   0.00000     -0.000   0.000  -0.000
   25  4 2Ppz       0.01846   0.00000     -0.000  -0.000  -0.000
   25  5 2Ppx       0.03571   0.00000     -0.000  -0.000   0.000
   25     Total     1.19617   0.00000      0.000  -0.000  -0.000

   26  1 1s         0.47571   0.00000      0.000  -0.000  -0.000
   26  2 1s         0.19633   0.00000     -0.000  -0.000   0.000
   26  3 2Ppy       0.02099   0.00000     -0.000   0.000  -0.000
   26  4 2Ppz       0.04899   0.00000     -0.000  -0.000  -0.000
   26  5 2Ppx       0.01605   0.00000     -0.000  -0.000  -0.000
   26     Total     0.75807   0.00000     -0.000  -0.000  -0.000

   27  1 1s         0.51260   0.00000     -0.000  -0.000  -0.000
   27  2 1s         0.16902   0.00000     -0.000  -0.000  -0.000
   27  3 2Ppy       0.00661   0.00000      0.000  -0.000  -0.000
   27  4 2Ppz       0.03774   0.00000      0.000   0.000  -0.000
   27  5 2Ppx       0.02847   0.00000     -0.000  -0.000  -0.000
   27     Total     0.75443   0.00000      0.000   0.000  -0.000

   29  1 1s         0.48445   0.00000     -0.000   0.000  -0.000
   29  2 1s         0.18764   0.00000      0.000   0.000   0.000
   29  3 2Ppy       0.02513   0.00000     -0.000  -0.000  -0.000
   29  4 2Ppz       0.03427   0.00000      0.000  -0.000  -0.000
   29  5 2Ppx       0.02415   0.00000      0.000   0.000  -0.000
   29     Total     0.75564   0.00000     -0.000  -0.000  -0.000

----------------------------------------------------------------
Total              98.00000   0.00000      0.000   0.000  -0.000


siesta: Eigenvalues (eV):
ik =     1
  -21.9289  -21.9289  -21.7718  -21.7718  -21.5843  -21.5843  -21.5770  -21.5770  -21.2470  -21.2470
  -20.9849  -20.9849  -20.8533  -20.8533  -19.8465  -19.8465  -19.3752  -19.3752  -19.3747  -19.3747
  -14.7330  -14.7330  -13.9043  -13.9043  -13.3349  -13.3349  -13.2154  -13.2154  -13.1189  -13.1189
  -12.8918  -12.8918  -12.8765  -12.8765  -12.4771  -12.4771  -12.3871  -12.3871  -12.0112  -12.0112
  -11.4762  -11.4762  -10.7918  -10.7918  -10.7757  -10.7757  -10.7274  -10.7274  -10.0761  -10.0761
   -9.5250   -9.5250   -9.2581   -9.2581   -8.8770   -8.8770   -8.7182   -8.7182   -8.6726   -8.6726
   -8.6536   -8.6536   -8.3801   -8.3801   -8.2060   -8.2060   -7.8307   -7.8307   -7.6619   -7.6619
   -7.5291   -7.5290   -7.3566   -7.3566   -7.3105   -7.3105   -6.9126   -6.9126   -6.7287   -6.7287
   -6.5327   -6.5327   -6.4825   -6.4825   -6.1144   -6.1144   -6.0925   -6.0925   -6.0693   -6.0693
   -5.6713   -5.6713   -5.6529   -5.6529   -5.4292   -5.4292   -4.3240   -4.3240   -3.2269   -3.2269
   -2.3318   -2.3318   -2.2842   -2.2842   -2.2593   -2.2593   -1.8988   -1.8988   -1.8760   -1.8760
   -1.8245   -1.8245   -1.7591   -1.7591   -1.5624   -1.5624   -1.5566   -1.5566   -0.9665   -0.9665
   -0.9647   -0.9647   -0.8378   -0.8378   -0.3995   -0.3995   -0.1542   -0.1542    0.0215    0.0215
    0.2965    0.2965    0.4213    0.4213    0.5265    0.5265    0.7174    0.7174    0.7550    0.7550
    0.9731    0.9731    1.2184    1.2184    1.2987    1.2987    1.3867    1.3867    1.4569    1.4569
    1.6664    1.6664    1.8196    1.8196    1.9118    1.9118    2.3412    2.3412    2.7288    2.7289
    2.7337    2.7337    2.8350    2.8350    3.0060    3.0060    3.1261    3.1261    3.3235    3.3235
    3.3701    3.3701    3.7663    3.7663    3.8457    3.8457    4.0967    4.0967    4.2810    4.2810
    4.4317    4.4317    4.5294    4.5294    4.5684    4.5684    4.6000    4.6000    4.8342    4.8342
    4.9563    4.9563    4.9716    4.9716    5.2277    5.2277    5.5071    5.5071    5.6581    5.6581
    5.6965    5.6965    5.7926    5.7926    5.8809    5.8809    5.9498    5.9498    5.9739    5.9739
    6.1848    6.1848    6.3216    6.3216    6.6404    6.6404    6.7209    6.7209    6.8214    6.8214
    7.0577    7.0577    7.1858    7.1858    7.3774    7.3774    7.5135    7.5135    7.7394    7.7394
    7.8069    7.8069    8.0268    8.0268    8.1004    8.1004    8.2269    8.2269    8.2723    8.2723
    8.5081    8.5081    8.6717    8.6717    8.7523    8.7523    8.9480    8.9480    9.2041    9.2041
    9.2155    9.2155    9.2485    9.2485    9.7436    9.7436    9.8106    9.8106    9.8454    9.8454
    9.9852    9.9852   10.1720   10.1720   10.4235   10.4235   10.7377   10.7377   10.8227   10.8227
   10.9172   10.9172   11.0767   11.0767   11.2110   11.2110   11.6927   11.6927   11.8284   11.8284
   11.8971   11.8971   11.8994   11.8994   12.1773   12.1773   12.3731   12.3731   12.5296   12.5296
   12.7089   12.7089   12.7474   12.7474   13.3795   13.3795   13.5126   13.5126   13.7386   13.7386
   13.7669   13.7669   14.0565   14.0565   14.2187   14.2187   14.4302   14.4302   14.8160   14.8160
   14.8627   14.8627   15.3401   15.3401   15.9815   15.9815   16.4135   16.4135   16.6807   16.6807
   16.9409   16.9409   17.3992   17.3992   17.6857   17.6857   18.2139   18.2139   18.3245   18.3245
   18.5668   18.5668   19.1050   19.1050   19.3362   19.3362   19.9416   19.9416   20.2574   20.2574
   20.8971   20.8971   21.3257   21.3257   21.7891   21.7891   22.1897   22.1897   22.4302   22.4302
   23.1075   23.1075   23.2762   23.2762   23.7679   23.7679   23.8218   23.8218   23.8619   23.8619
   24.8185   24.8185   25.2000   25.2000   26.0106   26.0106   26.7850   26.7850   27.3982   27.3982
   28.4085   28.4085   29.0934   29.0934   29.1068   29.1068   29.5066   29.5066   29.5693   29.5693
   30.0471   30.0471   30.1280   30.1280   30.2300   30.2300   30.6021   30.6021   30.7911   30.7911
   31.0123   31.0123   31.1739   31.1739   31.4761   31.4761   31.5940   31.5940   32.2503   32.2503
   32.6784   32.6784   33.8539   33.8539   34.5050   34.5050   34.7023   34.7023   34.9539   34.9539
   34.9739   34.9739   35.1194   35.1194   35.3668   35.3668   35.6580   35.6580   35.8854   35.8854
   36.7542   36.7542   36.8119   36.8119   37.0251   37.0251   37.2049   37.2049   37.5445   37.5445
   38.1708   38.1708   38.2914   38.2914   39.3548   39.3548   39.4638   39.4638   39.8889   39.8889
   40.2401   40.2401   40.5224   40.5224   40.5898   40.5898   40.6719   40.6719   40.9579   40.9579
   41.0809   41.0809   41.4717   41.4717   42.3952   42.3952   42.6474   42.6474   43.0133   43.0133
   43.1497   43.1497   43.7724   43.7724   43.8966   43.8966   44.0372   44.0372   44.2409   44.2409
   44.6730   44.6730   44.7179   44.7179   45.0576   45.0576   45.3631   45.3631   46.1028   46.1028
   46.3844   46.3844   46.8366   46.8366   47.1831   47.1831   48.6247   48.6247   48.9983   48.9983
   49.4640   49.4640   50.3184   50.3184   50.5002   50.5002   50.7167   50.7167   50.9148   50.9148
   51.3722   51.3722   51.5677   51.5677   52.6949   52.6949   52.7015   52.7015   54.1991   54.1991
   54.3080   54.3080   54.5346   54.5346   54.7713   54.7713   55.8119   55.8119   55.8654   55.8654
   55.8821   55.8821   56.0311   56.0311   56.5009   56.5009   57.8542   57.8542   58.2330   58.2330
   58.6663   58.6663   60.1484   60.1484   60.4707   60.4707   60.6287   60.6287   61.1276   61.1276
   61.8239   61.8239   62.0076   62.0076   62.2262   62.2262   64.4746   64.4746   66.4601   66.4601
   67.1502   67.1502   67.1957   67.1957   68.1496   68.1496   68.7539   68.7539   70.8368   70.8368
   74.0670   74.0670   79.9769   79.9769   91.0609   91.0609   91.9091   91.9091   93.3572   93.3572
   98.4010   98.4010   98.7014   98.7014   99.6176   99.6176  103.3606  103.3606  103.7703  103.7703
  110.1200  110.1200  111.6175  111.6175  123.6334  123.6334  125.7093  125.7093  129.9669  129.9669
  135.0204  135.0204  138.3313  138.3313
siesta: Fermi energy =      -3.775431 eV

siesta: Program's energy decomposition (eV):
siesta: Ebs     =     -1134.661010
siesta: Eions   =      3585.165840
siesta: Ena     =       382.019160
siesta: Ekin    =      2903.322452
siesta: Enl     =     -2788.101533
siesta: Eso     =        -0.004282
siesta: Edftu   =         0.000000
siesta: DEna    =        47.000196
siesta: DUscf   =        14.342043
siesta: DUext   =         0.000000
siesta: Exc     =     -1119.808836
siesta: eta*DQ  =         0.000000
siesta: Emadel  =         0.000000
siesta: Emeta   =         0.000000
siesta: Emolmec =         0.000000
siesta: Ekinion =         0.000000
siesta: Eharris =     -4146.396639
siesta: Etot    =     -4146.396639
siesta: FreeEng =     -4146.396639

siesta: Final energy (eV):
siesta:  Band Struct. =   -1134.661010
siesta:       Kinetic =    2903.322452
siesta:       Hartree =    8171.817935
siesta:       Edftu   =       0.000000
siesta:       Eso     =      -0.004282
siesta:    Ext. field =       0.000000
siesta:   Exch.-corr. =   -1119.808836
siesta:  Ion-electron =  -18927.976572
siesta:       Ion-ion =    4826.252664
siesta:       Ekinion =       0.000000
siesta:         Total =   -4146.396639
siesta:         Fermi =      -3.775431

siesta: Atomic forces (eV/Ang):
siesta:      1    2.983082    2.823934   -0.000000
siesta:      2   -0.015841    0.081711   -0.000000
siesta:      3    0.789288   -0.436356    0.000000
siesta:      4    0.767442   -0.015981   -0.000000
siesta:      5    0.055777   -0.095375    0.000000
siesta:      6    1.826435    0.660251    0.000000
siesta:      7    0.041669   -0.262348    0.000000
siesta:      8   -0.432891    0.299941    0.000000
siesta:      9   -0.202671    1.297299    0.000000
siesta:     10   -1.076386    0.370462   -0.000000
siesta:     11   -0.024880   -0.019687    0.000000
siesta:     12   -0.402413   -0.254725   -0.000000
siesta:     13    0.075752   -0.046227   -0.000000
siesta:     14    0.225817   -0.062038   -0.000000
siesta:     15   -1.344480   -0.923084    0.000000
siesta:     16   -0.045627    0.122801   -0.000000
siesta:     17    1.055459   -1.139951    0.000000
siesta:     18   -0.223635    0.205103    0.000000
siesta:     19   -0.187810   -1.303916   -0.000000
siesta:     20   -0.012690   -0.434928   -0.000000
siesta:     21   -0.301341    1.091217    0.000000
siesta:     22   -2.215473   -0.874706   -0.000000
siesta:     23    0.256320    0.575396    0.000000
siesta:     24    0.120307   -0.140185   -0.000000
siesta:     25    0.040062    0.081188   -0.000000
siesta:     26   -0.207568   -0.363845    0.000000
siesta:     27    1.777383    1.361281   -0.000000
siesta:     28   -2.379946    3.018888   -0.000000
siesta:     29   -0.071522    0.076646    0.000000
siesta: ----------------------------------------
siesta:    Tot    0.869616    5.692767    0.000000

siesta: Stress tensor (static) (eV/Ang**3):
siesta:     0.000012    0.000833   -0.000000
siesta:     0.000833    0.000858   -0.000000
siesta:    -0.000000   -0.000000   -0.000060

siesta: Cell volume =       5573.885889 Ang**3

siesta: Pressure (static):
siesta:                Solid            Molecule  Units
siesta:          -0.00000294          0.00001313  Ry/Bohr**3
siesta:          -0.00026998          0.00120526  eV/Ang**3
siesta:          -0.43255704          1.93106533  kBar
(Free)E+ p_basis*V_orbitals  =       -4126.546221
(Free)Eharris+ p_basis*V_orbitals  =       -4126.546221
     spin moment: S , {S} =    0.00000   0.00000   0.00000  -0.00000

siesta: Electric dipole (a.u.)  =    1.542451    0.019022    0.000000
siesta: Electric dipole (Debye) =    3.920523    0.048348    0.000000

cite: Please see "GC.bib" for an exhaustive BiBTeX file.
cite: Please clearly indicate Siesta version in published work: v4.1.5-1-g384057250
cite: This calculation has made use of the following articles
cite: which are encouraged to be cited in a published work.
        Primary SIESTA paper
          DOI: www.doi.org/10.1088/0953-8984/14/11/302
        Spin-orbit coupling (on-site approximation)
          DOI: www.doi.org/10.1088/0953-8984/19/19/489001


WARNING: alloc-realloc-dealloc name mismatch
         Name: atomlist isa
         Size:              -116. Bytes
         Node:     0
         Subsequent mismatches will not be reported
>> End of run:  28-JUN-2023  20:36:30
Job completed
