Siesta Version  : v4.1.5-1-g384057250
Architecture    : gcc
Compiler version: GNU Fortran (Debian 10.2.1-6) 10.2.1 20210110
Compiler flags  : mpifort -O2 -fPIC -ftree-vectorize -fallow-argument-mismatch
PP flags        : -DFC_HAVE_ABORT -DMPI -DSIESTA__FLOOK -DSIESTA__METIS -DSIESTA__MUMPS -DCDF -DNCDF -DNCDF_4 -DNCDF_PARALLEL -DSIESTA__MRRR -DSIESTA__ELPA
Libraries       : libncdf.a libfdict.a  -lflookall -ldl -lnetcdff -lnetcdf -lhdf5_hl -lhdf5 -lhdf5_fortran -lz -lscalapack-openmpi -lopenblas -lmetis -lzmumps -lcmumps -ldmumps -lmumps_common -lpord -lsmumps -lesmumps -lscotch -lscotcherr -fopenmp -lelpa
PARALLEL version
NetCDF support
NetCDF-4 support
NetCDF-4 MPI-IO support
METIS ordering support
Lua support

* Running on 6 nodes in parallel
>> Start of run:  22-MAY-2023  10:08:08

                           ***********************       
                           *  WELCOME TO SIESTA  *       
                           ***********************       

reinit: Reading from standard input
reinit: Dumped input in INPUT_TMP.91062
************************** Dump of input data file ****************************
SystemLabel      AT
NumberOfAtoms    30
NumberOfSpecies  4
%block ChemicalSpeciesLabel
    1    1  H
    2    7  N
    3   14  Si
    4    8  O
%endblock ChemicalSpeciesLabel
# Single point calculation
MD.TypeOfRun                CG
MD.Steps                    0
SCF.MustConverge            F # In case it does not. There can be 2 very close atoms
AtomicCoordinatesFormat NotScaledCartesianAng
%block AtomicCoordinatesAndAtomicSpecies
2.582377650    -5.776830440   0.000000000       1
1.654759240    -5.269361980   0.000000000       2
0.063128840    -6.101704590   0.000000000       3
0.119223240    -7.596849500   0.000000000       1
-1.376892050   -5.182603740   0.000000000       2
-0.824371900   -3.460866440   0.000000000       3
-1.170571480   -1.270002100   0.000000000       3
-2.706933680   -0.417515780   0.000000000       2
-2.754569660   0.634858620    0.000000000       1
-3.637675640   -0.909967860   0.000000000       1
0.218091790    -0.234193970   0.000000000       2
1.872004100    -0.697162300   0.000000000       3
2.828001130    0.461464770    0.000000000       1
2.648150080    -2.255024470   0.000000000       2
1.391921380    -3.454727220   0.000000000       3
1.869247353    6.516561951    0.000000000       2
0.541875833    7.726766251    0.000000000       3
1.181877103    9.088084491    0.000000000       1
-1.543870107   7.056234901    0.000000000       3
-3.573432707   8.186351091    0.000000000       3
-3.419196937   9.346581301    0.940305280       1
-4.559367427   7.164430471    0.512613700       1
-3.989647667   8.662576941    -1.366678340      1
-1.477374687   4.782258281    0.000000000       3
-2.516423417   3.589198781    0.000000000       4
0.179616893    4.148283091    0.000000000       2
0.161599523    3.085838261    0.000000000       1
1.803219963    4.745353301    0.000000000       3
2.998236133    3.730928101    0.000000000       4
2.869284723    6.862069051    0.000000000       1
%endblock AtomicCoordinatesAndAtomicSpecies
%include ../../../Defaults.fdf
************************** End of input data file *****************************

reinit: -----------------------------------------------------------------------
reinit: System Name: 
reinit: -----------------------------------------------------------------------
reinit: System Label: AT
reinit: -----------------------------------------------------------------------

initatom: Reading input for the pseudopotentials and atomic orbitals ----------
Species number:   1 Atomic number:    1 Label: H
Species number:   2 Atomic number:    7 Label: N
Species number:   3 Atomic number:   14 Label: Si
Species number:   4 Atomic number:    8 Label: O

Ground state valence configuration:   1s01
Reading pseudopotential information in formatted form from H.psf

Pseudopotential generated from a relativistic atomic calculation

Valence configuration for pseudopotential generation:
1s( 1.00) rc: 0.01
2p( 0.00) rc: 0.60
3d( 0.00) rc: 1.99
4f( 0.00) rc: 2.49
Ground state valence configuration:   2s02  2p03
Reading pseudopotential information in formatted form from N.psf

Pseudopotential generated from a relativistic atomic calculation

Valence configuration for pseudopotential generation:
2s( 2.00) rc: 0.94
2p( 3.00) rc: 0.59
3d( 0.00) rc: 3.46
4f( 0.00) rc: 2.47
Ground state valence configuration:   3s02  3p02
Reading pseudopotential information in formatted form from Si.psf

Pseudopotential generated from a relativistic atomic calculation

Valence configuration for pseudopotential generation:
3s( 2.00) rc: 1.67
3p( 2.00) rc: 2.04
3d( 0.00) rc: 2.89
4f( 0.00) rc: 2.49
Ground state valence configuration:   2s02  2p04
Reading pseudopotential information in formatted form from O.psf

Pseudopotential generated from a relativistic atomic calculation

Valence configuration for pseudopotential generation:
2s( 2.00) rc: 0.45
2p( 4.00) rc: 0.92
3d( 0.00) rc: 2.24
4f( 0.00) rc: 0.25
For H, standard SIESTA heuristics set lmxkb to 2
 (one more than the basis l, including polarization orbitals).
Use PS.lmax or PS.KBprojectors blocks to override.
For N, standard SIESTA heuristics set lmxkb to 3
 (one more than the basis l, including polarization orbitals).
Use PS.lmax or PS.KBprojectors blocks to override.
For Si, standard SIESTA heuristics set lmxkb to 3
 (one more than the basis l, including polarization orbitals).
Use PS.lmax or PS.KBprojectors blocks to override.
For O, standard SIESTA heuristics set lmxkb to 3
 (one more than the basis l, including polarization orbitals).
Use PS.lmax or PS.KBprojectors blocks to override.

<basis_specs>
===============================================================================
H                    Z=   1    Mass=  1.0100        Charge= 0.17977+309
Lmxo=0 Lmxkb= 2    BasisType=split      Semic=F
L=0  Nsemic=0  Cnfigmx=1
          i=1  nzeta=2  polorb=1  (1s)
            splnorm:   0.62000    
               vcte:    0.0000    
               rinn:    0.0000    
               qcoe:    0.0000    
               qyuk:    0.0000    
               qwid:   0.10000E-01
                rcs:    0.0000      0.0000    
            lambdas:    1.0000      1.0000    
-------------------------------------------------------------------------------
L=0  Nkbl=1  erefs: 0.17977+309
L=1  Nkbl=1  erefs: 0.17977+309
L=2  Nkbl=1  erefs: 0.17977+309
===============================================================================
</basis_specs>

atom: Called for H                     (Z =   1)

read_vps: Pseudopotential generation method:
read_vps: ATM4.2.7  Troullier-Martins                       
Valence charge for ps generation:    1.00000

xc_check: Exchange-correlation functional:
xc_check: GGA Perdew, Burke & Ernzerhof 1996
V l=0 = -2*Zval/r beyond r=  0.0098
V l=1 = -2*Zval/r beyond r=  0.5817
V l=2 = -2*Zval/r beyond r=  1.9372
All V_l potentials equal beyond r=  1.9372
This should be close to max(r_c) in ps generation
All pots = -2*Zval/r beyond r=  1.9372

VLOCAL1: 99.0% of the norm of Vloc inside     11.567 Ry
VLOCAL1: 99.9% of the norm of Vloc inside     26.362 Ry
atom: Maximum radius for 4*pi*r*r*local-pseudopot. charge    2.25106
atom: Maximum radius for r*vlocal+2*Zval:    1.91306
GHOST: No ghost state for L =  0
GHOST: No ghost state for L =  1
GHOST: No ghost state for L =  2

KBgen: Kleinman-Bylander projectors: 
   l= 0   rc=  2.036604   el= -0.477180   Ekb= -6.081590   kbcos= -0.277285
   l= 1   rc=  2.195416   el=  0.001076   Ekb= -0.926943   kbcos= -0.034643
   l= 2   rc=  2.251056   el=  0.002010   Ekb= -0.130941   kbcos= -0.009788

KBgen: Total number of Kleinman-Bylander projectors:    9
atom: -------------------------------------------------------------------------

atom: SANKEY-TYPE ORBITALS:
atom: Selected multiple-zeta basis: split     

SPLIT: Orbitals with angular momentum L= 0

SPLIT: Basis orbitals for state 1s

SPLIT: PAO cut-off radius determined from an
SPLIT: energy shift=  0.002000 Ry

   izeta = 1
                 lambda =    1.000000
                     rc =    6.518340
                 energy =   -0.475305
                kinetic =    0.912139
    potential(screened) =   -1.387444
       potential(ionic) =   -1.907295

   izeta = 2
                 rmatch =    2.141150
              splitnorm =    0.620000
                 energy =    0.566467
                kinetic =    3.772856
    potential(screened) =   -3.206389
       potential(ionic) =   -3.759093

POLgen: Perturbative polarization orbital with L=  1

POLgen: Polarization orbital for state 1s

   izeta = 1
                     rc =    6.518340
                 energy =    0.533861
                kinetic =    1.121086
    potential(screened) =   -0.587225
       potential(ionic) =   -1.053027
atom: Total number of Sankey-type orbitals:  5

atm_pop: Valence configuration (for local Pseudopot. screening):
 1s( 1.00)                                                            
Vna: chval, zval:    1.00000   1.00000

Vna:  Cut-off radius for the neutral-atom potential:   6.518340

atom: _________________________________________________________________________

<basis_specs>
===============================================================================
N                    Z=   7    Mass=  14.010        Charge= 0.17977+309
Lmxo=1 Lmxkb= 3    BasisType=split      Semic=F
L=0  Nsemic=0  Cnfigmx=2
          i=1  nzeta=2  polorb=0  (2s)
            splnorm:   0.28000    
               vcte:    0.0000    
               rinn:    0.0000    
               qcoe:    0.0000    
               qyuk:    0.0000    
               qwid:   0.10000E-01
                rcs:    0.0000      0.0000    
            lambdas:    1.0000      1.0000    
L=1  Nsemic=0  Cnfigmx=2
          i=1  nzeta=2  polorb=1  (2p)
            splnorm:   0.28000    
               vcte:    0.0000    
               rinn:    0.0000    
               qcoe:    0.0000    
               qyuk:    0.0000    
               qwid:   0.10000E-01
                rcs:    0.0000      0.0000    
            lambdas:    1.0000      1.0000    
-------------------------------------------------------------------------------
L=0  Nkbl=1  erefs: 0.17977+309
L=1  Nkbl=1  erefs: 0.17977+309
L=2  Nkbl=1  erefs: 0.17977+309
L=3  Nkbl=1  erefs: 0.17977+309
===============================================================================
</basis_specs>

atom: Called for N                     (Z =   7)

read_vps: Pseudopotential generation method:
read_vps: ATM4.2.7  Troullier-Martins                       
Valence charge for ps generation:    5.00000

xc_check: Exchange-correlation functional:
xc_check: GGA Perdew, Burke & Ernzerhof 1996
V l=0 = -2*Zval/r beyond r=  1.2889
V l=1 = -2*Zval/r beyond r=  1.2889
V l=2 = -2*Zval/r beyond r=  3.4178
V l=3 = -2*Zval/r beyond r=  2.4084
All V_l potentials equal beyond r=  3.3753
This should be close to max(r_c) in ps generation
All pots = -2*Zval/r beyond r=  3.4178

VLOCAL1: 99.0% of the norm of Vloc inside      3.810 Ry
VLOCAL1: 99.9% of the norm of Vloc inside      8.683 Ry
atom: Maximum radius for 4*pi*r*r*local-pseudopot. charge    4.02088
atom: Maximum radius for r*vlocal+2*Zval:    3.54838
GHOST: No ghost state for L =  0
GHOST: No ghost state for L =  1
GHOST: No ghost state for L =  2
GHOST: No ghost state for L =  3

KBgen: Kleinman-Bylander projectors: 
   l= 0   rc=  3.417763   el= -1.365098   Ekb= -4.433130   kbcos= -0.707855
   l= 1   rc=  3.375302   el= -0.521201   Ekb=-13.264039   kbcos= -0.535594
   l= 2   rc=  3.872880   el=  0.001991   Ekb= -0.641094   kbcos= -0.062456
   l= 3   rc=  3.970931   el=  0.003093   Ekb= -0.474517   kbcos= -0.018236

KBgen: Total number of Kleinman-Bylander projectors:   16
atom: -------------------------------------------------------------------------

atom: SANKEY-TYPE ORBITALS:
atom: Selected multiple-zeta basis: split     

SPLIT: Orbitals with angular momentum L= 0

SPLIT: Basis orbitals for state 2s

SPLIT: PAO cut-off radius determined from an
SPLIT: energy shift=  0.002000 Ry

   izeta = 1
                 lambda =    1.000000
                     rc =    4.730425
                 energy =   -1.363399
                kinetic =    1.245246
    potential(screened) =   -2.608645
       potential(ionic) =   -8.121105

   izeta = 2
                 rmatch =    2.531849
              splitnorm =    0.280000
                 energy =   -0.959908
                kinetic =    2.409435
    potential(screened) =   -3.369343
       potential(ionic) =   -9.427975

SPLIT: Orbitals with angular momentum L= 1

SPLIT: Basis orbitals for state 2p

SPLIT: PAO cut-off radius determined from an
SPLIT: energy shift=  0.002000 Ry

   izeta = 1
                 lambda =    1.000000
                     rc =    5.924108
                 energy =   -0.519262
                kinetic =    3.672940
    potential(screened) =   -4.192202
       potential(ionic) =   -9.518354

   izeta = 2
                 rmatch =    2.531849
              splitnorm =    0.280000
                 energy =   -0.104258
                kinetic =    6.807538
    potential(screened) =   -6.911796
       potential(ionic) =  -13.149920

POLgen: Perturbative polarization orbital with L=  2

POLgen: Polarization orbital for state 2p

   izeta = 1
                     rc =    5.924108
                 energy =    1.427508
                kinetic =    2.872379
    potential(screened) =   -1.444871
       potential(ionic) =   -5.563644
atom: Total number of Sankey-type orbitals: 13

atm_pop: Valence configuration (for local Pseudopot. screening):
 2s( 2.00)                                                            
 2p( 3.00)                                                            
Vna: chval, zval:    5.00000   5.00000

Vna:  Cut-off radius for the neutral-atom potential:   5.924108

atom: _________________________________________________________________________

<basis_specs>
===============================================================================
Si                   Z=  14    Mass=  28.090        Charge= 0.17977+309
Lmxo=1 Lmxkb= 3    BasisType=split      Semic=F
L=0  Nsemic=0  Cnfigmx=3
          i=1  nzeta=2  polorb=0  (3s)
            splnorm:   0.28000    
               vcte:    0.0000    
               rinn:    0.0000    
               qcoe:    0.0000    
               qyuk:    0.0000    
               qwid:   0.10000E-01
                rcs:    0.0000      0.0000    
            lambdas:    1.0000      1.0000    
L=1  Nsemic=0  Cnfigmx=3
          i=1  nzeta=2  polorb=1  (3p)
            splnorm:   0.28000    
               vcte:    0.0000    
               rinn:    0.0000    
               qcoe:    0.0000    
               qyuk:    0.0000    
               qwid:   0.10000E-01
                rcs:    0.0000      0.0000    
            lambdas:    1.0000      1.0000    
-------------------------------------------------------------------------------
L=0  Nkbl=1  erefs: 0.17977+309
L=1  Nkbl=1  erefs: 0.17977+309
L=2  Nkbl=1  erefs: 0.17977+309
L=3  Nkbl=1  erefs: 0.17977+309
===============================================================================
</basis_specs>

atom: Called for Si                    (Z =  14)

read_vps: Pseudopotential generation method:
read_vps: ATM4.2.7  Troullier-Martins                       
Valence charge for ps generation:    4.00000

xc_check: Exchange-correlation functional:
xc_check: GGA Perdew, Burke & Ernzerhof 1996
V l=0 = -2*Zval/r beyond r=  2.7826
V l=1 = -2*Zval/r beyond r=  2.7826
V l=2 = -2*Zval/r beyond r=  2.9253
V l=3 = -2*Zval/r beyond r=  2.7826
All V_l potentials equal beyond r=  2.8530
This should be close to max(r_c) in ps generation
All pots = -2*Zval/r beyond r=  2.9253

VLOCAL1: 99.0% of the norm of Vloc inside      5.333 Ry
VLOCAL1: 99.9% of the norm of Vloc inside     12.154 Ry
atom: Maximum radius for 4*pi*r*r*local-pseudopot. charge    3.39869
atom: Maximum radius for r*vlocal+2*Zval:    2.96205
GHOST: No ghost state for L =  0
GHOST: No ghost state for L =  1
GHOST: No ghost state for L =  2
GHOST: No ghost state for L =  3

KBgen: Kleinman-Bylander projectors: 
   l= 0   rc=  3.075247   el= -0.794092   Ekb=  5.879390   kbcos=  0.167461
   l= 1   rc=  3.153101   el= -0.300068   Ekb=  2.642817   kbcos=  0.058301
   l= 2   rc=  3.273594   el=  0.001958   Ekb= -1.185135   kbcos= -0.104411
   l= 3   rc=  3.232927   el=  0.003046   Ekb= -0.497174   kbcos= -0.015889

KBgen: Total number of Kleinman-Bylander projectors:   16
atom: -------------------------------------------------------------------------

atom: SANKEY-TYPE ORBITALS:
atom: Selected multiple-zeta basis: split     

SPLIT: Orbitals with angular momentum L= 0

SPLIT: Basis orbitals for state 3s

SPLIT: PAO cut-off radius determined from an
SPLIT: energy shift=  0.002000 Ry

   izeta = 1
                 lambda =    1.000000
                     rc =    6.429618
                 energy =   -0.792283
                kinetic =    0.525293
    potential(screened) =   -1.317576
       potential(ionic) =   -3.744923

   izeta = 2
                 rmatch =    3.998416
              splitnorm =    0.280000
                 energy =   -0.583081
                kinetic =    1.069570
    potential(screened) =   -1.652651
       potential(ionic) =   -4.235185

SPLIT: Orbitals with angular momentum L= 1

SPLIT: Basis orbitals for state 3p

SPLIT: PAO cut-off radius determined from an
SPLIT: energy shift=  0.002000 Ry

   izeta = 1
                 lambda =    1.000000
                     rc =    8.464845
                 energy =   -0.298236
                kinetic =    0.785360
    potential(screened) =   -1.083596
       potential(ionic) =   -3.273779

   izeta = 2
                 rmatch =    4.587816
              splitnorm =    0.280000
                 energy =   -0.131871
                kinetic =    1.403687
    potential(screened) =   -1.535557
       potential(ionic) =   -4.015310

POLgen: Perturbative polarization orbital with L=  2

POLgen: Polarization orbital for state 3p

   izeta = 1
                     rc =    8.464845
                 energy =    0.321949
                kinetic =    1.055677
    potential(screened) =   -0.733728
       potential(ionic) =   -2.672950
atom: Total number of Sankey-type orbitals: 13

atm_pop: Valence configuration (for local Pseudopot. screening):
 3s( 2.00)                                                            
 3p( 2.00)                                                            
Vna: chval, zval:    4.00000   4.00000

Vna:  Cut-off radius for the neutral-atom potential:   8.464845

atom: _________________________________________________________________________

<basis_specs>
===============================================================================
O                    Z=   8    Mass=  16.000        Charge= 0.17977+309
Lmxo=1 Lmxkb= 3    BasisType=split      Semic=F
L=0  Nsemic=0  Cnfigmx=2
          i=1  nzeta=2  polorb=0  (2s)
            splnorm:   0.28000    
               vcte:    0.0000    
               rinn:    0.0000    
               qcoe:    0.0000    
               qyuk:    0.0000    
               qwid:   0.10000E-01
                rcs:    0.0000      0.0000    
            lambdas:    1.0000      1.0000    
L=1  Nsemic=0  Cnfigmx=2
          i=1  nzeta=2  polorb=1  (2p)
            splnorm:   0.28000    
               vcte:    0.0000    
               rinn:    0.0000    
               qcoe:    0.0000    
               qyuk:    0.0000    
               qwid:   0.10000E-01
                rcs:    0.0000      0.0000    
            lambdas:    1.0000      1.0000    
-------------------------------------------------------------------------------
L=0  Nkbl=1  erefs: 0.17977+309
L=1  Nkbl=1  erefs: 0.17977+309
L=2  Nkbl=1  erefs: 0.17977+309
L=3  Nkbl=1  erefs: 0.17977+309
===============================================================================
</basis_specs>

atom: Called for O                     (Z =   8)

read_vps: Pseudopotential generation method:
read_vps: ATM4.2.7  Troullier-Martins                       
Valence charge for ps generation:    6.00000

xc_check: Exchange-correlation functional:
xc_check: GGA Perdew, Burke & Ernzerhof 1996
V l=0 = -2*Zval/r beyond r=  1.1000
V l=1 = -2*Zval/r beyond r=  1.1000
V l=2 = -2*Zval/r beyond r=  2.2154
V l=3 = -2*Zval/r beyond r=  1.1000
All V_l potentials equal beyond r=  2.2154
This should be close to max(r_c) in ps generation
All pots = -2*Zval/r beyond r=  2.2154

VLOCAL1: 99.0% of the norm of Vloc inside      8.845 Ry
VLOCAL1: 99.9% of the norm of Vloc inside     20.157 Ry
atom: Maximum radius for 4*pi*r*r*local-pseudopot. charge    2.67231
atom: Maximum radius for r*vlocal+2*Zval:    2.32897
GHOST: No ghost state for L =  0
GHOST: No ghost state for L =  1
GHOST: No ghost state for L =  2
GHOST: No ghost state for L =  3

KBgen: Kleinman-Bylander projectors: 
   l= 0   rc=  2.243238   el= -1.759686   Ekb=**********   kbcos= -0.171774
   l= 1   rc=  2.328968   el= -0.663873   Ekb=-14.506792   kbcos= -0.519897
   l= 2   rc=  2.573941   el=  0.002031   Ekb= -1.137373   kbcos= -0.019581
   l= 3   rc=  2.606321   el=  0.003153   Ekb= -1.013546   kbcos= -0.003122

KBgen: Total number of Kleinman-Bylander projectors:   16
atom: -------------------------------------------------------------------------

atom: SANKEY-TYPE ORBITALS:
atom: Selected multiple-zeta basis: split     

SPLIT: Orbitals with angular momentum L= 0

SPLIT: Basis orbitals for state 2s

SPLIT: PAO cut-off radius determined from an
SPLIT: energy shift=  0.002000 Ry

   izeta = 1
                 lambda =    1.000000
                     rc =    4.243912
                 energy =   -1.758270
                kinetic =    3.286084
    potential(screened) =   -5.044353
       potential(ionic) =  -12.921184

   izeta = 2
                 rmatch =    2.187845
              splitnorm =    0.280000
                 energy =   -0.885018
                kinetic =    8.134434
    potential(screened) =   -9.019452
       potential(ionic) =  -17.710645

SPLIT: Orbitals with angular momentum L= 1

SPLIT: Basis orbitals for state 2p

SPLIT: PAO cut-off radius determined from an
SPLIT: energy shift=  0.002000 Ry

   izeta = 1
                 lambda =    1.000000
                     rc =    5.314825
                 energy =   -0.661986
                kinetic =    4.917472
    potential(screened) =   -5.579458
       potential(ionic) =  -13.236259

   izeta = 2
                 rmatch =    2.160663
              splitnorm =    0.280000
                 energy =   -0.068760
                kinetic =    9.183374
    potential(screened) =   -9.252135
       potential(ionic) =  -18.274251

POLgen: Perturbative polarization orbital with L=  2

POLgen: Polarization orbital for state 2p

   izeta = 1
                     rc =    5.314825
                 energy =    1.970580
                kinetic =    3.886128
    potential(screened) =   -1.915547
       potential(ionic) =   -7.749584
atom: Total number of Sankey-type orbitals: 13

atm_pop: Valence configuration (for local Pseudopot. screening):
 2s( 2.00)                                                            
 2p( 4.00)                                                            
Vna: chval, zval:    6.00000   6.00000

Vna:  Cut-off radius for the neutral-atom potential:   5.314825

atom: _________________________________________________________________________

prinput: Basis input ----------------------------------------------------------

PAO.BasisType split     

%block ChemicalSpeciesLabel
    1    1 H                       # Species index, atomic number, species label
    2    7 N                       # Species index, atomic number, species label
    3   14 Si                      # Species index, atomic number, species label
    4    8 O                       # Species index, atomic number, species label
%endblock ChemicalSpeciesLabel

%block PAO.Basis                 # Define Basis set
H                     1                    # Species label, number of l-shells
 n=1   0   2 P   1                   # n, l, Nzeta, Polarization, NzetaPol
   6.518      2.141   
   1.000      1.000   
N                     2                    # Species label, number of l-shells
 n=2   0   2                         # n, l, Nzeta 
   4.730      2.532   
   1.000      1.000   
 n=2   1   2 P   1                   # n, l, Nzeta, Polarization, NzetaPol
   5.924      2.532   
   1.000      1.000   
Si                    2                    # Species label, number of l-shells
 n=3   0   2                         # n, l, Nzeta 
   6.430      3.998   
   1.000      1.000   
 n=3   1   2 P   1                   # n, l, Nzeta, Polarization, NzetaPol
   8.465      4.588   
   1.000      1.000   
O                     2                    # Species label, number of l-shells
 n=2   0   2                         # n, l, Nzeta 
   4.244      2.188   
   1.000      1.000   
 n=2   1   2 P   1                   # n, l, Nzeta, Polarization, NzetaPol
   5.315      2.161   
   1.000      1.000   
%endblock PAO.Basis

prinput: ----------------------------------------------------------------------

Dumping basis to NetCDF file H.ion.nc
Dumping basis to NetCDF file N.ion.nc
Dumping basis to NetCDF file Si.ion.nc
Dumping basis to NetCDF file O.ion.nc
coor:   Atomic-coordinates input format  =     Cartesian coordinates
coor:                                          (in Angstroms)

siesta: Atomic coordinates (Bohr) and species
siesta:      4.87999 -10.91663   0.00000  1        1
siesta:      3.12704  -9.95765   0.00000  2        2
siesta:      0.11930 -11.53056   0.00000  3        3
siesta:      0.22530 -14.35597   0.00000  1        4
siesta:     -2.60195  -9.79371   0.00000  2        5
siesta:     -1.55784  -6.54009   0.00000  3        6
siesta:     -2.21206  -2.39996   0.00000  3        7
siesta:     -5.11537  -0.78899   0.00000  2        8
siesta:     -5.20538   1.19971   0.00000  1        9
siesta:     -6.87421  -1.71959   0.00000  1       10
siesta:      0.41213  -0.44256   0.00000  2       11
siesta:      3.53758  -1.31745   0.00000  3       12
siesta:      5.34415   0.87204   0.00000  1       13
siesta:      5.00428  -4.26138   0.00000  2       14
siesta:      2.63035  -6.52849   0.00000  3       15
siesta:      3.53237  12.31452   0.00000  2       16
siesta:      1.02400  14.60148   0.00000  3       17
siesta:      2.23342  17.17400   0.00000  1       18
siesta:     -2.91749  13.33436   0.00000  3       19
siesta:     -6.75281  15.46997   0.00000  3       20
siesta:     -6.46135  17.66249   1.77692  1       21
siesta:     -8.61596  13.53882   0.96870  1       22
siesta:     -7.53934  16.36990  -2.58265  1       23
siesta:     -2.79183   9.03716   0.00000  3       24
siesta:     -4.75535   6.78261   0.00000  4       25
siesta:      0.33943   7.83912   0.00000  2       26
siesta:      0.30538   5.83139   0.00000  1       27
siesta:      3.40759   8.96742   0.00000  3       28
siesta:      5.66585   7.05044   0.00000  4       29
siesta:      5.42216  12.96744   0.00000  1       30

siesta: Automatic unit cell vectors (Ang):
siesta:   15.844664    0.000000    0.000000
siesta:    0.000000   26.226357    0.000000
siesta:    0.000000    0.000000   10.224979

siesta: System type = molecule  

initatomlists: Number of atoms, orbitals, and projectors:     30   302   403

siesta: ******************** Simulation parameters ****************************
siesta:
siesta: The following are some of the parameters of the simulation.
siesta: A complete list of the parameters used, including default values,
siesta: can be found in file out.fdf
siesta:
redata: Spin configuration                          = spin-orbit
redata: Number of spin components                   = 8
redata: Time-Reversal Symmetry                      = F
redata: Spin spiral                                 = F
############################################################
This spin-orbit implementation uses a local approximation.
From 4.2 and onwards the full non-local approximation is implemented
You are strongly advised to use >=4.2 versions!
############################################################
redata: Long output                                 =   F
redata: Number of Atomic Species                    =        4
redata: Charge density info will appear in .RHO file
redata: Write Mulliken Pop.                         = Atomic and Orbital charges
redata: Matel table size (NRTAB)                    =     1024
redata: Mesh Cutoff                                 =   340.0000 Ry
redata: Net charge of the system                    =     0.0000 |e|
redata: Min. number of SCF Iter                     =        1
redata: Max. number of SCF Iter                     =      200
redata: SCF mix quantity                            = Hamiltonian
redata: Mix DM or H after convergence               =   F
redata: Recompute H after scf cycle                 =   F
redata: Mix DM in first SCF step                    =   T
redata: Write Pulay info on disk                    =   F
redata: New DM Occupancy tolerance                  = 0.000000000001
redata: No kicks to SCF
redata: DM Mixing Weight for Kicks                  =     0.5000
redata: Require Harris convergence for SCF          =   F
redata: Harris energy tolerance for SCF             =     0.000100 eV
redata: Require DM convergence for SCF              =   T
redata: DM tolerance for SCF                        =     0.000008
redata: Require EDM convergence for SCF             =   F
redata: EDM tolerance for SCF                       =     0.001000 eV
redata: Require H convergence for SCF               =   T
redata: Hamiltonian tolerance for SCF               =     0.000001 eV
redata: Require (free) Energy convergence for SCF   =   F
redata: (free) Energy tolerance for SCF             =     0.000100 eV
redata: Using Saved Data (generic)                  =   F
redata: Use continuation files for DM               =   F
redata: Neglect nonoverlap interactions             =   F
redata: Method of Calculation                       = Diagonalization
redata: Electronic Temperature                      =   299.9978 K
redata: Fix the spin of the system                  =   F
redata: Dynamics option                             = Single-point calculation
mix.SCF: Pulay mixing                            = Pulay
mix.SCF:    Variant                              = stable
mix.SCF:    History steps                        = 6
mix.SCF:    Linear mixing weight                 =     0.250000
mix.SCF:    Mixing weight                        =     0.250000
mix.SCF:    SVD condition                        = 0.1000E-07
mix.SCF:    Restart steps                        = 24
mix.SCF:    Restart save steps                   = 3
mix.SCF: Spin-component mixing                   all
redata: Save all siesta data in one NC              =   F
redata: ***********************************************************************

%block SCF.Mixers
  Pulay
%endblock SCF.Mixers

%block SCF.Mixer.Pulay
  # Mixing method
  method pulay
  variant stable

  # Mixing options
  weight 0.2500
  weight.linear 0.2500
  history 6
  restart 24
  restart.save 3
%endblock SCF.Mixer.Pulay

DM_history_depth set to one: no extrapolation allowed by default for geometry relaxation
Size of DM history Fstack: 1
Total number of electrons:    98.000000
Total ionic charge:    98.000000

* ProcessorY, Blocksize:    2  24


* Orbital distribution balance (max,min):    62    48


Time-reversal symmetry not used.

siesta: k-grid: Number of k-points =     1
siesta: k-grid: Cutoff (effective) =     5.112 Ang
siesta: k-grid: Supercell and displacements
siesta: k-grid:    1   0   0      0.000
siesta: k-grid:    0   1   0      0.000
siesta: k-grid:    0   0   1      0.000

diag: Algorithm                                     = ELPA-1stage
diag: Parallel over k                               =   F
diag: Use parallel 2D distribution                  =   T
diag: Parallel block-size                           = 24
diag: Parallel distribution                         =     2 x     3
diag: Used triangular part                          = Lower
diag: Absolute tolerance                            =  0.100E-15
diag: Orthogonalization factor                      =  0.100E-05
diag: Memory factor                                 =  1.0000


ts: **************************************************************
ts: Save H and S matrices                           =    F
ts: Save DM and EDM matrices                        =    F
ts: Only save the overlap matrix S                  =    F
ts: **************************************************************

************************ Begin: TS CHECKS AND WARNINGS ************************
************************ End: TS CHECKS AND WARNINGS **************************


                     ====================================
                        Single-point calculation
                     ====================================

outcoor: Atomic coordinates (Ang):                          
    2.58237765   -5.77683044    0.00000000   1       1  H
    1.65475924   -5.26936198    0.00000000   2       2  N
    0.06312884   -6.10170459    0.00000000   3       3  Si
    0.11922324   -7.59684950    0.00000000   1       4  H
   -1.37689205   -5.18260374    0.00000000   2       5  N
   -0.82437190   -3.46086644    0.00000000   3       6  Si
   -1.17057148   -1.27000210    0.00000000   3       7  Si
   -2.70693368   -0.41751578    0.00000000   2       8  N
   -2.75456966    0.63485862    0.00000000   1       9  H
   -3.63767564   -0.90996786    0.00000000   1      10  H
    0.21809179   -0.23419397    0.00000000   2      11  N
    1.87200410   -0.69716230    0.00000000   3      12  Si
    2.82800113    0.46146477    0.00000000   1      13  H
    2.64815008   -2.25502447    0.00000000   2      14  N
    1.39192138   -3.45472722    0.00000000   3      15  Si
    1.86924735    6.51656195    0.00000000   2      16  N
    0.54187583    7.72676625    0.00000000   3      17  Si
    1.18187710    9.08808449    0.00000000   1      18  H
   -1.54387011    7.05623490    0.00000000   3      19  Si
   -3.57343271    8.18635109    0.00000000   3      20  Si
   -3.41919694    9.34658130    0.94030528   1      21  H
   -4.55936743    7.16443047    0.51261370   1      22  H
   -3.98964767    8.66257694   -1.36667834   1      23  H
   -1.47737469    4.78225828    0.00000000   3      24  Si
   -2.51642342    3.58919878    0.00000000   4      25  O
    0.17961689    4.14828309    0.00000000   2      26  N
    0.16159952    3.08583826    0.00000000   1      27  H
    1.80321996    4.74535330    0.00000000   3      28  Si
    2.99823613    3.73092810    0.00000000   4      29  O
    2.86928472    6.86206905    0.00000000   1      30  H

outcell: Unit cell vectors (Ang):
       15.844664    0.000000    0.000000
        0.000000   26.226357    0.000000
        0.000000    0.000000   10.224979

outcell: Cell vector modules (Ang)   :   15.844664   26.226357   10.224979
outcell: Cell angles (23,13,12) (deg):     90.0000     90.0000     90.0000
outcell: Cell volume (Ang**3)        :   4248.9677
<dSpData1D:S at geom step 0
  <sparsity:sparsity for geom step 0
    nrows_g=302 nrows=62 sparsity=.1275 nnzs=11625, refcount: 8>
  <dData1D:(new from dSpData1D) n=11625, refcount: 1>
refcount: 1>
new_DM -- step:     1
Initializing Density Matrix...
DM filled with atomic data:
<dSpData2D:DM initialized from atoms
  <sparsity:sparsity for geom step 0
    nrows_g=302 nrows=62 sparsity=.1275 nnzs=11625, refcount: 9>
  <dData2D:DM n=11625 m=8, refcount: 1>
refcount: 1>
     spin moment: S , {S} =   56.00000   0.00000   0.00000  56.00000
No. of atoms with KB's overlaping orbs in proc 0. Max # of overlaps:      24     176

Initializing spin-orbit part of the Hamiltonian
  Adding spin-orbit effects for H 
  Adding spin-orbit effects for N 
  Adding spin-orbit effects for Si
  Adding spin-orbit effects for O 


New grid distribution:   1
           1       1:   90    1:   75    1:   20
           2       1:   90    1:   75   21:   40
           3       1:   90    1:   75   41:   60
           4       1:   90   76:  150    1:   20
           5       1:   90   76:  150   21:   40
           6       1:   90   76:  150   41:   60

InitMesh: MESH =   180 x   300 x   120 =     6480000
InitMesh: (bp) =    90 x   150 x    60 =      810000
InitMesh: Mesh cutoff (required, used) =   340.000   356.682 Ry
ExtMesh (bp) on 0 =   194 x   179 x   128 =     4444928
New grid distribution:   2
           1      14:   90   30:   49    1:   60
           2       1:   12   50:  150    1:   60
           3       1:   13    1:   49    1:   60
           4      13:   90   50:  129    1:   60
           5      14:   90    1:   29    1:   60
           6      13:   90  130:  150    1:   60
New grid distribution:   3
           1       1:   18   57:  150    1:   60
           2      23:   90   33:   56    1:   60
           3       1:   22    1:   56    1:   60
           4      19:   90   57:  122    1:   60
           5      23:   90    1:   32    1:   60
           6      19:   90  123:  150    1:   60
Setting up quadratic distribution...
ExtMesh (bp) on 0 =   181 x   124 x   168 =     3770592
PhiOnMesh: Number of (b)points on node 0 =                92400
PhiOnMesh: nlist on node 0 =              1746420

stepf: Fermi-Dirac step function

siesta: Program's energy decomposition (eV):
siesta: Ebs     =      -623.705381
siesta: Eions   =      3553.971015
siesta: Ena     =       377.791006
siesta: Ekin    =      3181.231922
siesta: Enl     =     -2996.476380
siesta: Eso     =        -0.003913
siesta: Edftu   =         0.000000
siesta: DEna    =       130.252708
siesta: DUscf   =        75.973679
siesta: DUext   =         0.000000
siesta: Exc     =     -1170.900325
siesta: eta*DQ  =         0.000000
siesta: Emadel  =         0.000000
siesta: Emeta   =         0.000000
siesta: Emolmec =         0.000000
siesta: Ekinion =         0.000000
siesta: Eharris =     -3884.439809
siesta: Etot    =     -3956.102317
siesta: FreeEng =     -3956.106518

        iscf     Eharris(eV)        E_KS(eV)     FreeEng(eV)     dDmax    Ef(eV) dHmax(eV)
   scf:    1    -3884.439809    -3956.102317    -3956.106518  0.971339 -4.940785 21.403084
     spin moment: S , {S} =    2.03171   0.00003   0.00001   2.03171
timer: Routine,Calls,Time,% = IterSCF        1       5.556  21.65
   scf:    2    -3999.236484    -3990.113676    -3990.113678  0.456847 -4.352081 10.406592
     spin moment: S , {S} =    2.00010  -0.00001   0.00004   2.00010
   scf:    3    -3989.134174    -3994.513595    -3994.543442  0.416778 -4.245515  7.934422
     spin moment: S , {S} =    0.51058   0.00001   0.00000   0.51058
   scf:    4    -4000.021356    -3997.715089    -3997.715089  0.085323 -3.942469  5.267315
     spin moment: S , {S} =    0.00009   0.00001  -0.00000   0.00009
   scf:    5    -3999.160699    -3998.478463    -3998.478463  0.031527 -3.870039  2.763455
     spin moment: S , {S} =    0.00005   0.00000  -0.00000   0.00005
   scf:    6    -3999.079182    -3998.785007    -3998.785007  0.025321 -3.891144  1.417957
     spin moment: S , {S} =    0.00002   0.00000  -0.00000   0.00002
   scf:    7    -3999.059230    -3998.916951    -3998.916952  0.019761 -3.938471  0.585510
     spin moment: S , {S} =    0.00001   0.00000  -0.00000   0.00001
   scf:    8    -3998.999888    -3998.956811    -3998.956817  0.009766 -3.968118  0.302263
     spin moment: S , {S} =    0.00001   0.00000  -0.00000  -0.00001
   scf:    9    -3998.995799    -3998.975221    -3998.975247  0.007326 -3.981447  0.177585
     spin moment: S , {S} =    0.00005   0.00000  -0.00000  -0.00005
   scf:   10    -3999.004418    -3998.987912    -3998.988029  0.010895 -3.989190  0.090344
     spin moment: S , {S} =    0.00026   0.00000   0.00000  -0.00026
   scf:   11    -3998.992433    -3998.989999    -3998.990121  0.004695 -3.985157  0.039171
     spin moment: S , {S} =    0.00008   0.00000   0.00000  -0.00008
   scf:   12    -3998.991488    -3998.990696    -3998.990824  0.002546 -3.984380  0.032062
     spin moment: S , {S} =    0.00003   0.00000   0.00000  -0.00003
   scf:   13    -3998.991576    -3998.991104    -3998.991232  0.002188 -3.983481  0.026218
     spin moment: S , {S} =    0.00001   0.00000   0.00000  -0.00001
   scf:   14    -3998.991916    -3998.991449    -3998.991576  0.003020 -3.982687  0.014618
     spin moment: S , {S} =    0.00001   0.00000   0.00000  -0.00001
   scf:   15    -3998.991654    -3998.991535    -3998.991662  0.001615 -3.982494  0.008354
     spin moment: S , {S} =    0.00001   0.00000   0.00000  -0.00001
   scf:   16    -3998.991591    -3998.991559    -3998.991685  0.000884 -3.982713  0.004025
     spin moment: S , {S} =    0.00001   0.00000   0.00000  -0.00001
   scf:   17    -3998.991575    -3998.991566    -3998.991692  0.000516 -3.982857  0.002638
     spin moment: S , {S} =    0.00000   0.00000   0.00000  -0.00000
   scf:   18    -3998.991570    -3998.991568    -3998.991694  0.000251 -3.982949  0.001470
     spin moment: S , {S} =    0.00000   0.00000   0.00000  -0.00000
   scf:   19    -3998.991570    -3998.991569    -3998.991694  0.000129 -3.982947  0.000982
     spin moment: S , {S} =    0.00000   0.00000   0.00000   0.00000
   scf:   20    -3998.991570    -3998.991569    -3998.991695  0.000141 -3.982930  0.000474
     spin moment: S , {S} =    0.00000   0.00000   0.00000   0.00000
   scf:   21    -3998.991570    -3998.991570    -3998.991695  0.000093 -3.982921  0.000380
     spin moment: S , {S} =    0.00000   0.00000   0.00000   0.00000
   scf:   22    -3998.991570    -3998.991570    -3998.991695  0.000037 -3.982930  0.000266
     spin moment: S , {S} =    0.00000   0.00000   0.00000   0.00000
   scf:   23    -3998.991570    -3998.991570    -3998.991695  0.000018 -3.982942  0.000171
     spin moment: S , {S} =    0.00000   0.00000   0.00000  -0.00000
   scf:   24    -3998.991570    -3998.991570    -3998.991695  0.000011 -3.982946  0.000126
     spin moment: S , {S} =    0.00000   0.00000   0.00000  -0.00000
mix: Pulay -- resetting history
   scf:   25    -3998.991570    -3998.991570    -3998.991695  0.000014 -3.982945  0.000061
     spin moment: S , {S} =    0.00000   0.00000   0.00000  -0.00000
   scf:   26    -3998.991570    -3998.991570    -3998.991695  0.000008 -3.982942  0.000020
     spin moment: S , {S} =    0.00000   0.00000   0.00000  -0.00000
   scf:   27    -3998.991570    -3998.991570    -3998.991695  0.000002 -3.982942  0.000008
     spin moment: S , {S} =    0.00000   0.00000   0.00000  -0.00000
   scf:   28    -3998.991570    -3998.991570    -3998.991695  0.000001 -3.982941  0.000005
     spin moment: S , {S} =    0.00000  -0.00000   0.00000  -0.00000
   scf:   29    -3998.991570    -3998.991570    -3998.991695  0.000000 -3.982941  0.000003
     spin moment: S , {S} =    0.00000  -0.00000   0.00000  -0.00000
   scf:   30    -3998.991570    -3998.991570    -3998.991695  0.000000 -3.982941  0.000002
     spin moment: S , {S} =    0.00000  -0.00000   0.00000  -0.00000
   scf:   31    -3998.991570    -3998.991570    -3998.991695  0.000000 -3.982941  0.000002
     spin moment: S , {S} =    0.00000  -0.00000   0.00000  -0.00000
   scf:   32    -3998.991570    -3998.991570    -3998.991695  0.000000 -3.982941  0.000001
     spin moment: S , {S} =    0.00000  -0.00000   0.00000  -0.00000
   scf:   33    -3998.991570    -3998.991570    -3998.991695  0.000000 -3.982941  0.000001
     spin moment: S , {S} =    0.00000  -0.00000   0.00000  -0.00000

SCF Convergence by DM+H criterion
max |DM_out - DM_in|         :     0.0000000856
max |H_out - H_in|      (eV) :     0.0000005935
SCF cycle converged after 33 iterations

Using DM_out to compute the final energy and forces
No. of atoms with KB's overlaping orbs in proc 0. Max # of overlaps:      24     176

siesta: E_KS(eV) =            -3998.9916

siesta: E_KS - E_eggbox =     -3998.9916
     spin moment: S , {S} =    0.00000  -0.00000   0.00000  -0.00000

siesta: Atomic forces (eV/Ang):
     1   -0.059740    0.042054    0.000002
     2   -0.005725   -0.053751   -0.000003
     3    0.001397    0.044061    0.000003
     4   -0.052865   -0.037798    0.000002
     5    0.012167   -0.050744   -0.000004
     6    0.050559    0.005362    0.000005
     7   -0.229391    0.143087    0.000020
     8    0.115239   -0.105092   -0.000086
     9    0.028735    0.095135    0.000145
    10    0.094686    0.061889    0.000015
    11   -0.014820    0.055741   -0.000026
    12    0.151345    0.096751   -0.000004
    13   -0.109184   -0.119582   -0.000002
    14   -0.033899   -0.037809    0.000004
    15   -0.000487    0.061345   -0.000003
    16    0.017141    0.092468    0.008004
    17    0.011431   -0.059157   -0.039864
    18   -0.120444    0.073334    0.008314
    19   -0.020592    0.024182   -0.041238
    20    0.041839   -0.047003    0.026160
    21   -0.223065    0.210616    0.051016
    22   -0.133544    0.080910    0.021292
    23    0.084383    0.009087   -0.048893
    24    0.152309   -0.102033   -0.026557
    25   -2.259239   -1.194680    0.003035
    26   -0.068999    0.114175    0.006568
    27    0.051261   -0.264608    0.002819
    28   -0.057292   -0.146760   -0.000865
    29   -0.700057    1.738631   -0.001124
    30    0.053267    0.157854    0.008245
----------------------------------------
   Tot   -3.223583    0.887664   -0.023018
----------------------------------------
   Max    2.259239
   Res    0.343226    sqrt( Sum f_i^2 / 3N )
----------------------------------------
   Max    2.259239    constrained

Stress tensor Voigt[x,y,z,yz,xz,xy] (kbar):       -1.78       -0.26       -0.23       -0.05        0.05        0.29
(Free)E + p*V (eV/cell)    -3996.9875
Target enthalpy (eV/cell)    -3998.9917

mulliken: Atomic and Orbital Populations:

Species: H                   

Atom      Orb        Charge      Spin       Svec
----------------------------------------------------------------
    1  1 1s         0.50934   0.00000      0.000   0.000  -0.000
    1  2 1s         0.18798   0.00000      0.000  -0.000  -0.000
    1  3 2Ppy       0.02802   0.00000     -0.000  -0.000   0.000
    1  4 2Ppz       0.04005   0.00000     -0.000  -0.000  -0.000
    1  5 2Ppx       0.02512   0.00000     -0.000  -0.000  -0.000
    1     Total     0.79050   0.00000      0.000  -0.000  -0.000

    4  1 1s         1.02422   0.00000      0.000   0.000   0.000
    4  2 1s         0.09511   0.00000     -0.000   0.000  -0.000
    4  3 2Ppy       0.03898   0.00000     -0.000   0.000   0.000
    4  4 2Ppz       0.01998   0.00000      0.000   0.000  -0.000
    4  5 2Ppx       0.01356   0.00000      0.000   0.000  -0.000
    4     Total     1.19186   0.00000      0.000   0.000   0.000

    9  1 1s         0.47010   0.00000      0.000  -0.000  -0.000
    9  2 1s         0.19615   0.00000     -0.000  -0.000  -0.000
    9  3 2Ppy       0.03051   0.00000      0.000  -0.000  -0.000
    9  4 2Ppz       0.04640   0.00000     -0.000   0.000  -0.000
    9  5 2Ppx       0.01136   0.00000     -0.000  -0.000  -0.000
    9     Total     0.75452   0.00000      0.000  -0.000  -0.000

   10  1 1s         0.48449   0.00000     -0.000  -0.000  -0.000
   10  2 1s         0.19566   0.00000     -0.000   0.000  -0.000
   10  3 2Ppy       0.00704   0.00000     -0.000   0.000  -0.000
   10  4 2Ppz       0.05308   0.00000     -0.000   0.000   0.000
   10  5 2Ppx       0.02944   0.00000     -0.000   0.000  -0.000
   10     Total     0.76972   0.00000     -0.000  -0.000  -0.000

   13  1 1s         0.99515   0.00000     -0.000   0.000   0.000
   13  2 1s         0.10190   0.00000      0.000  -0.000  -0.000
   13  3 2Ppy       0.02883   0.00000      0.000   0.000  -0.000
   13  4 2Ppz       0.01407   0.00000     -0.000  -0.000  -0.000
   13  5 2Ppx       0.01788   0.00000      0.000  -0.000   0.000
   13     Total     1.15782   0.00000     -0.000  -0.000   0.000

   18  1 1s         1.04978   0.00000     -0.000   0.000   0.000
   18  2 1s         0.08382   0.00000      0.000  -0.000  -0.000
   18  3 2Ppy       0.02786   0.00000     -0.000  -0.000   0.000
   18  4 2Ppz       0.01889   0.00000     -0.000  -0.000  -0.000
   18  5 2Ppx       0.01764   0.00000      0.000   0.000   0.000
   18     Total     1.19799   0.00000     -0.000   0.000   0.000

   21  1 1s         1.06623   0.00000      0.000  -0.000   0.000
   21  2 1s         0.08279   0.00000     -0.000   0.000  -0.000
   21  3 2Ppy       0.02231   0.00000     -0.000  -0.000  -0.000
   21  4 2Ppz       0.02109   0.00000      0.000  -0.000  -0.000
   21  5 2Ppx       0.01157   0.00000     -0.000  -0.000  -0.000
   21     Total     1.20399   0.00000     -0.000  -0.000   0.000

   22  1 1s         1.05240   0.00000     -0.000   0.000   0.000
   22  2 1s         0.08357   0.00000      0.000  -0.000  -0.000
   22  3 2Ppy       0.02009   0.00000      0.000  -0.000   0.000
   22  4 2Ppz       0.01769   0.00000     -0.000   0.000   0.000
   22  5 2Ppx       0.01709   0.00000      0.000  -0.000  -0.000
   22     Total     1.19084   0.00000     -0.000   0.000   0.000

   23  1 1s         1.06479   0.00000      0.000   0.000   0.000
   23  2 1s         0.08217   0.00000     -0.000  -0.000  -0.000
   23  3 2Ppy       0.01685   0.00000     -0.000  -0.000  -0.000
   23  4 2Ppz       0.02463   0.00000     -0.000   0.000   0.000
   23  5 2Ppx       0.01347   0.00000      0.000  -0.000   0.000
   23     Total     1.20190   0.00000      0.000   0.000   0.000

   27  1 1s         0.45954   0.00000     -0.000   0.000  -0.000
   27  2 1s         0.19089   0.00000      0.000  -0.000  -0.000
   27  3 2Ppy       0.02441   0.00000     -0.000  -0.000  -0.000
   27  4 2Ppz       0.02401   0.00000     -0.000   0.000   0.000
   27  5 2Ppx       0.02855   0.00000      0.000  -0.000   0.000
   27     Total     0.72740   0.00000     -0.000   0.000  -0.000

   30  1 1s         0.48401   0.00000     -0.000  -0.000  -0.000
   30  2 1s         0.18894   0.00000      0.000  -0.000  -0.000
   30  3 2Ppy       0.02683   0.00000      0.000   0.000  -0.000
   30  4 2Ppz       0.03448   0.00000     -0.000   0.000   0.000
   30  5 2Ppx       0.02334   0.00000      0.000  -0.000  -0.000
   30     Total     0.75760   0.00000     -0.000   0.000  -0.000

----------------------------------------------------------------
Total              10.94415   0.00000     -0.000   0.000   0.000


Species: N                   

Atom      Orb        Charge      Spin       Svec
----------------------------------------------------------------
    2  1 2s         1.38058   0.00000      0.000   0.000   0.000
    2  2 2s         0.12688   0.00000      0.000   0.000   0.000
    2  3 2py        1.06853   0.00000     -0.000   0.000   0.000
    2  4 2pz        1.49517   0.00000      0.000   0.000   0.000
    2  5 2px        1.01691   0.00000     -0.000  -0.000   0.000
    2  6 2py        0.19591   0.00000      0.000  -0.000  -0.000
    2  7 2pz        0.01437   0.00000     -0.000  -0.000  -0.000
    2  8 2px        0.21014   0.00000      0.000   0.000  -0.000
    2  9 3Pdxy      0.00676   0.00000     -0.000   0.000  -0.000
    2 10 3Pdyz      0.00608   0.00000      0.000   0.000  -0.000
    2 11 3Pdz2      0.00152   0.00000      0.000  -0.000  -0.000
    2 12 3Pdxz      0.00304   0.00000     -0.000  -0.000  -0.000
    2 13 3Pdx2-y2   0.00297   0.00000      0.000   0.000  -0.000
    2     Total     5.52885   0.00000     -0.000   0.000   0.000

    5  1 2s         1.55789   0.00000     -0.000  -0.000   0.000
    5  2 2s         0.08127   0.00000      0.000   0.000  -0.000
    5  3 2py        0.90443   0.00000      0.000   0.000   0.000
    5  4 2pz        1.22250   0.00000      0.000  -0.000   0.000
    5  5 2px        1.14242   0.00000     -0.000   0.000   0.000
    5  6 2py        0.23001   0.00000     -0.000  -0.000  -0.000
    5  7 2pz        0.05523   0.00000      0.000   0.000  -0.000
    5  8 2px        0.14618   0.00000     -0.000  -0.000  -0.000
    5  9 3Pdxy      0.00854   0.00000      0.000  -0.000   0.000
    5 10 3Pdyz      0.00703   0.00000     -0.000  -0.000   0.000
    5 11 3Pdz2      0.00189   0.00000     -0.000   0.000   0.000
    5 12 3Pdxz      0.01128   0.00000     -0.000   0.000  -0.000
    5 13 3Pdx2-y2   0.00920   0.00000      0.000  -0.000   0.000
    5     Total     5.37787   0.00000      0.000  -0.000   0.000

    8  1 2s         1.28159   0.00000      0.000   0.000  -0.000
    8  2 2s         0.17301   0.00000     -0.000  -0.000   0.000
    8  3 2py        1.07073   0.00000     -0.000  -0.000   0.000
    8  4 2pz        1.56603   0.00000      0.000   0.000  -0.000
    8  5 2px        1.00199   0.00000      0.000   0.000   0.000
    8  6 2py        0.19393   0.00000      0.000   0.000   0.000
    8  7 2pz        0.02712   0.00000     -0.000   0.000   0.000
    8  8 2px        0.22880   0.00000     -0.000  -0.000   0.000
    8  9 3Pdxy      0.00275   0.00000      0.000   0.000   0.000
    8 10 3Pdyz      0.00084   0.00000     -0.000  -0.000  -0.000
    8 11 3Pdz2      0.00267   0.00000      0.000  -0.000   0.000
    8 12 3Pdxz      0.00241   0.00000     -0.000  -0.000  -0.000
    8 13 3Pdx2-y2   0.00412   0.00000     -0.000  -0.000  -0.000
    8     Total     5.55600   0.00000      0.000   0.000   0.000

   11  1 2s         1.45880   0.00000     -0.000   0.000   0.000
   11  2 2s         0.11313   0.00000      0.000  -0.000  -0.000
   11  3 2py        1.23636   0.00000      0.000   0.000   0.000
   11  4 2pz        1.29462   0.00000      0.000  -0.000   0.000
   11  5 2px        0.80327   0.00000      0.000  -0.000   0.000
   11  6 2py        0.10477   0.00000     -0.000   0.000  -0.000
   11  7 2pz        0.04438   0.00000     -0.000   0.000  -0.000
   11  8 2px        0.31672   0.00000     -0.000   0.000  -0.000
   11  9 3Pdxy      0.00736   0.00000     -0.000  -0.000   0.000
   11 10 3Pdyz      0.00589   0.00000      0.000  -0.000  -0.000
   11 11 3Pdz2      0.00045   0.00000      0.000  -0.000  -0.000
   11 12 3Pdxz      0.00497   0.00000     -0.000  -0.000  -0.000
   11 13 3Pdx2-y2   0.00501   0.00000      0.000  -0.000   0.000
   11     Total     5.39574   0.00000      0.000  -0.000   0.000

   14  1 2s         1.50426   0.00000     -0.000   0.000   0.000
   14  2 2s         0.10346   0.00000      0.000  -0.000   0.000
   14  3 2py        0.84519   0.00000      0.000   0.000   0.000
   14  4 2pz        1.23752   0.00000      0.000   0.000   0.000
   14  5 2px        1.17461   0.00000     -0.000  -0.000   0.000
   14  6 2py        0.27715   0.00000     -0.000  -0.000   0.000
   14  7 2pz        0.05446   0.00000     -0.000  -0.000   0.000
   14  8 2px        0.13267   0.00000      0.000   0.000  -0.000
   14  9 3Pdxy      0.00947   0.00000     -0.000  -0.000  -0.000
   14 10 3Pdyz      0.00487   0.00000      0.000  -0.000  -0.000
   14 11 3Pdz2      0.00148   0.00000      0.000   0.000   0.000
   14 12 3Pdxz      0.01067   0.00000      0.000   0.000  -0.000
   14 13 3Pdx2-y2   0.00795   0.00000     -0.000   0.000   0.000
   14     Total     5.36378   0.00000     -0.000   0.000   0.000

   16  1 2s         1.37622   0.00000     -0.000   0.000  -0.000
   16  2 2s         0.12712   0.00000      0.000  -0.000   0.000
   16  3 2py        0.99161   0.00000      0.000   0.000   0.000
   16  4 2pz        1.54723   0.00000     -0.000   0.000   0.000
   16  5 2px        1.08046   0.00000      0.000   0.000   0.000
   16  6 2py        0.23937   0.00000     -0.000  -0.000  -0.000
   16  7 2pz        0.00324   0.00000     -0.000  -0.000  -0.000
   16  8 2px        0.18042   0.00000      0.000  -0.000  -0.000
   16  9 3Pdxy      0.00158   0.00000     -0.000   0.000   0.000
   16 10 3Pdyz      0.00475   0.00000      0.000   0.000  -0.000
   16 11 3Pdz2      0.00089   0.00000     -0.000   0.000   0.000
   16 12 3Pdxz      0.00236   0.00000     -0.000  -0.000  -0.000
   16 13 3Pdx2-y2   0.00609   0.00000     -0.000  -0.000  -0.000
   16     Total     5.56134   0.00000     -0.000   0.000   0.000

   26  1 2s         1.36569   0.00000      0.000  -0.000   0.000
   26  2 2s         0.12892   0.00000     -0.000   0.000  -0.000
   26  3 2py        1.11684   0.00000     -0.000  -0.000   0.000
   26  4 2pz        1.52787   0.00000     -0.000  -0.000   0.000
   26  5 2px        0.94054   0.00000     -0.000   0.000   0.000
   26  6 2py        0.16981   0.00000      0.000   0.000   0.000
   26  7 2pz        0.00487   0.00000      0.000   0.000  -0.000
   26  8 2px        0.26764   0.00000      0.000  -0.000   0.000
   26  9 3Pdxy      0.00070   0.00000     -0.000  -0.000  -0.000
   26 10 3Pdyz      0.00083   0.00000      0.000   0.000   0.000
   26 11 3Pdz2     -0.00131   0.00000     -0.000  -0.000  -0.000
   26 12 3Pdxz      0.00463   0.00000      0.000  -0.000  -0.000
   26 13 3Pdx2-y2   0.00207   0.00000      0.000   0.000  -0.000
   26     Total     5.52909   0.00000     -0.000  -0.000   0.000

----------------------------------------------------------------
Total              49.25681   0.00000     -0.000   0.000   0.000


Species: Si                  

Atom      Orb        Charge      Spin       Svec
----------------------------------------------------------------
    3  1 3s         0.55081   0.00000     -0.000   0.000  -0.000
    3  2 3s         0.38739   0.00000     -0.000   0.000  -0.000
    3  3 3py        0.08259   0.00000      0.000  -0.000  -0.000
    3  4 3pz        0.53764   0.00000     -0.000   0.000  -0.000
    3  5 3px        0.36881   0.00000     -0.000   0.000  -0.000
    3  6 3py        0.49820   0.00000      0.000  -0.000   0.000
    3  7 3pz        0.17559   0.00000     -0.000  -0.000  -0.000
    3  8 3px        0.23703   0.00000      0.000  -0.000  -0.000
    3  9 3Pdxy      0.10836   0.00000     -0.000  -0.000  -0.000
    3 10 3Pdyz      0.05224   0.00000     -0.000   0.000  -0.000
    3 11 3Pdz2      0.01017   0.00000     -0.000   0.000  -0.000
    3 12 3Pdxz      0.13314   0.00000     -0.000   0.000  -0.000
    3 13 3Pdx2-y2   0.32453   0.00000     -0.000  -0.000  -0.000
    3     Total     3.46651   0.00000     -0.000   0.000  -0.000

    6  1 3s         0.66103   0.00000     -0.000  -0.000  -0.000
    6  2 3s         0.37043   0.00000      0.000   0.000  -0.000
    6  3 3py        0.12917   0.00000     -0.000  -0.000   0.000
    6  4 3pz        0.69610   0.00000      0.000  -0.000   0.000
    6  5 3px        0.49068   0.00000     -0.000  -0.000  -0.000
    6  6 3py        0.46665   0.00000      0.000   0.000  -0.000
    6  7 3pz        0.24288   0.00000     -0.000   0.000  -0.000
    6  8 3px        0.24558   0.00000      0.000   0.000  -0.000
    6  9 3Pdxy      0.18453   0.00000      0.000  -0.000  -0.000
    6 10 3Pdyz      0.14688   0.00000     -0.000   0.000   0.000
    6 11 3Pdz2      0.01163   0.00000      0.000   0.000  -0.000
    6 12 3Pdxz      0.03661   0.00000     -0.000  -0.000   0.000
    6 13 3Pdx2-y2   0.18818   0.00000     -0.000   0.000   0.000
    6     Total     3.87035   0.00000      0.000  -0.000  -0.000

    7  1 3s         0.62737   0.00000     -0.000  -0.000  -0.000
    7  2 3s         0.36926   0.00000      0.000   0.000  -0.000
    7  3 3py        0.37351   0.00000      0.000  -0.000  -0.000
    7  4 3pz        0.49360   0.00000     -0.000  -0.000  -0.000
    7  5 3px        0.07907   0.00000     -0.000   0.000  -0.000
    7  6 3py        0.30283   0.00000     -0.000   0.000   0.000
    7  7 3pz        0.20792   0.00000      0.000   0.000  -0.000
    7  8 3px        0.42263   0.00000      0.000  -0.000  -0.000
    7  9 3Pdxy      0.20439   0.00000      0.000   0.000  -0.000
    7 10 3Pdyz      0.14287   0.00000      0.000   0.000  -0.000
    7 11 3Pdz2      0.01060   0.00000     -0.000  -0.000  -0.000
    7 12 3Pdxz      0.15157   0.00000      0.000   0.000  -0.000
    7 13 3Pdx2-y2   0.24046   0.00000      0.000   0.000  -0.000
    7     Total     3.62610   0.00000     -0.000   0.000  -0.000

   12  1 3s         0.53406   0.00000     -0.000  -0.000  -0.000
   12  2 3s         0.40051   0.00000      0.000   0.000  -0.000
   12  3 3py        0.22170   0.00000      0.000  -0.000  -0.000
   12  4 3pz        0.43682   0.00000     -0.000  -0.000  -0.000
   12  5 3px        0.29383   0.00000      0.000  -0.000  -0.000
   12  6 3py        0.40241   0.00000     -0.000   0.000   0.000
   12  7 3pz        0.16858   0.00000      0.000   0.000  -0.000
   12  8 3px        0.34245   0.00000      0.000   0.000  -0.000
   12  9 3Pdxy      0.38793   0.00000      0.000   0.000  -0.000
   12 10 3Pdyz      0.08073   0.00000     -0.000  -0.000  -0.000
   12 11 3Pdz2      0.01018   0.00000      0.000  -0.000  -0.000
   12 12 3Pdxz      0.09277   0.00000     -0.000  -0.000  -0.000
   12 13 3Pdx2-y2   0.16511   0.00000     -0.000   0.000  -0.000
   12     Total     3.53707   0.00000      0.000   0.000  -0.000

   15  1 3s         0.66151   0.00000      0.000  -0.000   0.000
   15  2 3s         0.36720   0.00000     -0.000   0.000   0.000
   15  3 3py       -0.03084   0.00000      0.000  -0.000   0.000
   15  4 3pz        0.51138   0.00000     -0.000   0.000   0.000
   15  5 3px        0.39041   0.00000      0.000   0.000   0.000
   15  6 3py        0.47376   0.00000      0.000   0.000   0.000
   15  7 3pz        0.19971   0.00000     -0.000  -0.000   0.000
   15  8 3px        0.33973   0.00000     -0.000  -0.000  -0.000
   15  9 3Pdxy      0.14159   0.00000      0.000   0.000   0.000
   15 10 3Pdyz      0.12590   0.00000     -0.000  -0.000   0.000
   15 11 3Pdz2      0.01399   0.00000     -0.000  -0.000   0.000
   15 12 3Pdxz      0.12502   0.00000     -0.000  -0.000   0.000
   15 13 3Pdx2-y2   0.30282   0.00000      0.000  -0.000   0.000
   15     Total     3.62217   0.00000     -0.000  -0.000   0.000

   17  1 3s         0.73150   0.00000      0.000  -0.000  -0.000
   17  2 3s         0.35636   0.00000     -0.000   0.000  -0.000
   17  3 3py        0.09614   0.00000      0.000  -0.000  -0.000
   17  4 3pz        0.62521   0.00000     -0.000  -0.000  -0.000
   17  5 3px        0.35617   0.00000     -0.000   0.000  -0.000
   17  6 3py        0.45339   0.00000     -0.000  -0.000   0.000
   17  7 3pz        0.15146   0.00000     -0.000   0.000  -0.000
   17  8 3px        0.33480   0.00000      0.000  -0.000  -0.000
   17  9 3Pdxy      0.15096   0.00000      0.000  -0.000  -0.000
   17 10 3Pdyz      0.02342   0.00000     -0.000  -0.000   0.000
   17 11 3Pdz2      0.00910   0.00000     -0.000   0.000   0.000
   17 12 3Pdxz      0.12879   0.00000      0.000   0.000  -0.000
   17 13 3Pdx2-y2   0.12701   0.00000     -0.000   0.000   0.000
   17     Total     3.54429   0.00000     -0.000  -0.000  -0.000

   19  1 3s         0.86224   0.00000      0.000  -0.000   0.000
   19  2 3s         0.31318   0.00000     -0.000   0.000   0.000
   19  3 3py        0.44061   0.00000      0.000  -0.000   0.000
   19  4 3pz        0.65992   0.00000      0.000   0.000   0.000
   19  5 3px        0.35308   0.00000     -0.000  -0.000  -0.000
   19  6 3py        0.32474   0.00000     -0.000   0.000  -0.000
   19  7 3pz        0.26883   0.00000     -0.000   0.000   0.000
   19  8 3px        0.35683   0.00000     -0.000   0.000   0.000
   19  9 3Pdxy      0.09333   0.00000      0.000   0.000  -0.000
   19 10 3Pdyz      0.02923   0.00000      0.000   0.000  -0.000
   19 11 3Pdz2      0.01450   0.00000     -0.000  -0.000  -0.000
   19 12 3Pdxz      0.05650   0.00000     -0.000  -0.000  -0.000
   19 13 3Pdx2-y2   0.13140   0.00000      0.000  -0.000  -0.000
   19     Total     3.90439   0.00000      0.000   0.000   0.000

   20  1 3s         0.54064   0.00000     -0.000  -0.000  -0.000
   20  2 3s         0.44396   0.00000      0.000   0.000  -0.000
   20  3 3py        0.31046   0.00000     -0.000  -0.000  -0.000
   20  4 3pz        0.25482   0.00000     -0.000   0.000  -0.000
   20  5 3px        0.45500   0.00000     -0.000   0.000  -0.000
   20  6 3py        0.38748   0.00000      0.000   0.000   0.000
   20  7 3pz        0.42327   0.00000      0.000  -0.000   0.000
   20  8 3px        0.27753   0.00000      0.000  -0.000  -0.000
   20  9 3Pdxy      0.07001   0.00000     -0.000  -0.000  -0.000
   20 10 3Pdyz      0.08421   0.00000     -0.000  -0.000   0.000
   20 11 3Pdz2      0.05095   0.00000     -0.000  -0.000  -0.000
   20 12 3Pdxz      0.07239   0.00000      0.000   0.000   0.000
   20 13 3Pdx2-y2   0.04582   0.00000      0.000   0.000   0.000
   20     Total     3.41655   0.00000     -0.000   0.000  -0.000

   24  1 3s         0.60395   0.00000     -0.000   0.000  -0.000
   24  2 3s         0.37097   0.00000      0.000  -0.000   0.000
   24  3 3py        0.27175   0.00000     -0.000   0.000  -0.000
   24  4 3pz        0.40748   0.00000      0.000  -0.000  -0.000
   24  5 3px        0.17040   0.00000      0.000   0.000   0.000
   24  6 3py        0.39526   0.00000      0.000  -0.000  -0.000
   24  7 3pz        0.19335   0.00000      0.000  -0.000  -0.000
   24  8 3px        0.35948   0.00000     -0.000  -0.000  -0.000
   24  9 3Pdxy      0.14225   0.00000      0.000   0.000   0.000
   24 10 3Pdyz      0.14054   0.00000      0.000  -0.000   0.000
   24 11 3Pdz2      0.01461   0.00000     -0.000   0.000  -0.000
   24 12 3Pdxz      0.12179   0.00000     -0.000   0.000  -0.000
   24 13 3Pdx2-y2   0.34738   0.00000     -0.000   0.000  -0.000
   24     Total     3.53920   0.00000      0.000   0.000  -0.000

   28  1 3s         0.43266   0.00000      0.000   0.000  -0.000
   28  2 3s         0.37811   0.00000     -0.000  -0.000  -0.000
   28  3 3py        0.15374   0.00000     -0.000  -0.000  -0.000
   28  4 3pz        0.39863   0.00000      0.000   0.000  -0.000
   28  5 3px        0.17064   0.00000      0.000   0.000  -0.000
   28  6 3py        0.37217   0.00000      0.000   0.000  -0.000
   28  7 3pz        0.20504   0.00000      0.000   0.000  -0.000
   28  8 3px        0.38359   0.00000     -0.000  -0.000  -0.000
   28  9 3Pdxy      0.14395   0.00000     -0.000  -0.000  -0.000
   28 10 3Pdyz      0.12324   0.00000     -0.000  -0.000  -0.000
   28 11 3Pdz2      0.01525   0.00000      0.000  -0.000  -0.000
   28 12 3Pdxz      0.15683   0.00000      0.000   0.000  -0.000
   28 13 3Pdx2-y2   0.35198   0.00000     -0.000  -0.000  -0.000
   28     Total     3.28584   0.00000      0.000   0.000  -0.000

----------------------------------------------------------------
Total              85.06926   0.00000      0.000   0.000  -0.000


Species: O                   

Atom      Orb        Charge      Spin       Svec
----------------------------------------------------------------
   25  1 2s         1.74128   0.00000     -0.000   0.000   0.000
   25  2 2s         0.06840   0.00000      0.000  -0.000  -0.000
   25  3 2py        1.46710   0.00000      0.000  -0.000   0.000
   25  4 2pz        1.51831   0.00000     -0.000   0.000   0.000
   25  5 2px        1.59388   0.00000     -0.000  -0.000   0.000
   25  6 2py        0.03309   0.00000      0.000   0.000   0.000
   25  7 2pz       -0.00179   0.00000      0.000   0.000   0.000
   25  8 2px        0.02353   0.00000      0.000  -0.000   0.000
   25  9 3Pdxy      0.00702   0.00000     -0.000   0.000   0.000
   25 10 3Pdyz      0.00601   0.00000     -0.000  -0.000  -0.000
   25 11 3Pdz2      0.00125   0.00000      0.000  -0.000  -0.000
   25 12 3Pdxz      0.00432   0.00000     -0.000  -0.000  -0.000
   25 13 3Pdx2-y2   0.00721   0.00000     -0.000   0.000  -0.000
   25     Total     6.46961   0.00000     -0.000   0.000   0.000

   29  1 2s         1.73774   0.00000     -0.000   0.000   0.000
   29  2 2s         0.07191   0.00000      0.000  -0.000   0.000
   29  3 2py        1.48286   0.00000      0.000  -0.000   0.000
   29  4 2pz        1.52979   0.00000     -0.000  -0.000   0.000
   29  5 2px        1.52551   0.00000     -0.000  -0.000   0.000
   29  6 2py        0.04241   0.00000      0.000  -0.000  -0.000
   29  7 2pz        0.00504   0.00000      0.000   0.000   0.000
   29  8 2px        0.03749   0.00000      0.000   0.000   0.000
   29  9 3Pdxy      0.00811   0.00000     -0.000   0.000   0.000
   29 10 3Pdyz      0.00484   0.00000      0.000   0.000  -0.000
   29 11 3Pdz2      0.00133   0.00000     -0.000  -0.000  -0.000
   29 12 3Pdxz      0.00624   0.00000      0.000   0.000  -0.000
   29 13 3Pdx2-y2   0.00786   0.00000     -0.000   0.000  -0.000
   29     Total     6.46113   0.00000     -0.000  -0.000   0.000

----------------------------------------------------------------
Total              98.00000   0.00000     -0.000   0.000  -0.000


siesta: Eigenvalues (eV):
ik =     1
  -22.9547  -22.9547  -22.6098  -22.6098  -21.9970  -21.9970  -21.2420  -21.2420  -21.0108  -21.0108
  -20.6413  -20.6413  -19.4165  -19.4165  -19.2334  -19.2333  -18.6325  -18.6325  -15.3352  -15.3352
  -14.3945  -14.3945  -13.6793  -13.6793  -13.6044  -13.6044  -13.3173  -13.3173  -12.9026  -12.9026
  -12.4691  -12.4691  -12.0401  -12.0401  -11.9195  -11.9195  -11.4825  -11.4825  -11.4668  -11.4668
  -10.8792  -10.8792  -10.7746  -10.7746  -10.1862  -10.1862   -9.8620   -9.8620   -9.5919   -9.5919
   -9.3708   -9.3708   -9.1891   -9.1891   -9.1093   -9.1093   -8.8261   -8.8261   -8.7463   -8.7463
   -8.4289   -8.4289   -8.1397   -8.1397   -8.1337   -8.1337   -8.1318   -8.1318   -8.0137   -8.0137
   -7.9139   -7.9139   -7.3451   -7.3451   -7.3307   -7.3307   -7.3227   -7.3227   -6.8490   -6.8490
   -6.7201   -6.7201   -6.6758   -6.6758   -6.4324   -6.4324   -6.3611   -6.3611   -6.1438   -6.1438
   -5.9710   -5.9710   -5.7310   -5.7310   -5.5602   -5.5602   -4.2161   -4.2161   -3.7498   -3.7498
   -2.8737   -2.8737   -2.5049   -2.5049   -2.2131   -2.2131   -2.2043   -2.2043   -2.0626   -2.0626
   -1.9692   -1.9692   -1.6440   -1.6440   -1.6191   -1.6191   -1.5648   -1.5648   -1.3346   -1.3346
   -1.1017   -1.1017   -0.5982   -0.5982   -0.4122   -0.4122   -0.2380   -0.2380   -0.2110   -0.2110
   -0.1558   -0.1558   -0.0842   -0.0842    0.2308    0.2308    0.3770    0.3770    0.5858    0.5858
    0.6530    0.6530    0.7279    0.7279    1.0450    1.0450    1.2591    1.2591    1.3238    1.3238
    1.3590    1.3590    1.6450    1.6450    1.8628    1.8628    2.0690    2.0690    2.2631    2.2631
    2.5192    2.5192    2.6383    2.6383    2.6998    2.6998    2.8790    2.8790    2.9608    2.9608
    3.0534    3.0534    3.1039    3.1039    3.1293    3.1293    3.4865    3.4865    3.6674    3.6674
    3.8374    3.8374    3.9264    3.9264    4.2630    4.2630    4.3479    4.3479    4.3588    4.3588
    4.4463    4.4463    4.5660    4.5660    4.7446    4.7446    4.9879    4.9879    5.0511    5.0511
    5.1329    5.1329    5.3891    5.3891    5.5571    5.5571    5.5971    5.5971    5.8851    5.8851
    5.9118    5.9118    6.0647    6.0647    6.1486    6.1486    6.4510    6.4510    6.4999    6.4999
    6.6176    6.6176    6.7468    6.7468    6.8198    6.8198    7.0146    7.0146    7.2991    7.2991
    7.3431    7.3431    7.5850    7.5850    7.6983    7.6983    7.8260    7.8260    7.9242    7.9242
    8.1767    8.1767    8.3835    8.3835    8.4308    8.4308    8.5046    8.5046    8.5469    8.5469
    8.5683    8.5683    9.0442    9.0442    9.0550    9.0550    9.4115    9.4115    9.6791    9.6791
    9.7135    9.7135    9.8912    9.8912    9.9276    9.9276   10.0087   10.0087   10.0262   10.0262
   10.1387   10.1387   10.6030   10.6030   10.7055   10.7055   11.0352   11.0352   11.1655   11.1655
   11.3775   11.3775   11.5550   11.5550   11.6421   11.6421   11.8315   11.8315   11.8405   11.8405
   12.1840   12.1840   12.2837   12.2837   12.5898   12.5898   12.6615   12.6615   12.6916   12.6916
   12.9301   12.9301   13.2104   13.2104   13.3469   13.3469   13.4336   13.4336   13.6217   13.6217
   13.8218   13.8218   14.0647   14.0647   14.4970   14.4970   14.5678   14.5678   14.8854   14.8854
   14.9565   14.9565   15.5238   15.5238   15.5922   15.5922   16.0398   16.0398   16.3609   16.3609
   16.5456   16.5456   16.8744   16.8744   16.9455   16.9455   17.1897   17.1897   17.5022   17.5022
   18.0274   18.0274   18.0812   18.0812   18.4572   18.4572   18.6665   18.6665   18.8774   18.8774
   18.9054   18.9054   19.7879   19.7879   19.9912   19.9912   20.2649   20.2649   20.4698   20.4698
   20.9568   20.9568   21.1833   21.1833   21.3554   21.3554   22.2187   22.2187   22.3703   22.3703
   22.5897   22.5897   22.9651   22.9651   23.0639   23.0639   23.1182   23.1182   23.2465   23.2465
   24.6171   24.6171   24.8631   24.8631   25.1501   25.1501   25.7172   25.7172   25.9658   25.9658
   26.2248   26.2248   26.6686   26.6686   27.0302   27.0302   28.0418   28.0418   28.1592   28.1592
   28.4136   28.4136   28.7250   28.7250   29.5974   29.5974   30.5131   30.5131   30.8444   30.8444
   30.8646   30.8646   31.2036   31.2036   31.3656   31.3656   31.4826   31.4826   32.0132   32.0132
   32.1190   32.1190   32.2653   32.2653   32.9703   32.9703   33.5546   33.5546   34.0603   34.0603
   34.2693   34.2693   34.3150   34.3150   34.9005   34.9005   35.5668   35.5668   35.6229   35.6229
   36.1930   36.1930   36.4096   36.4096   37.2527   37.2527   37.7187   37.7187   38.0215   38.0215
   38.5817   38.5817   38.7652   38.7652   38.9979   38.9979   39.2796   39.2796   39.5297   39.5297
   40.1451   40.1451   40.6641   40.6641   41.0317   41.0317   41.2576   41.2576   41.6522   41.6522
   42.3414   42.3414   42.4852   42.4852   43.0453   43.0453   43.3635   43.3635   43.7935   43.7935
   44.5812   44.5812   44.7526   44.7526   44.8989   44.8989   45.3341   45.3341   45.9068   45.9068
   46.4125   46.4125   46.6351   46.6351   46.6522   46.6522   46.9509   46.9509   47.5399   47.5399
   47.9093   47.9093   48.1727   48.1727   48.9220   48.9220   49.1676   49.1676   49.6264   49.6264
   50.2743   50.2743   50.3287   50.3287   50.5747   50.5747   50.7405   50.7405   51.9276   51.9276
   52.3182   52.3182   52.3640   52.3640   54.1131   54.1131   54.7567   54.7567   54.9719   54.9719
   55.6932   55.6932   56.3867   56.3867   56.4543   56.4543   57.0235   57.0235   57.0733   57.0733
   58.7941   58.7941   58.8299   58.8299   58.9866   58.9866   60.1959   60.1959   60.4517   60.4517
   60.8817   60.8817   62.1285   62.1285   62.3357   62.3357   62.5036   62.5036   63.5477   63.5477
   65.9153   65.9153   66.3989   66.3989   67.3883   67.3883   67.6977   67.6977   68.3892   68.3892
   69.3983   69.3983   71.5126   71.5126   74.1786   74.1786   81.6550   81.6550   92.3556   92.3556
   92.8849   92.8849   93.2987   93.2987   95.9852   95.9852   98.6086   98.6086  100.5536  100.5536
  101.9588  101.9588  103.1367  103.1367  114.3768  114.3768  121.1310  121.1310  123.4118  123.4118
  136.7695  136.7695  141.0794  141.0794
siesta: Fermi energy =      -3.982941 eV

siesta: Program's energy decomposition (eV):
siesta: Ebs     =     -1116.610579
siesta: Eions   =      3553.971015
siesta: Ena     =       377.791006
siesta: Ekin    =      2751.387152
siesta: Enl     =     -2532.370607
siesta: Eso     =        -0.004704
siesta: Edftu   =         0.000000
siesta: DEna    =        37.232538
siesta: DUscf   =        14.055091
siesta: DUext   =         0.000000
siesta: Exc     =     -1093.111033
siesta: eta*DQ  =         0.000000
siesta: Emadel  =         0.000000
siesta: Emeta   =         0.000000
siesta: Emolmec =         0.000000
siesta: Ekinion =         0.000000
siesta: Eharris =     -3998.991570
siesta: Etot    =     -3998.991570
siesta: FreeEng =     -3998.991695

siesta: Final energy (eV):
siesta:  Band Struct. =   -1116.610579
siesta:       Kinetic =    2751.387152
siesta:       Hartree =    7480.848527
siesta:       Edftu   =       0.000000
siesta:       Eso     =      -0.004704
siesta:    Ext. field =       0.000000
siesta:   Exch.-corr. =   -1093.111033
siesta:  Ion-electron =  -17411.025976
siesta:       Ion-ion =    4272.914464
siesta:       Ekinion =       0.000000
siesta:         Total =   -3998.991570
siesta:         Fermi =      -3.982941

siesta: Atomic forces (eV/Ang):
siesta:      1   -0.059740    0.042054    0.000002
siesta:      2   -0.005725   -0.053751   -0.000003
siesta:      3    0.001397    0.044061    0.000003
siesta:      4   -0.052865   -0.037798    0.000002
siesta:      5    0.012167   -0.050744   -0.000004
siesta:      6    0.050559    0.005362    0.000005
siesta:      7   -0.229391    0.143087    0.000020
siesta:      8    0.115239   -0.105092   -0.000086
siesta:      9    0.028735    0.095135    0.000145
siesta:     10    0.094686    0.061889    0.000015
siesta:     11   -0.014820    0.055741   -0.000026
siesta:     12    0.151345    0.096751   -0.000004
siesta:     13   -0.109184   -0.119582   -0.000002
siesta:     14   -0.033899   -0.037809    0.000004
siesta:     15   -0.000487    0.061345   -0.000003
siesta:     16    0.017141    0.092468    0.008004
siesta:     17    0.011431   -0.059157   -0.039864
siesta:     18   -0.120444    0.073334    0.008314
siesta:     19   -0.020592    0.024182   -0.041238
siesta:     20    0.041839   -0.047003    0.026160
siesta:     21   -0.223065    0.210616    0.051016
siesta:     22   -0.133544    0.080910    0.021292
siesta:     23    0.084383    0.009087   -0.048893
siesta:     24    0.152309   -0.102033   -0.026557
siesta:     25   -2.259239   -1.194680    0.003035
siesta:     26   -0.068999    0.114175    0.006568
siesta:     27    0.051261   -0.264608    0.002819
siesta:     28   -0.057292   -0.146760   -0.000865
siesta:     29   -0.700057    1.738631   -0.001124
siesta:     30    0.053267    0.157854    0.008245
siesta: ----------------------------------------
siesta:    Tot   -3.223583    0.887664   -0.023018

siesta: Stress tensor (static) (eV/Ang**3):
siesta:    -0.001110    0.000181    0.000032
siesta:     0.000181   -0.000161   -0.000028
siesta:     0.000032   -0.000028   -0.000144

siesta: Cell volume =       4248.967653 Ang**3

siesta: Pressure (static):
siesta:                Solid            Molecule  Units
siesta:           0.00000514          0.00000008  Ry/Bohr**3
siesta:           0.00047169          0.00000698  eV/Ang**3
siesta:           0.75574627          0.01117915  kBar
(Free)E+ p_basis*V_orbitals  =       -3977.863610
(Free)Eharris+ p_basis*V_orbitals  =       -3977.863610
     spin moment: S , {S} =    0.00000  -0.00000   0.00000  -0.00000

siesta: Electric dipole (a.u.)  =   -0.272237    2.684985   -0.013002
siesta: Electric dipole (Debye) =   -0.691958    6.824555   -0.033047

cite: Please see "AT.bib" for an exhaustive BiBTeX file.
cite: Please clearly indicate Siesta version in published work: v4.1.5-1-g384057250
cite: This calculation has made use of the following articles
cite: which are encouraged to be cited in a published work.
        Primary SIESTA paper
          DOI: www.doi.org/10.1088/0953-8984/14/11/302
        Spin-orbit coupling (on-site approximation)
          DOI: www.doi.org/10.1088/0953-8984/19/19/489001


WARNING: alloc-realloc-dealloc name mismatch
         Name: atomlist isa
         Size:              -120. Bytes
         Node:     0
         Subsequent mismatches will not be reported
>> End of run:  22-MAY-2023  10:10:10
Job completed
