Siesta Version  : v4.1.5-1-g384057250
Architecture    : gcc
Compiler version: GNU Fortran (Ubuntu 11.4.0-1ubuntu1~22.04) 11.4.0
Compiler flags  : mpifort -O2 -fPIC -ftree-vectorize -fallow-argument-mismatch
PP flags        : -DFC_HAVE_ABORT -DMPI -DSIESTA__FLOOK -DSIESTA__METIS -DSIESTA__MUMPS -DCDF -DNCDF -DNCDF_4 -DNCDF_PARALLEL -DSIESTA__MRRR -DSIESTA__ELPA
Libraries       : libncdf.a libfdict.a  -lflookall -ldl -lnetcdff -lnetcdf -lhdf5_hl -lhdf5 -lhdf5_fortran -lz -lscalapack-openmpi -lopenblas -lmetis -lzmumps -lcmumps -ldmumps -lmumps_common -lpord -lsmumps -lesmumps -lscotch -lscotcherr -fopenmp -lelpa
PARALLEL version
NetCDF support
NetCDF-4 support
NetCDF-4 MPI-IO support
METIS ordering support
Lua support

* Running on 8 nodes in parallel
>> Start of run:   1-FEB-2024  21:51:29

                           ***********************       
                           *  WELCOME TO SIESTA  *       
                           ***********************       

reinit: Reading from standard input
reinit: Dumped input in INPUT_TMP.60175
************************** Dump of input data file ****************************
# mpirun -np 4 siesta-4.1.5 < GC.fdf > GC.out &
SystemLabel      GC
NumberOfAtoms    29
NumberOfSpecies  4
%block ChemicalSpeciesLabel
    1    1  H
    2    7  N
    3   14  Si
    4    8  O
%endblock ChemicalSpeciesLabel
############################################
# This overrides Defaults.fdf configuration
############################################
MD.TypeOfRun                Verlet # CG, Verlet
MD.Steps                    0
MaxSCFIterations            200
SCF.MustConverge            F
AtomicCoordinatesFormat NotScaledCartesianAng
%block AtomicCoordinatesAndAtomicSpecies
    0.48309743904827884 4.417997605315405 0.0  1  1  H
    -0.2233892909517211 3.627961425315404 0.0  2  2  N
    -1.9536762009517212 4.069325335315404 0.0  3  3  Si
    -2.109455880951721 5.559317595315404 0.0  1  4  H
    -3.476997820951721 2.510417815315404 0.0  3  5  Si
    -4.960185450951721 2.753248175315404 0.0  1  6  H
    -2.278606960951721 0.5971416553154041 0.0  3  7  Si
    -3.044632420951721 -0.935575084684596 0.0  2  8  N
    -2.4543858709517212 -1.892788114684596 0.0  1  9  H
    -4.096254740951721 -1.016035314684596 0.0  1  10  H
    -0.5624069009517211 0.652315965315404 0.0  2  11  N
    0.5126157190482789 1.982654805315404 0.0  3  12  Si
    2.121289039048279 1.963844545315404 0.0  4  13  O
    5.6164483 -7.44953905 0.0  1  14  H
    4.58206954 -7.2320376 0.0  2  15  N
    3.29666389 -8.492636 0.0  3  16  Si
    3.80117524 -9.90371886 -0.0  1  17  H
    1.65934232 -8.01362137 0.0  2  18  N
    1.68097912 -6.20463398 -0.0  3  19  Si
    0.54543521 -4.28636135 0.0  3  20  Si
    -1.03431493 -3.94450034 0.0  4  21  O
    1.73226934 -2.87719605 0.0  2  22  N
    1.20957366 -1.92961761 -0.0  1  23  H
    3.50853448 -2.77677601 0.0  3  24  Si
    4.13684451 -1.17938608 0.0  2  25  N
    3.54296161 -0.26248101 0.0  1  26  H
    5.18364407 -1.05231197 -0.0  1  27  H
    4.63288658 -4.07521596 -0.0  2  28  N
    3.79410501 -5.58634043 0.0  3  29  Si
%endblock AtomicCoordinatesAndAtomicSpecies
#############
# Unit Cell
#############
LatticeConstant 1.0 Ang
%block LatticeVectors
    30.00000    0.000000    0.000000
    0.000000    45.00000    0.000000
    0.000000    0.000000    10.00000
%endblock LatticeVectors
%include ../../../../Defaults.fdf
************************** End of input data file *****************************

reinit: -----------------------------------------------------------------------
reinit: System Name: 
reinit: -----------------------------------------------------------------------
reinit: System Label: GC
reinit: -----------------------------------------------------------------------

initatom: Reading input for the pseudopotentials and atomic orbitals ----------
Species number:   1 Atomic number:    1 Label: H
Species number:   2 Atomic number:    7 Label: N
Species number:   3 Atomic number:   14 Label: Si
Species number:   4 Atomic number:    8 Label: O

Ground state valence configuration:   1s01
Reading pseudopotential information in formatted form from H.psf

Pseudopotential generated from a relativistic atomic calculation

Valence configuration for pseudopotential generation:
1s( 1.00) rc: 0.01
2p( 0.00) rc: 0.60
3d( 0.00) rc: 1.99
4f( 0.00) rc: 2.49
Ground state valence configuration:   2s02  2p03
Reading pseudopotential information in formatted form from N.psf

Pseudopotential generated from a relativistic atomic calculation

Valence configuration for pseudopotential generation:
2s( 2.00) rc: 0.94
2p( 3.00) rc: 0.59
3d( 0.00) rc: 3.46
4f( 0.00) rc: 2.47
Ground state valence configuration:   3s02  3p02
Reading pseudopotential information in formatted form from Si.psf

Pseudopotential generated from a relativistic atomic calculation

Valence configuration for pseudopotential generation:
3s( 2.00) rc: 1.67
3p( 2.00) rc: 2.04
3d( 0.00) rc: 2.89
4f( 0.00) rc: 2.49
Ground state valence configuration:   2s02  2p04
Reading pseudopotential information in formatted form from O.psf

Pseudopotential generated from a relativistic atomic calculation

Valence configuration for pseudopotential generation:
2s( 2.00) rc: 0.45
2p( 4.00) rc: 0.92
3d( 0.00) rc: 2.24
4f( 0.00) rc: 0.25
For H, standard SIESTA heuristics set lmxkb to 2
 (one more than the basis l, including polarization orbitals).
Use PS.lmax or PS.KBprojectors blocks to override.
For N, standard SIESTA heuristics set lmxkb to 3
 (one more than the basis l, including polarization orbitals).
Use PS.lmax or PS.KBprojectors blocks to override.
For Si, standard SIESTA heuristics set lmxkb to 3
 (one more than the basis l, including polarization orbitals).
Use PS.lmax or PS.KBprojectors blocks to override.
For O, standard SIESTA heuristics set lmxkb to 3
 (one more than the basis l, including polarization orbitals).
Use PS.lmax or PS.KBprojectors blocks to override.

<basis_specs>
===============================================================================
H                    Z=   1    Mass=  1.0100        Charge= 0.17977+309
Lmxo=0 Lmxkb= 2    BasisType=split      Semic=F
L=0  Nsemic=0  Cnfigmx=1
          i=1  nzeta=2  polorb=1  (1s)
            splnorm:   0.62000    
               vcte:    0.0000    
               rinn:    0.0000    
               qcoe:    0.0000    
               qyuk:    0.0000    
               qwid:   0.10000E-01
                rcs:    0.0000      0.0000    
            lambdas:    1.0000      1.0000    
-------------------------------------------------------------------------------
L=0  Nkbl=1  erefs: 0.17977+309
L=1  Nkbl=1  erefs: 0.17977+309
L=2  Nkbl=1  erefs: 0.17977+309
===============================================================================
</basis_specs>

atom: Called for H                     (Z =   1)

read_vps: Pseudopotential generation method:
read_vps: ATM4.2.7  Troullier-Martins                       
Valence charge for ps generation:    1.00000

xc_check: Exchange-correlation functional:
xc_check: GGA Perdew, Burke & Ernzerhof 1996
V l=0 = -2*Zval/r beyond r=  0.0098
V l=1 = -2*Zval/r beyond r=  0.5817
V l=2 = -2*Zval/r beyond r=  1.9372
All V_l potentials equal beyond r=  1.9372
This should be close to max(r_c) in ps generation
All pots = -2*Zval/r beyond r=  1.9372

VLOCAL1: 99.0% of the norm of Vloc inside     11.567 Ry
VLOCAL1: 99.9% of the norm of Vloc inside     26.362 Ry
atom: Maximum radius for 4*pi*r*r*local-pseudopot. charge    2.25106
atom: Maximum radius for r*vlocal+2*Zval:    1.91306
GHOST: No ghost state for L =  0
GHOST: No ghost state for L =  1
GHOST: No ghost state for L =  2

KBgen: Kleinman-Bylander projectors: 
   l= 0   rc=  2.036604   el= -0.477180   Ekb= -6.081590   kbcos= -0.277285
   l= 1   rc=  2.195416   el=  0.001076   Ekb= -0.926943   kbcos= -0.034643
   l= 2   rc=  2.251056   el=  0.002010   Ekb= -0.130941   kbcos= -0.009788

KBgen: Total number of Kleinman-Bylander projectors:    9
atom: -------------------------------------------------------------------------

atom: SANKEY-TYPE ORBITALS:
atom: Selected multiple-zeta basis: split     

SPLIT: Orbitals with angular momentum L= 0

SPLIT: Basis orbitals for state 1s

SPLIT: PAO cut-off radius determined from an
SPLIT: energy shift=  0.002000 Ry

   izeta = 1
                 lambda =    1.000000
                     rc =    6.518340
                 energy =   -0.475305
                kinetic =    0.912139
    potential(screened) =   -1.387444
       potential(ionic) =   -1.907295

   izeta = 2
                 rmatch =    2.141150
              splitnorm =    0.620000
                 energy =    0.566467
                kinetic =    3.772856
    potential(screened) =   -3.206389
       potential(ionic) =   -3.759093

POLgen: Perturbative polarization orbital with L=  1

POLgen: Polarization orbital for state 1s

   izeta = 1
                     rc =    6.518340
                 energy =    0.533861
                kinetic =    1.121086
    potential(screened) =   -0.587225
       potential(ionic) =   -1.053027
atom: Total number of Sankey-type orbitals:  5

atm_pop: Valence configuration (for local Pseudopot. screening):
 1s( 1.00)                                                            
Vna: chval, zval:    1.00000   1.00000

Vna:  Cut-off radius for the neutral-atom potential:   6.518340

atom: _________________________________________________________________________

<basis_specs>
===============================================================================
N                    Z=   7    Mass=  14.010        Charge= 0.17977+309
Lmxo=1 Lmxkb= 3    BasisType=split      Semic=F
L=0  Nsemic=0  Cnfigmx=2
          i=1  nzeta=2  polorb=0  (2s)
            splnorm:   0.28000    
               vcte:    0.0000    
               rinn:    0.0000    
               qcoe:    0.0000    
               qyuk:    0.0000    
               qwid:   0.10000E-01
                rcs:    0.0000      0.0000    
            lambdas:    1.0000      1.0000    
L=1  Nsemic=0  Cnfigmx=2
          i=1  nzeta=2  polorb=1  (2p)
            splnorm:   0.28000    
               vcte:    0.0000    
               rinn:    0.0000    
               qcoe:    0.0000    
               qyuk:    0.0000    
               qwid:   0.10000E-01
                rcs:    0.0000      0.0000    
            lambdas:    1.0000      1.0000    
-------------------------------------------------------------------------------
L=0  Nkbl=1  erefs: 0.17977+309
L=1  Nkbl=1  erefs: 0.17977+309
L=2  Nkbl=1  erefs: 0.17977+309
L=3  Nkbl=1  erefs: 0.17977+309
===============================================================================
</basis_specs>

atom: Called for N                     (Z =   7)

read_vps: Pseudopotential generation method:
read_vps: ATM4.2.7  Troullier-Martins                       
Valence charge for ps generation:    5.00000

xc_check: Exchange-correlation functional:
xc_check: GGA Perdew, Burke & Ernzerhof 1996
V l=0 = -2*Zval/r beyond r=  1.2889
V l=1 = -2*Zval/r beyond r=  1.2889
V l=2 = -2*Zval/r beyond r=  3.4178
V l=3 = -2*Zval/r beyond r=  2.4084
All V_l potentials equal beyond r=  3.3753
This should be close to max(r_c) in ps generation
All pots = -2*Zval/r beyond r=  3.4178

VLOCAL1: 99.0% of the norm of Vloc inside      3.810 Ry
VLOCAL1: 99.9% of the norm of Vloc inside      8.683 Ry
atom: Maximum radius for 4*pi*r*r*local-pseudopot. charge    4.02088
atom: Maximum radius for r*vlocal+2*Zval:    3.54838
GHOST: No ghost state for L =  0
GHOST: No ghost state for L =  1
GHOST: No ghost state for L =  2
GHOST: No ghost state for L =  3

KBgen: Kleinman-Bylander projectors: 
   l= 0   rc=  3.417763   el= -1.365098   Ekb= -4.433130   kbcos= -0.707855
   l= 1   rc=  3.375302   el= -0.521201   Ekb=-13.264039   kbcos= -0.535594
   l= 2   rc=  3.872880   el=  0.001991   Ekb= -0.641094   kbcos= -0.062456
   l= 3   rc=  3.970931   el=  0.003093   Ekb= -0.474517   kbcos= -0.018236

KBgen: Total number of Kleinman-Bylander projectors:   16
atom: -------------------------------------------------------------------------

atom: SANKEY-TYPE ORBITALS:
atom: Selected multiple-zeta basis: split     

SPLIT: Orbitals with angular momentum L= 0

SPLIT: Basis orbitals for state 2s

SPLIT: PAO cut-off radius determined from an
SPLIT: energy shift=  0.002000 Ry

   izeta = 1
                 lambda =    1.000000
                     rc =    4.730425
                 energy =   -1.363399
                kinetic =    1.245246
    potential(screened) =   -2.608645
       potential(ionic) =   -8.121105

   izeta = 2
                 rmatch =    2.531849
              splitnorm =    0.280000
                 energy =   -0.959908
                kinetic =    2.409435
    potential(screened) =   -3.369343
       potential(ionic) =   -9.427975

SPLIT: Orbitals with angular momentum L= 1

SPLIT: Basis orbitals for state 2p

SPLIT: PAO cut-off radius determined from an
SPLIT: energy shift=  0.002000 Ry

   izeta = 1
                 lambda =    1.000000
                     rc =    5.924108
                 energy =   -0.519262
                kinetic =    3.672940
    potential(screened) =   -4.192202
       potential(ionic) =   -9.518354

   izeta = 2
                 rmatch =    2.531849
              splitnorm =    0.280000
                 energy =   -0.104258
                kinetic =    6.807538
    potential(screened) =   -6.911796
       potential(ionic) =  -13.149920

POLgen: Perturbative polarization orbital with L=  2

POLgen: Polarization orbital for state 2p

   izeta = 1
                     rc =    5.924108
                 energy =    1.427508
                kinetic =    2.872379
    potential(screened) =   -1.444871
       potential(ionic) =   -5.563644
atom: Total number of Sankey-type orbitals: 13

atm_pop: Valence configuration (for local Pseudopot. screening):
 2s( 2.00)                                                            
 2p( 3.00)                                                            
Vna: chval, zval:    5.00000   5.00000

Vna:  Cut-off radius for the neutral-atom potential:   5.924108

atom: _________________________________________________________________________

<basis_specs>
===============================================================================
Si                   Z=  14    Mass=  28.090        Charge= 0.17977+309
Lmxo=1 Lmxkb= 3    BasisType=split      Semic=F
L=0  Nsemic=0  Cnfigmx=3
          i=1  nzeta=2  polorb=0  (3s)
            splnorm:   0.28000    
               vcte:    0.0000    
               rinn:    0.0000    
               qcoe:    0.0000    
               qyuk:    0.0000    
               qwid:   0.10000E-01
                rcs:    0.0000      0.0000    
            lambdas:    1.0000      1.0000    
L=1  Nsemic=0  Cnfigmx=3
          i=1  nzeta=2  polorb=1  (3p)
            splnorm:   0.28000    
               vcte:    0.0000    
               rinn:    0.0000    
               qcoe:    0.0000    
               qyuk:    0.0000    
               qwid:   0.10000E-01
                rcs:    0.0000      0.0000    
            lambdas:    1.0000      1.0000    
-------------------------------------------------------------------------------
L=0  Nkbl=1  erefs: 0.17977+309
L=1  Nkbl=1  erefs: 0.17977+309
L=2  Nkbl=1  erefs: 0.17977+309
L=3  Nkbl=1  erefs: 0.17977+309
===============================================================================
</basis_specs>

atom: Called for Si                    (Z =  14)

read_vps: Pseudopotential generation method:
read_vps: ATM4.2.7  Troullier-Martins                       
Valence charge for ps generation:    4.00000

xc_check: Exchange-correlation functional:
xc_check: GGA Perdew, Burke & Ernzerhof 1996
V l=0 = -2*Zval/r beyond r=  2.7826
V l=1 = -2*Zval/r beyond r=  2.7826
V l=2 = -2*Zval/r beyond r=  2.9253
V l=3 = -2*Zval/r beyond r=  2.7826
All V_l potentials equal beyond r=  2.8530
This should be close to max(r_c) in ps generation
All pots = -2*Zval/r beyond r=  2.9253

VLOCAL1: 99.0% of the norm of Vloc inside      5.333 Ry
VLOCAL1: 99.9% of the norm of Vloc inside     12.154 Ry
atom: Maximum radius for 4*pi*r*r*local-pseudopot. charge    3.39869
atom: Maximum radius for r*vlocal+2*Zval:    2.96205
GHOST: No ghost state for L =  0
GHOST: No ghost state for L =  1
GHOST: No ghost state for L =  2
GHOST: No ghost state for L =  3

KBgen: Kleinman-Bylander projectors: 
   l= 0   rc=  3.075247   el= -0.794092   Ekb=  5.879390   kbcos=  0.167461
   l= 1   rc=  3.153101   el= -0.300068   Ekb=  2.642817   kbcos=  0.058301
   l= 2   rc=  3.273594   el=  0.001958   Ekb= -1.185135   kbcos= -0.104411
   l= 3   rc=  3.232927   el=  0.003046   Ekb= -0.497174   kbcos= -0.015889

KBgen: Total number of Kleinman-Bylander projectors:   16
atom: -------------------------------------------------------------------------

atom: SANKEY-TYPE ORBITALS:
atom: Selected multiple-zeta basis: split     

SPLIT: Orbitals with angular momentum L= 0

SPLIT: Basis orbitals for state 3s

SPLIT: PAO cut-off radius determined from an
SPLIT: energy shift=  0.002000 Ry

   izeta = 1
                 lambda =    1.000000
                     rc =    6.429618
                 energy =   -0.792283
                kinetic =    0.525293
    potential(screened) =   -1.317576
       potential(ionic) =   -3.744923

   izeta = 2
                 rmatch =    3.998416
              splitnorm =    0.280000
                 energy =   -0.583081
                kinetic =    1.069570
    potential(screened) =   -1.652651
       potential(ionic) =   -4.235185

SPLIT: Orbitals with angular momentum L= 1

SPLIT: Basis orbitals for state 3p

SPLIT: PAO cut-off radius determined from an
SPLIT: energy shift=  0.002000 Ry

   izeta = 1
                 lambda =    1.000000
                     rc =    8.464845
                 energy =   -0.298236
                kinetic =    0.785360
    potential(screened) =   -1.083596
       potential(ionic) =   -3.273779

   izeta = 2
                 rmatch =    4.587816
              splitnorm =    0.280000
                 energy =   -0.131871
                kinetic =    1.403687
    potential(screened) =   -1.535557
       potential(ionic) =   -4.015310

POLgen: Perturbative polarization orbital with L=  2

POLgen: Polarization orbital for state 3p

   izeta = 1
                     rc =    8.464845
                 energy =    0.321949
                kinetic =    1.055677
    potential(screened) =   -0.733728
       potential(ionic) =   -2.672950
atom: Total number of Sankey-type orbitals: 13

atm_pop: Valence configuration (for local Pseudopot. screening):
 3s( 2.00)                                                            
 3p( 2.00)                                                            
Vna: chval, zval:    4.00000   4.00000

Vna:  Cut-off radius for the neutral-atom potential:   8.464845

atom: _________________________________________________________________________

<basis_specs>
===============================================================================
O                    Z=   8    Mass=  16.000        Charge= 0.17977+309
Lmxo=1 Lmxkb= 3    BasisType=split      Semic=F
L=0  Nsemic=0  Cnfigmx=2
          i=1  nzeta=2  polorb=0  (2s)
            splnorm:   0.28000    
               vcte:    0.0000    
               rinn:    0.0000    
               qcoe:    0.0000    
               qyuk:    0.0000    
               qwid:   0.10000E-01
                rcs:    0.0000      0.0000    
            lambdas:    1.0000      1.0000    
L=1  Nsemic=0  Cnfigmx=2
          i=1  nzeta=2  polorb=1  (2p)
            splnorm:   0.28000    
               vcte:    0.0000    
               rinn:    0.0000    
               qcoe:    0.0000    
               qyuk:    0.0000    
               qwid:   0.10000E-01
                rcs:    0.0000      0.0000    
            lambdas:    1.0000      1.0000    
-------------------------------------------------------------------------------
L=0  Nkbl=1  erefs: 0.17977+309
L=1  Nkbl=1  erefs: 0.17977+309
L=2  Nkbl=1  erefs: 0.17977+309
L=3  Nkbl=1  erefs: 0.17977+309
===============================================================================
</basis_specs>

atom: Called for O                     (Z =   8)

read_vps: Pseudopotential generation method:
read_vps: ATM4.2.7  Troullier-Martins                       
Valence charge for ps generation:    6.00000

xc_check: Exchange-correlation functional:
xc_check: GGA Perdew, Burke & Ernzerhof 1996
V l=0 = -2*Zval/r beyond r=  1.1000
V l=1 = -2*Zval/r beyond r=  1.1000
V l=2 = -2*Zval/r beyond r=  2.2154
V l=3 = -2*Zval/r beyond r=  1.1000
All V_l potentials equal beyond r=  2.2154
This should be close to max(r_c) in ps generation
All pots = -2*Zval/r beyond r=  2.2154

VLOCAL1: 99.0% of the norm of Vloc inside      8.845 Ry
VLOCAL1: 99.9% of the norm of Vloc inside     20.157 Ry
atom: Maximum radius for 4*pi*r*r*local-pseudopot. charge    2.67231
atom: Maximum radius for r*vlocal+2*Zval:    2.32897
GHOST: No ghost state for L =  0
GHOST: No ghost state for L =  1
GHOST: No ghost state for L =  2
GHOST: No ghost state for L =  3

KBgen: Kleinman-Bylander projectors: 
   l= 0   rc=  2.243238   el= -1.759686   Ekb=**********   kbcos= -0.171774
   l= 1   rc=  2.328968   el= -0.663873   Ekb=-14.506792   kbcos= -0.519897
   l= 2   rc=  2.573941   el=  0.002031   Ekb= -1.137373   kbcos= -0.019581
   l= 3   rc=  2.606321   el=  0.003153   Ekb= -1.013546   kbcos= -0.003122

KBgen: Total number of Kleinman-Bylander projectors:   16
atom: -------------------------------------------------------------------------

atom: SANKEY-TYPE ORBITALS:
atom: Selected multiple-zeta basis: split     

SPLIT: Orbitals with angular momentum L= 0

SPLIT: Basis orbitals for state 2s

SPLIT: PAO cut-off radius determined from an
SPLIT: energy shift=  0.002000 Ry

   izeta = 1
                 lambda =    1.000000
                     rc =    4.243912
                 energy =   -1.758270
                kinetic =    3.286084
    potential(screened) =   -5.044353
       potential(ionic) =  -12.921184

   izeta = 2
                 rmatch =    2.187845
              splitnorm =    0.280000
                 energy =   -0.885018
                kinetic =    8.134434
    potential(screened) =   -9.019452
       potential(ionic) =  -17.710645

SPLIT: Orbitals with angular momentum L= 1

SPLIT: Basis orbitals for state 2p

SPLIT: PAO cut-off radius determined from an
SPLIT: energy shift=  0.002000 Ry

   izeta = 1
                 lambda =    1.000000
                     rc =    5.314825
                 energy =   -0.661986
                kinetic =    4.917472
    potential(screened) =   -5.579458
       potential(ionic) =  -13.236259

   izeta = 2
                 rmatch =    2.160663
              splitnorm =    0.280000
                 energy =   -0.068760
                kinetic =    9.183374
    potential(screened) =   -9.252135
       potential(ionic) =  -18.274251

POLgen: Perturbative polarization orbital with L=  2

POLgen: Polarization orbital for state 2p

   izeta = 1
                     rc =    5.314825
                 energy =    1.970580
                kinetic =    3.886128
    potential(screened) =   -1.915547
       potential(ionic) =   -7.749584
atom: Total number of Sankey-type orbitals: 13

atm_pop: Valence configuration (for local Pseudopot. screening):
 2s( 2.00)                                                            
 2p( 4.00)                                                            
Vna: chval, zval:    6.00000   6.00000

Vna:  Cut-off radius for the neutral-atom potential:   5.314825

atom: _________________________________________________________________________

prinput: Basis input ----------------------------------------------------------

PAO.BasisType split     

%block ChemicalSpeciesLabel
    1    1 H                       # Species index, atomic number, species label
    2    7 N                       # Species index, atomic number, species label
    3   14 Si                      # Species index, atomic number, species label
    4    8 O                       # Species index, atomic number, species label
%endblock ChemicalSpeciesLabel

%block PAO.Basis                 # Define Basis set
H                     1                    # Species label, number of l-shells
 n=1   0   2 P   1                   # n, l, Nzeta, Polarization, NzetaPol
   6.518      2.141   
   1.000      1.000   
N                     2                    # Species label, number of l-shells
 n=2   0   2                         # n, l, Nzeta 
   4.730      2.532   
   1.000      1.000   
 n=2   1   2 P   1                   # n, l, Nzeta, Polarization, NzetaPol
   5.924      2.532   
   1.000      1.000   
Si                    2                    # Species label, number of l-shells
 n=3   0   2                         # n, l, Nzeta 
   6.430      3.998   
   1.000      1.000   
 n=3   1   2 P   1                   # n, l, Nzeta, Polarization, NzetaPol
   8.465      4.588   
   1.000      1.000   
O                     2                    # Species label, number of l-shells
 n=2   0   2                         # n, l, Nzeta 
   4.244      2.188   
   1.000      1.000   
 n=2   1   2 P   1                   # n, l, Nzeta, Polarization, NzetaPol
   5.315      2.161   
   1.000      1.000   
%endblock PAO.Basis

prinput: ----------------------------------------------------------------------

Dumping basis to NetCDF file H.ion.nc
Dumping basis to NetCDF file N.ion.nc
Dumping basis to NetCDF file Si.ion.nc
Dumping basis to NetCDF file O.ion.nc
coor:   Atomic-coordinates input format  =     Cartesian coordinates
coor:                                          (in Angstroms)

siesta: Atomic coordinates (Bohr) and species
siesta:      0.91292   8.34881   0.00000  1        1
siesta:     -0.42214   6.85586   0.00000  2        2
siesta:     -3.69191   7.68991   0.00000  3        3
siesta:     -3.98630  10.50559   0.00000  1        4
siesta:     -6.57058   4.74400   0.00000  3        5
siesta:     -9.37340   5.20289   0.00000  1        6
siesta:     -4.30594   1.12843   0.00000  3        7
siesta:     -5.75352  -1.76798   0.00000  2        8
siesta:     -4.63812  -3.57685   0.00000  1        9
siesta:     -7.74080  -1.92003   0.00000  1       10
siesta:     -1.06280   1.23270   0.00000  2       11
siesta:      0.96870   3.74668   0.00000  3       12
siesta:      4.00866   3.71113   0.00000  4       13
siesta:     10.61355 -14.07759   0.00000  1       14
siesta:      8.65886 -13.66658   0.00000  2       15
siesta:      6.22979 -16.04876   0.00000  3       16
siesta:      7.18318 -18.71532  -0.00000  1       17
siesta:      3.13570 -15.14356   0.00000  2       18
siesta:      3.17659 -11.72506  -0.00000  3       19
siesta:      1.03072  -8.10005   0.00000  3       20
siesta:     -1.95457  -7.45403   0.00000  4       21
siesta:      3.27352  -5.43711   0.00000  2       22
siesta:      2.28576  -3.64645  -0.00000  1       23
siesta:      6.63017  -5.24735   0.00000  3       24
siesta:      7.81751  -2.22872   0.00000  2       25
siesta:      6.69523  -0.49602   0.00000  1       26
siesta:      9.79567  -1.98858  -0.00000  1       27
siesta:      8.75489  -7.70105  -0.00000  2       28
siesta:      7.16982 -10.55666   0.00000  3       29

siesta: System type = molecule  

initatomlists: Number of atoms, orbitals, and projectors:     29   297   394

siesta: ******************** Simulation parameters ****************************
siesta:
siesta: The following are some of the parameters of the simulation.
siesta: A complete list of the parameters used, including default values,
siesta: can be found in file out.fdf
siesta:
redata: Spin configuration                          = spin-orbit
redata: Number of spin components                   = 8
redata: Time-Reversal Symmetry                      = F
redata: Spin spiral                                 = F
############################################################
This spin-orbit implementation uses a local approximation.
From 4.2 and onwards the full non-local approximation is implemented
You are strongly advised to use >=4.2 versions!
############################################################
redata: Long output                                 =   F
redata: Number of Atomic Species                    =        4
redata: Charge density info will appear in .RHO file
redata: Write Mulliken Pop.                         = NO
redata: Matel table size (NRTAB)                    =     1024
redata: Mesh Cutoff                                 =   340.0000 Ry
redata: Net charge of the system                    =     0.0000 |e|
redata: Min. number of SCF Iter                     =        1
redata: Max. number of SCF Iter                     =      200
redata: SCF mix quantity                            = Hamiltonian
redata: Mix DM or H after convergence               =   F
redata: Recompute H after scf cycle                 =   F
redata: Mix DM in first SCF step                    =   T
redata: Write Pulay info on disk                    =   F
redata: New DM Occupancy tolerance                  = 0.000000000001
redata: No kicks to SCF
redata: DM Mixing Weight for Kicks                  =     0.5000
redata: Require Harris convergence for SCF          =   F
redata: Harris energy tolerance for SCF             =     0.000100 eV
redata: Require DM convergence for SCF              =   T
redata: DM tolerance for SCF                        =     0.000008
redata: Require EDM convergence for SCF             =   F
redata: EDM tolerance for SCF                       =     0.001000 eV
redata: Require H convergence for SCF               =   T
redata: Hamiltonian tolerance for SCF               =     0.000001 eV
redata: Require (free) Energy convergence for SCF   =   F
redata: (free) Energy tolerance for SCF             =     0.000100 eV
redata: Using Saved Data (generic)                  =   F
redata: Use continuation files for DM               =   T
redata: Neglect nonoverlap interactions             =   F
redata: Method of Calculation                       = Diagonalization
redata: Electronic Temperature                      =   299.9978 K
redata: Fix the spin of the system                  =   F
redata: Dynamics option                             = Verlet MD run
redata: Initial MD time step                        =        1
redata:   Final MD time step                        =        1
redata: Length of MD time step                      =     0.5000 fs
redata: Initial Temperature of MD run               =     0.0000 K
redata: Perform a MD quench                         =   F
mix.SCF: Pulay mixing                            = Pulay
mix.SCF:    Variant                              = stable
mix.SCF:    History steps                        = 6
mix.SCF:    Linear mixing weight                 =     0.250000
mix.SCF:    Mixing weight                        =     0.250000
mix.SCF:    SVD condition                        = 0.1000E-07
mix.SCF:    Restart steps                        = 24
mix.SCF:    Restart save steps                   = 3
mix.SCF: Spin-component mixing                   all
redata: Save all siesta data in one NC              =   F
redata: ***********************************************************************

%block SCF.Mixers
  Pulay
%endblock SCF.Mixers

%block SCF.Mixer.Pulay
  # Mixing method
  method pulay
  variant stable

  # Mixing options
  weight 0.2500
  weight.linear 0.2500
  history 6
  restart 24
  restart.save 3
%endblock SCF.Mixer.Pulay

Size of DM history Fstack: 3
Total number of electrons:    98.000000
Total ionic charge:    98.000000

* ProcessorY, Blocksize:    2  24


* Orbital distribution balance (max,min):    48    24


Time-reversal symmetry not used.

siesta: k-grid: Number of k-points =     1
siesta: k-grid: Cutoff (effective) =     5.000 Ang
siesta: k-grid: Supercell and displacements
siesta: k-grid:    1   0   0      0.000
siesta: k-grid:    0   1   0      0.000
siesta: k-grid:    0   0   1      0.000

diag: Algorithm                                     = ELPA-1stage
diag: Parallel over k                               =   F
diag: Use parallel 2D distribution                  =   T
diag: Parallel block-size                           = 24
diag: Parallel distribution                         =     2 x     4
diag: Used triangular part                          = Lower
diag: Absolute tolerance                            =  0.100E-15
diag: Orthogonalization factor                      =  0.100E-05
diag: Memory factor                                 =  1.0000


ts: **************************************************************
ts: Save H and S matrices                           =    F
ts: Save DM and EDM matrices                        =    F
ts: Only save the overlap matrix S                  =    F
ts: **************************************************************

************************ Begin: TS CHECKS AND WARNINGS ************************
************************ End: TS CHECKS AND WARNINGS **************************


                     ====================================
                        Begin MD step =      1
                     ====================================

outcoor: Atomic coordinates (Ang):                          
    0.48309744    4.41799761    0.00000000   1       1  H
   -0.22338929    3.62796143    0.00000000   2       2  N
   -1.95367620    4.06932534    0.00000000   3       3  Si
   -2.10945588    5.55931760    0.00000000   1       4  H
   -3.47699782    2.51041782    0.00000000   3       5  Si
   -4.96018545    2.75324818    0.00000000   1       6  H
   -2.27860696    0.59714166    0.00000000   3       7  Si
   -3.04463242   -0.93557508    0.00000000   2       8  N
   -2.45438587   -1.89278811    0.00000000   1       9  H
   -4.09625474   -1.01603531    0.00000000   1      10  H
   -0.56240690    0.65231597    0.00000000   2      11  N
    0.51261572    1.98265481    0.00000000   3      12  Si
    2.12128904    1.96384455    0.00000000   4      13  O
    5.61644830   -7.44953905    0.00000000   1      14  H
    4.58206954   -7.23203760    0.00000000   2      15  N
    3.29666389   -8.49263600    0.00000000   3      16  Si
    3.80117524   -9.90371886    0.00000000   1      17  H
    1.65934232   -8.01362137    0.00000000   2      18  N
    1.68097912   -6.20463398    0.00000000   3      19  Si
    0.54543521   -4.28636135    0.00000000   3      20  Si
   -1.03431493   -3.94450034    0.00000000   4      21  O
    1.73226934   -2.87719605    0.00000000   2      22  N
    1.20957366   -1.92961761    0.00000000   1      23  H
    3.50853448   -2.77677601    0.00000000   3      24  Si
    4.13684451   -1.17938608    0.00000000   2      25  N
    3.54296161   -0.26248101    0.00000000   1      26  H
    5.18364407   -1.05231197    0.00000000   1      27  H
    4.63288658   -4.07521596    0.00000000   2      28  N
    3.79410501   -5.58634043    0.00000000   3      29  Si

outcell: Unit cell vectors (Ang):
       30.000000    0.000000    0.000000
        0.000000   45.000000    0.000000
        0.000000    0.000000   10.000000

outcell: Cell vector modules (Ang)   :   30.000000   45.000000   10.000000
outcell: Cell angles (23,13,12) (deg):     90.0000     90.0000     90.0000
outcell: Cell volume (Ang**3)        :  13500.0000
<dSpData1D:S at geom step 1
  <sparsity:sparsity for geom step 1
    nrows_g=297 nrows=48 sparsity=.1214 nnzs=10706, refcount: 8>
  <dData1D:(new from dSpData1D) n=10706, refcount: 1>
refcount: 1>
new_DM -- step:     1
Initializing Density Matrix...

Attempting to read DM from file... Failed...
DM filled with atomic data:
<dSpData2D:DM initialized from atoms
  <sparsity:sparsity for geom step 1
    nrows_g=297 nrows=48 sparsity=.1214 nnzs=10706, refcount: 9>
  <dData2D:DM n=10706 m=8, refcount: 1>
refcount: 1>
     spin moment: S , {S} =   56.00000   0.00000   0.00000  56.00000
No. of atoms with KB's overlaping orbs in proc 0. Max # of overlaps:      27     189

Initializing spin-orbit part of the Hamiltonian
  Adding spin-orbit effects for H 
  Adding spin-orbit effects for N 
  Adding spin-orbit effects for Si
  Adding spin-orbit effects for O 


New grid distribution:   1
           1       1:  180    1:  125    1:   15
           2       1:  180    1:  125   16:   30
           3       1:  180    1:  125   31:   45
           4       1:  180    1:  125   46:   60
           5       1:  180  126:  250    1:   15
           6       1:  180  126:  250   16:   30
           7       1:  180  126:  250   31:   45
           8       1:  180  126:  250   46:   60

InitMesh: MESH =   360 x   500 x   120 =    21600000
InitMesh: (bp) =   180 x   250 x    60 =     2700000
InitMesh: Mesh cutoff (required, used) =   340.000   341.206 Ry
ExtMesh (bp) on 0 =   288 x   225 x   123 =     7970400
New grid distribution:   2
           1      44:  180   16:  213    1:   60
           2      23:  180  235:  250    1:   60
           3      44:  180    1:   15    1:   60
           4       1:   22  214:  230    1:   60
           5       1:   43    1:  196    1:   60
           6      23:  180  214:  234    1:   60
           7       1:   43  197:  213    1:   60
           8       1:   22  231:  250    1:   60
New grid distribution:   3
           1       1:  133   31:  200    1:   60
           2       1:  133    1:   30    1:   60
           3     134:  180    1:   20    1:   60
           4       1:   34  201:  224    1:   60
           5     134:  180   21:  200    1:   60
           6      35:  180  201:  231    1:   60
           7      35:  180  232:  250    1:   60
           8       1:   34  225:  250    1:   60
Setting up quadratic distribution...
ExtMesh (bp) on 0 =   245 x   298 x   168 =    12265680
PhiOnMesh: Number of (b)points on node 0 =              1627560
PhiOnMesh: nlist on node 0 =              1521806

stepf: Fermi-Dirac step function

siesta: Program's energy decomposition (eV):
siesta: Ebs     =      -589.882819
siesta: Eions   =      3585.165840
siesta: Ena     =       381.770673
siesta: Ekin    =      3363.722642
siesta: Enl     =     -3292.739496
siesta: Eso     =        -0.003424
siesta: Edftu   =         0.000000
siesta: DEna    =       153.107801
siesta: DUscf   =        79.586067
siesta: DUext   =         0.000000
siesta: Exc     =     -1202.898231
siesta: eta*DQ  =         0.000000
siesta: Emadel  =         0.000000
siesta: Emeta   =         0.000000
siesta: Emolmec =         0.000000
siesta: Ekinion =         0.000000
siesta: Eharris =     -4026.782700
siesta: Etot    =     -4102.619809
siesta: FreeEng =     -4102.620825

        iscf     Eharris(eV)        E_KS(eV)     FreeEng(eV)     dDmax    Ef(eV) dHmax(eV)
   scf:    1    -4026.782700    -4102.619809    -4102.620825  0.962558 -4.904294 21.609985
     spin moment: S , {S} =    2.00571   0.00000   0.00000   2.00571
timer: Routine,Calls,Time,% = IterSCF        1      10.683  29.81
   scf:    2    -4147.572019    -4137.105257    -4137.106277  0.460907 -4.136795 11.753018
     spin moment: S , {S} =    1.99495  -0.00000   0.00000   1.99495
   scf:    3    -4107.386081    -4134.171840    -4134.186846  0.433188 -4.296272 12.431470
     spin moment: S , {S} =    2.00780   0.00000   0.00000   2.00780
   scf:    4    -4150.696980    -4145.787508    -4145.787508  0.315474 -3.819501  6.185664
     spin moment: S , {S} =    0.00009   0.00000   0.00000   0.00009
   scf:    5    -4146.984966    -4146.478944    -4146.478944  0.037380 -3.597844  4.264189
     spin moment: S , {S} =    0.00006   0.00000  -0.00000   0.00006
   scf:    6    -4147.211034    -4146.850669    -4146.850669  0.023850 -3.493860  2.165736
     spin moment: S , {S} =    0.00003   0.00000  -0.00000   0.00003
   scf:    7    -4147.198507    -4147.021598    -4147.021598  0.021403 -3.649377  0.941402
     spin moment: S , {S} =    0.00001   0.00000   0.00000   0.00001
   scf:    8    -4147.144674    -4147.081257    -4147.081257  0.012556 -3.662373  0.532457
     spin moment: S , {S} =    0.00000   0.00000  -0.00000   0.00000
   scf:    9    -4147.121413    -4147.100695    -4147.100695  0.006914 -3.656596  0.387189
     spin moment: S , {S} =    0.00000   0.00000  -0.00000   0.00000
   scf:   10    -4147.154001    -4147.121779    -4147.121779  0.020705 -3.676497  0.193966
     spin moment: S , {S} =    0.00000  -0.00000  -0.00000  -0.00000
   scf:   11    -4147.124821    -4147.123291    -4147.123291  0.004944 -3.666880  0.057896
     spin moment: S , {S} =    0.00000  -0.00000  -0.00000  -0.00000
   scf:   12    -4147.124224    -4147.123769    -4147.123770  0.001156 -3.660949  0.024259
     spin moment: S , {S} =    0.00000   0.00000  -0.00000   0.00000
   scf:   13    -4147.124138    -4147.123949    -4147.123949  0.001376 -3.658889  0.017430
     spin moment: S , {S} =    0.00000   0.00000  -0.00000   0.00000
   scf:   14    -4147.124187    -4147.124061    -4147.124061  0.001334 -3.657759  0.014004
     spin moment: S , {S} =    0.00000   0.00000  -0.00000   0.00000
   scf:   15    -4147.124207    -4147.124127    -4147.124127  0.001295 -3.657465  0.009957
     spin moment: S , {S} =    0.00000   0.00000  -0.00000   0.00000
   scf:   16    -4147.124222    -4147.124167    -4147.124167  0.001290 -3.657506  0.006054
     spin moment: S , {S} =    0.00000  -0.00000  -0.00000   0.00000
   scf:   17    -4147.124195    -4147.124179    -4147.124179  0.000680 -3.657674  0.004151
     spin moment: S , {S} =    0.00000  -0.00000  -0.00000   0.00000
   scf:   18    -4147.124191    -4147.124184    -4147.124184  0.000484 -3.657745  0.002018
     spin moment: S , {S} =    0.00000  -0.00000  -0.00000   0.00000
   scf:   19    -4147.124188    -4147.124186    -4147.124186  0.000290 -3.657646  0.000929
     spin moment: S , {S} =    0.00000  -0.00000  -0.00000   0.00000
   scf:   20    -4147.124187    -4147.124186    -4147.124186  0.000112 -3.657637  0.000517
     spin moment: S , {S} =    0.00000  -0.00000  -0.00000   0.00000
   scf:   21    -4147.124187    -4147.124186    -4147.124186  0.000092 -3.657635  0.000236
     spin moment: S , {S} =    0.00000  -0.00000  -0.00000   0.00000
   scf:   22    -4147.124186    -4147.124186    -4147.124186  0.000027 -3.657776  0.000101
     spin moment: S , {S} =    0.00000  -0.00000  -0.00000   0.00000
   scf:   23    -4147.124186    -4147.124186    -4147.124186  0.000005 -3.657778  0.000068
     spin moment: S , {S} =    0.00000  -0.00000  -0.00000   0.00000
   scf:   24    -4147.124186    -4147.124186    -4147.124186  0.000003 -3.657780  0.000058
     spin moment: S , {S} =    0.00000  -0.00000  -0.00000   0.00000
mix: Pulay -- resetting history
   scf:   25    -4147.124186    -4147.124186    -4147.124186  0.000002 -3.657781  0.000047
     spin moment: S , {S} =    0.00000  -0.00000  -0.00000   0.00000
   scf:   26    -4147.124186    -4147.124186    -4147.124186  0.000003 -3.657781  0.000033
     spin moment: S , {S} =    0.00000  -0.00000  -0.00000   0.00000
   scf:   27    -4147.124186    -4147.124186    -4147.124186  0.000004 -3.657780  0.000016
     spin moment: S , {S} =    0.00000  -0.00000  -0.00000   0.00000
   scf:   28    -4147.124186    -4147.124186    -4147.124186  0.000002 -3.657779  0.000009
     spin moment: S , {S} =    0.00000  -0.00000  -0.00000   0.00000
   scf:   29    -4147.124186    -4147.124186    -4147.124186  0.000001 -3.657779  0.000006
     spin moment: S , {S} =    0.00000  -0.00000  -0.00000   0.00000
   scf:   30    -4147.124186    -4147.124186    -4147.124186  0.000001 -3.657779  0.000002
     spin moment: S , {S} =    0.00000  -0.00000  -0.00000   0.00000
   scf:   31    -4147.124186    -4147.124186    -4147.124186  0.000000 -3.657779  0.000001
     spin moment: S , {S} =    0.00000  -0.00000  -0.00000   0.00000

SCF Convergence by DM+H criterion
max |DM_out - DM_in|         :     0.0000004474
max |H_out - H_in|      (eV) :     0.0000009064
SCF cycle converged after 31 iterations

Using DM_out to compute the final energy and forces
No. of atoms with KB's overlaping orbs in proc 0. Max # of overlaps:      27     189

siesta: E_KS(eV) =            -4147.1242

siesta: E_KS - E_eggbox =     -4147.1242
     spin moment: S , {S} =    0.00000  -0.00000  -0.00000   0.00000

siesta: Atomic forces (eV/Ang):
     1    0.127270   -0.066693   -0.000000
     2   -0.314564    0.213707   -0.000000
     3    0.281318   -0.037467    0.000000
     4   -0.026658    0.159932    0.000000
     5   -0.143879   -0.141691   -0.000000
     6    0.019697    0.066157   -0.000000
     7    0.856022    0.618349    0.000000
     8    0.814348   -1.954154    0.000000
     9   -0.975341    1.355018   -0.000000
    10    0.163136   -0.179546    0.000000
    11   -0.621781   -0.216521    0.000000
    12    0.763352   -0.213726   -0.000000
    13   -0.509246    3.867873    0.000000
    14   -0.017100   -0.021490   -0.000000
    15    0.072753    0.024391    0.000000
    16    0.004476   -0.016146    0.000000
    17   -0.004445    0.045021   -0.000000
    18   -0.039909    0.028593   -0.000000
    19    0.176136    0.014574   -0.000000
    20   -0.933824   -0.072198   -0.000000
    21    0.861348   -3.569346    0.000000
    22    0.154574    0.565737    0.000000
    23    0.202505   -0.445370   -0.000000
    24   -0.248693   -0.580470   -0.000000
    25   -0.488695    1.298724   -0.000000
    26    0.608904   -0.870160    0.000000
    27   -0.143932    0.061505    0.000000
    28    0.025897    0.472449    0.000000
    29   -0.209960   -0.265354    0.000000
----------------------------------------
   Tot    0.453714    0.141698    0.000000
----------------------------------------
   Max    3.867873
   Res    0.709889    sqrt( Sum f_i^2 / 3N )
----------------------------------------
   Max    3.867873    constrained

Stress tensor Voigt[x,y,z,yz,xz,xy] (kbar):        0.58        0.35       -0.04        0.00       -0.00       -0.51
(Free)E + p*V (eV/cell)    -4149.6227
Target enthalpy (eV/cell)    -4147.1242

siesta: Stress tensor (static) (eV/Ang**3):
         0.000361   -0.000321   -0.000000
        -0.000321    0.000220    0.000000
        -0.000000    0.000000   -0.000025

siesta: Pressure (static):         -0.29653172  kBar

siesta: Stress tensor (total) (eV/Ang**3):
         0.000361   -0.000321   -0.000000
        -0.000321    0.000220    0.000000
        -0.000000    0.000000   -0.000025

siesta: Pressure (total):         -0.29653172  kBar

siesta: Temp_ion =       0.000 K

siesta: Eigenvalues (eV):
ik =     1
  -22.0493  -22.0493  -21.6414  -21.6414  -21.3142  -21.3142  -21.2124  -21.2124  -21.1213  -21.1213
  -21.0588  -21.0588  -20.5065  -20.5065  -19.5483  -19.5483  -19.3905  -19.3905  -19.1943  -19.1943
  -14.7051  -14.7051  -13.6783  -13.6783  -13.2118  -13.2118  -12.9108  -12.9108  -12.8091  -12.8091
  -12.7538  -12.7538  -12.4814  -12.4814  -12.1433  -12.1433  -12.0421  -12.0421  -11.9094  -11.9094
  -11.0935  -11.0935  -10.7446  -10.7446  -10.5459  -10.5459  -10.4611  -10.4611  -10.0609  -10.0609
   -9.5325   -9.5325   -9.0208   -9.0208   -8.6869   -8.6869   -8.6281   -8.6281   -8.5519   -8.5519
   -8.4108   -8.4108   -8.3528   -8.3528   -7.9496   -7.9496   -7.8710   -7.8710   -7.6432   -7.6432
   -7.5203   -7.5203   -7.2012   -7.2012   -7.0381   -7.0381   -6.7871   -6.7871   -6.5606   -6.5606
   -6.5590   -6.5590   -6.3177   -6.3177   -6.1520   -6.1520   -6.0507   -6.0507   -6.0420   -6.0420
   -5.9812   -5.9812   -5.6447   -5.6447   -5.4653   -5.4653   -4.1441   -4.1441   -3.1713   -3.1713
   -2.2445   -2.2445   -2.1616   -2.1616   -2.0945   -2.0945   -1.7922   -1.7922   -1.7497   -1.7497
   -1.6785   -1.6785   -1.6488   -1.6488   -1.5400   -1.5400   -1.2574   -1.2574   -1.0180   -1.0180
   -0.7829   -0.7829   -0.5639   -0.5639   -0.2124   -0.2124   -0.2086   -0.2086    0.3087    0.3087
    0.5896    0.5896    0.6691    0.6691    0.7175    0.7175    0.9897    0.9897    1.1767    1.1767
    1.2914    1.2914    1.3950    1.3950    1.4795    1.4795    1.5377    1.5377    1.7981    1.7981
    1.9691    1.9691    2.0291    2.0291    2.4390    2.4390    2.5856    2.5856    2.8699    2.8699
    2.8947    2.8947    2.9297    2.9297    3.0240    3.0240    3.4512    3.4512    3.5762    3.5762
    3.7667    3.7667    4.0253    4.0253    4.1107    4.1107    4.1638    4.1638    4.3890    4.3890
    4.5938    4.5938    4.6809    4.6809    4.8145    4.8145    4.8283    4.8283    4.8595    4.8595
    5.1281    5.1281    5.1520    5.1520    5.4268    5.4268    5.6374    5.6374    5.7782    5.7782
    6.0146    6.0146    6.0484    6.0484    6.1284    6.1284    6.3666    6.3666    6.3942    6.3942
    6.5591    6.5591    6.6523    6.6523    6.6968    6.6968    6.8129    6.8129    7.1120    7.1120
    7.1255    7.1256    7.3698    7.3698    7.6742    7.6742    7.8405    7.8405    7.9632    7.9632
    8.1238    8.1238    8.1436    8.1436    8.1624    8.1624    8.4955    8.4955    8.7669    8.7669
    8.8433    8.8433    8.9774    8.9774    9.0128    9.0128    9.1084    9.1084    9.3923    9.3923
    9.4654    9.4654    9.7058    9.7058    9.9184    9.9184   10.0312   10.0312   10.1612   10.1612
   10.3186   10.3186   10.4258   10.4258   10.6871   10.6871   11.0658   11.0658   11.2257   11.2257
   11.2426   11.2426   11.3869   11.3869   11.7804   11.7804   11.9661   11.9661   12.0216   12.0216
   12.2089   12.2089   12.2512   12.2512   12.5834   12.5834   12.6780   12.6780   12.9493   12.9493
   12.9550   12.9550   13.0543   13.0543   13.5763   13.5763   13.5912   13.5912   13.8741   13.8741
   14.0468   14.0468   14.2443   14.2443   14.6121   14.6121   14.9148   14.9148   14.9515   14.9515
   15.3579   15.3579   15.4892   15.4892   16.2229   16.2229   16.7566   16.7566   16.7844   16.7844
   17.1220   17.1220   17.5498   17.5498   17.6145   17.6145   18.7057   18.7057   18.7578   18.7578
   19.1893   19.1893   19.3141   19.3141   20.1386   20.1386   20.1928   20.1928   20.3275   20.3275
   21.2227   21.2227   21.7635   21.7635   22.2774   22.2774   22.3031   22.3031   22.8449   22.8449
   23.0902   23.0902   23.7836   23.7836   23.9692   23.9692   24.1272   24.1272   24.5046   24.5046
   25.2240   25.2240   25.6285   25.6285   26.3072   26.3072   27.1797   27.1797   27.9294   27.9294
   29.0426   29.0426   29.2447   29.2447   29.3178   29.3178   29.8340   29.8340   30.1949   30.1949
   30.3034   30.3034   30.4390   30.4390   30.8823   30.8823   31.0376   31.0376   31.2611   31.2611
   31.3957   31.3957   31.6212   31.6212   31.8448   31.8448   32.6411   32.6411   33.0395   33.0395
   34.1072   34.1072   34.2919   34.2919   34.5353   34.5353   34.5924   34.5924   34.6406   34.6406
   35.4894   35.4894   35.6598   35.6598   35.7976   35.7976   36.4086   36.4086   36.9659   36.9659
   37.1663   37.1663   38.1288   38.1288   38.1678   38.1678   38.3094   38.3094   38.7817   38.7817
   39.1074   39.1074   39.4153   39.4153   40.2218   40.2218   40.5902   40.5902   40.6892   40.6892
   40.6934   40.6934   40.8746   40.8746   40.9814   40.9814   41.4231   41.4231   41.5588   41.5588
   42.9868   42.9868   43.1890   43.1890   43.2605   43.2605   43.5218   43.5218   43.9245   43.9245
   44.1086   44.1086   44.7179   44.7179   44.7371   44.7371   44.8766   44.8766   45.1793   45.1793
   45.5364   45.5364   45.9956   45.9956   46.7722   46.7722   46.8358   46.8358   47.6065   47.6065
   47.6665   47.6665   48.4086   48.4086   49.3567   49.3567   49.4308   49.4308   49.9686   49.9686
   50.4624   50.4624   50.5294   50.5294   50.9057   50.9057   51.2836   51.2836   51.4204   51.4204
   51.6227   51.6227   52.5958   52.5958   53.4972   53.4972   54.9507   54.9507   55.0848   55.0848
   55.3290   55.3290   55.4214   55.4214   55.9432   55.9432   55.9602   55.9602   56.8440   56.8440
   57.1823   57.1823   57.4034   57.4034   57.9550   57.9550   59.2521   59.2521   60.4618   60.4618
   60.8886   60.8886   61.0714   61.0714   61.3269   61.3269   61.4838   61.4838   62.5461   62.5461
   63.3741   63.3741   63.5084   63.5084   64.3241   64.3241   65.1539   65.1539   66.9421   66.9421
   67.2869   67.2869   67.8187   67.8187   68.4556   68.4556   70.3521   70.3521   71.1410   71.1410
   74.4326   74.4326   84.2703   84.2703   91.8534   91.8534   92.3550   92.3550   93.7266   93.7266
   98.7276   98.7276   99.3314   99.3314  101.5921  101.5921  103.6147  103.6147  104.7684  104.7684
  111.8399  111.8399  114.2378  114.2378  124.5186  124.5186  126.9073  126.9073  131.5996  131.5996
  137.5075  137.5075  140.0825  140.0825
siesta: Fermi energy =      -3.657779 eV

siesta: Program's energy decomposition (eV):
siesta: Ebs     =     -1121.399389
siesta: Eions   =      3585.165840
siesta: Ena     =       381.770673
siesta: Ekin    =      2902.807131
siesta: Enl     =     -2788.009681
siesta: Eso     =        -0.004281
siesta: Edftu   =         0.000000
siesta: DEna    =        47.241941
siesta: DUscf   =        14.024300
siesta: DUext   =         0.000000
siesta: Exc     =     -1119.788429
siesta: eta*DQ  =         0.000000
siesta: Emadel  =         0.000000
siesta: Emeta   =         0.000000
siesta: Emolmec =         0.000000
siesta: Ekinion =         0.000000
siesta: Eharris =     -4147.124186
siesta: Etot    =     -4147.124186
siesta: FreeEng =     -4147.124186

siesta: Final energy (eV):
siesta:  Band Struct. =   -1121.399389
siesta:       Kinetic =    2902.807131
siesta:       Hartree =   15045.949169
siesta:       Edftu   =       0.000000
siesta:       Eso     =      -0.004281
siesta:    Ext. field =       0.000000
siesta:   Exch.-corr. =   -1119.788429
siesta:  Ion-electron =  -32662.499780
siesta:       Ion-ion =   11686.412004
siesta:       Ekinion =       0.000000
siesta:         Total =   -4147.124186
siesta:         Fermi =      -3.657779

siesta: Atomic forces (eV/Ang):
siesta:      1    0.127270   -0.066693   -0.000000
siesta:      2   -0.314564    0.213707   -0.000000
siesta:      3    0.281318   -0.037467    0.000000
siesta:      4   -0.026658    0.159932    0.000000
siesta:      5   -0.143879   -0.141691   -0.000000
siesta:      6    0.019697    0.066157   -0.000000
siesta:      7    0.856022    0.618349    0.000000
siesta:      8    0.814348   -1.954154    0.000000
siesta:      9   -0.975341    1.355018   -0.000000
siesta:     10    0.163136   -0.179546    0.000000
siesta:     11   -0.621781   -0.216521    0.000000
siesta:     12    0.763352   -0.213726   -0.000000
siesta:     13   -0.509246    3.867873    0.000000
siesta:     14   -0.017100   -0.021490   -0.000000
siesta:     15    0.072753    0.024391    0.000000
siesta:     16    0.004476   -0.016146    0.000000
siesta:     17   -0.004445    0.045021   -0.000000
siesta:     18   -0.039909    0.028593   -0.000000
siesta:     19    0.176136    0.014574   -0.000000
siesta:     20   -0.933824   -0.072198   -0.000000
siesta:     21    0.861348   -3.569346    0.000000
siesta:     22    0.154574    0.565737    0.000000
siesta:     23    0.202505   -0.445370   -0.000000
siesta:     24   -0.248693   -0.580470   -0.000000
siesta:     25   -0.488695    1.298724   -0.000000
siesta:     26    0.608904   -0.870160    0.000000
siesta:     27   -0.143932    0.061505    0.000000
siesta:     28    0.025897    0.472449    0.000000
siesta:     29   -0.209960   -0.265354    0.000000
siesta: ----------------------------------------
siesta:    Tot    0.453714    0.141698    0.000000

siesta: Stress tensor (static) (eV/Ang**3):
siesta:     0.000361   -0.000321   -0.000000
siesta:    -0.000321    0.000220    0.000000
siesta:    -0.000000    0.000000   -0.000025

siesta: Cell volume =      13500.000000 Ang**3

siesta: Pressure (static):
siesta:                Solid            Molecule  Units
siesta:          -0.00000202         -0.00000603  Ry/Bohr**3
siesta:          -0.00018508         -0.00055363  eV/Ang**3
siesta:          -0.29653172         -0.88702800  kBar
(Free)E+ p_basis*V_orbitals  =       -4127.273769
(Free)Eharris+ p_basis*V_orbitals  =       -4127.273769
     spin moment: S , {S} =    0.00000  -0.00000  -0.00000   0.00000

siesta: Electric dipole (a.u.)  =   -0.033403    1.515080    0.000000
siesta: Electric dipole (Debye) =   -0.084901    3.850951    0.000000

cite: Please see "GC.bib" for an exhaustive BiBTeX file.
cite: Please clearly indicate Siesta version in published work: v4.1.5-1-g384057250
cite: This calculation has made use of the following articles
cite: which are encouraged to be cited in a published work.
        Primary SIESTA paper
          DOI: www.doi.org/10.1088/0953-8984/14/11/302
        Spin-orbit coupling (on-site approximation)
          DOI: www.doi.org/10.1088/0953-8984/19/19/489001


WARNING: alloc-realloc-dealloc name mismatch
         Name: atomlist isa
         Size:              -116. Bytes
         Node:     0
         Subsequent mismatches will not be reported
>> End of run:   1-FEB-2024  21:54:59
Job completed
