Siesta Version  : v4.1.5-1-g384057250
Architecture    : gcc
Compiler version: GNU Fortran (Debian 10.2.1-6) 10.2.1 20210110
Compiler flags  : mpifort -O2 -fPIC -ftree-vectorize -fallow-argument-mismatch
PP flags        : -DFC_HAVE_ABORT -DMPI -DSIESTA__FLOOK -DSIESTA__METIS -DSIESTA__MUMPS -DCDF -DNCDF -DNCDF_4 -DNCDF_PARALLEL -DSIESTA__MRRR -DSIESTA__ELPA
Libraries       : libncdf.a libfdict.a  -lflookall -ldl -lnetcdff -lnetcdf -lhdf5_hl -lhdf5 -lhdf5_fortran -lz -lscalapack-openmpi -lopenblas -lmetis -lzmumps -lcmumps -ldmumps -lmumps_common -lpord -lsmumps -lesmumps -lscotch -lscotcherr -fopenmp -lelpa
PARALLEL version
NetCDF support
NetCDF-4 support
NetCDF-4 MPI-IO support
METIS ordering support
Lua support

* Running on 6 nodes in parallel
>> Start of run:  16-OCT-2023  18:28:38

                           ***********************       
                           *  WELCOME TO SIESTA  *       
                           ***********************       

reinit: Reading from standard input
reinit: Dumped input in INPUT_TMP.74264
************************** Dump of input data file ****************************
# mpirun -np 4 siesta-4.1.5 < GC.fdf > GC.out &
SystemLabel      GC
NumberOfAtoms    29
NumberOfSpecies  4
%block ChemicalSpeciesLabel
    1    1  H
    2    7  N
    3   14  Si
    4    8  O
%endblock ChemicalSpeciesLabel
############################################
# This overrides Defaults.fdf configuration
############################################
MD.TypeOfRun                CG # CG, Verlet
MD.Steps                    0
MaxSCFIterations            600
AtomicCoordinatesFormat NotScaledCartesianAng
%block AtomicCoordinatesAndAtomicSpecies
    0.5174179410810911 4.366918398305737 0.0  1  1  H
    -0.18906878891890888 3.5768822183057365 0.0  2  2  N
    -1.919355698918909 4.018246128305736 0.0  3  3  Si
    -2.075135378918909 5.508238388305736 0.0  1  4  H
    -3.442677318918909 2.4593386083057363 0.0  3  5  Si
    -4.9258649489189095 2.7021689683057364 0.0  1  6  H
    -2.244286458918909 0.5460624483057364 0.0  3  7  Si
    -3.0103119189189087 -0.9866542916942637 0.0  2  8  N
    -2.420065368918909 -1.9438673216942637 0.0  1  9  H
    -4.061934238918909 -1.0671145216942635 0.0  1  10  H
    -0.5280863989189089 0.6012367583057364 0.0  2  11  N
    0.5469362210810911 1.9315755983057366 0.0  3  12  Si
    2.155609541081091 1.9127653383057366 0.0  4  13  O
    5.6164483 -7.44953905 0.0  1  14  H
    4.58206954 -7.2320376 0.0  2  15  N
    3.29666389 -8.492636 0.0  3  16  Si
    3.80117524 -9.90371886 -0.0  1  17  H
    1.65934232 -8.01362137 0.0  2  18  N
    1.68097912 -6.20463398 -0.0  3  19  Si
    0.54543521 -4.28636135 0.0  3  20  Si
    -1.03431493 -3.94450034 0.0  4  21  O
    1.73226934 -2.87719605 0.0  2  22  N
    1.20957366 -1.92961761 -0.0  1  23  H
    3.50853448 -2.77677601 0.0  3  24  Si
    4.13684451 -1.17938608 0.0  2  25  N
    3.54296161 -0.26248101 0.0  1  26  H
    5.18364407 -1.05231197 -0.0  1  27  H
    4.63288658 -4.07521596 -0.0  2  28  N
    3.79410501 -5.58634043 0.0  3  29  Si
%endblock AtomicCoordinatesAndAtomicSpecies
%include ../../../../Defaults.fdf
************************** End of input data file *****************************

reinit: -----------------------------------------------------------------------
reinit: System Name: 
reinit: -----------------------------------------------------------------------
reinit: System Label: GC
reinit: -----------------------------------------------------------------------

initatom: Reading input for the pseudopotentials and atomic orbitals ----------
Species number:   1 Atomic number:    1 Label: H
Species number:   2 Atomic number:    7 Label: N
Species number:   3 Atomic number:   14 Label: Si
Species number:   4 Atomic number:    8 Label: O

Ground state valence configuration:   1s01
Reading pseudopotential information in formatted form from H.psf

Pseudopotential generated from a relativistic atomic calculation

Valence configuration for pseudopotential generation:
1s( 1.00) rc: 0.01
2p( 0.00) rc: 0.60
3d( 0.00) rc: 1.99
4f( 0.00) rc: 2.49
Ground state valence configuration:   2s02  2p03
Reading pseudopotential information in formatted form from N.psf

Pseudopotential generated from a relativistic atomic calculation

Valence configuration for pseudopotential generation:
2s( 2.00) rc: 0.94
2p( 3.00) rc: 0.59
3d( 0.00) rc: 3.46
4f( 0.00) rc: 2.47
Ground state valence configuration:   3s02  3p02
Reading pseudopotential information in formatted form from Si.psf

Pseudopotential generated from a relativistic atomic calculation

Valence configuration for pseudopotential generation:
3s( 2.00) rc: 1.67
3p( 2.00) rc: 2.04
3d( 0.00) rc: 2.89
4f( 0.00) rc: 2.49
Ground state valence configuration:   2s02  2p04
Reading pseudopotential information in formatted form from O.psf

Pseudopotential generated from a relativistic atomic calculation

Valence configuration for pseudopotential generation:
2s( 2.00) rc: 0.45
2p( 4.00) rc: 0.92
3d( 0.00) rc: 2.24
4f( 0.00) rc: 0.25
For H, standard SIESTA heuristics set lmxkb to 2
 (one more than the basis l, including polarization orbitals).
Use PS.lmax or PS.KBprojectors blocks to override.
For N, standard SIESTA heuristics set lmxkb to 3
 (one more than the basis l, including polarization orbitals).
Use PS.lmax or PS.KBprojectors blocks to override.
For Si, standard SIESTA heuristics set lmxkb to 3
 (one more than the basis l, including polarization orbitals).
Use PS.lmax or PS.KBprojectors blocks to override.
For O, standard SIESTA heuristics set lmxkb to 3
 (one more than the basis l, including polarization orbitals).
Use PS.lmax or PS.KBprojectors blocks to override.

<basis_specs>
===============================================================================
H                    Z=   1    Mass=  1.0100        Charge= 0.17977+309
Lmxo=0 Lmxkb= 2    BasisType=split      Semic=F
L=0  Nsemic=0  Cnfigmx=1
          i=1  nzeta=2  polorb=1  (1s)
            splnorm:   0.62000    
               vcte:    0.0000    
               rinn:    0.0000    
               qcoe:    0.0000    
               qyuk:    0.0000    
               qwid:   0.10000E-01
                rcs:    0.0000      0.0000    
            lambdas:    1.0000      1.0000    
-------------------------------------------------------------------------------
L=0  Nkbl=1  erefs: 0.17977+309
L=1  Nkbl=1  erefs: 0.17977+309
L=2  Nkbl=1  erefs: 0.17977+309
===============================================================================
</basis_specs>

atom: Called for H                     (Z =   1)

read_vps: Pseudopotential generation method:
read_vps: ATM4.2.7  Troullier-Martins                       
Valence charge for ps generation:    1.00000

xc_check: Exchange-correlation functional:
xc_check: GGA Perdew, Burke & Ernzerhof 1996
V l=0 = -2*Zval/r beyond r=  0.0098
V l=1 = -2*Zval/r beyond r=  0.5817
V l=2 = -2*Zval/r beyond r=  1.9372
All V_l potentials equal beyond r=  1.9372
This should be close to max(r_c) in ps generation
All pots = -2*Zval/r beyond r=  1.9372

VLOCAL1: 99.0% of the norm of Vloc inside     11.567 Ry
VLOCAL1: 99.9% of the norm of Vloc inside     26.362 Ry
atom: Maximum radius for 4*pi*r*r*local-pseudopot. charge    2.25106
atom: Maximum radius for r*vlocal+2*Zval:    1.91306
GHOST: No ghost state for L =  0
GHOST: No ghost state for L =  1
GHOST: No ghost state for L =  2

KBgen: Kleinman-Bylander projectors: 
   l= 0   rc=  2.036604   el= -0.477180   Ekb= -6.081590   kbcos= -0.277285
   l= 1   rc=  2.195416   el=  0.001076   Ekb= -0.926943   kbcos= -0.034643
   l= 2   rc=  2.251056   el=  0.002010   Ekb= -0.130941   kbcos= -0.009788

KBgen: Total number of Kleinman-Bylander projectors:    9
atom: -------------------------------------------------------------------------

atom: SANKEY-TYPE ORBITALS:
atom: Selected multiple-zeta basis: split     

SPLIT: Orbitals with angular momentum L= 0

SPLIT: Basis orbitals for state 1s

SPLIT: PAO cut-off radius determined from an
SPLIT: energy shift=  0.002000 Ry

   izeta = 1
                 lambda =    1.000000
                     rc =    6.518340
                 energy =   -0.475305
                kinetic =    0.912139
    potential(screened) =   -1.387444
       potential(ionic) =   -1.907295

   izeta = 2
                 rmatch =    2.141150
              splitnorm =    0.620000
                 energy =    0.566467
                kinetic =    3.772856
    potential(screened) =   -3.206389
       potential(ionic) =   -3.759093

POLgen: Perturbative polarization orbital with L=  1

POLgen: Polarization orbital for state 1s

   izeta = 1
                     rc =    6.518340
                 energy =    0.533861
                kinetic =    1.121086
    potential(screened) =   -0.587225
       potential(ionic) =   -1.053027
atom: Total number of Sankey-type orbitals:  5

atm_pop: Valence configuration (for local Pseudopot. screening):
 1s( 1.00)                                                            
Vna: chval, zval:    1.00000   1.00000

Vna:  Cut-off radius for the neutral-atom potential:   6.518340

atom: _________________________________________________________________________

<basis_specs>
===============================================================================
N                    Z=   7    Mass=  14.010        Charge= 0.17977+309
Lmxo=1 Lmxkb= 3    BasisType=split      Semic=F
L=0  Nsemic=0  Cnfigmx=2
          i=1  nzeta=2  polorb=0  (2s)
            splnorm:   0.28000    
               vcte:    0.0000    
               rinn:    0.0000    
               qcoe:    0.0000    
               qyuk:    0.0000    
               qwid:   0.10000E-01
                rcs:    0.0000      0.0000    
            lambdas:    1.0000      1.0000    
L=1  Nsemic=0  Cnfigmx=2
          i=1  nzeta=2  polorb=1  (2p)
            splnorm:   0.28000    
               vcte:    0.0000    
               rinn:    0.0000    
               qcoe:    0.0000    
               qyuk:    0.0000    
               qwid:   0.10000E-01
                rcs:    0.0000      0.0000    
            lambdas:    1.0000      1.0000    
-------------------------------------------------------------------------------
L=0  Nkbl=1  erefs: 0.17977+309
L=1  Nkbl=1  erefs: 0.17977+309
L=2  Nkbl=1  erefs: 0.17977+309
L=3  Nkbl=1  erefs: 0.17977+309
===============================================================================
</basis_specs>

atom: Called for N                     (Z =   7)

read_vps: Pseudopotential generation method:
read_vps: ATM4.2.7  Troullier-Martins                       
Valence charge for ps generation:    5.00000

xc_check: Exchange-correlation functional:
xc_check: GGA Perdew, Burke & Ernzerhof 1996
V l=0 = -2*Zval/r beyond r=  1.2889
V l=1 = -2*Zval/r beyond r=  1.2889
V l=2 = -2*Zval/r beyond r=  3.4178
V l=3 = -2*Zval/r beyond r=  2.4084
All V_l potentials equal beyond r=  3.3753
This should be close to max(r_c) in ps generation
All pots = -2*Zval/r beyond r=  3.4178

VLOCAL1: 99.0% of the norm of Vloc inside      3.810 Ry
VLOCAL1: 99.9% of the norm of Vloc inside      8.683 Ry
atom: Maximum radius for 4*pi*r*r*local-pseudopot. charge    4.02088
atom: Maximum radius for r*vlocal+2*Zval:    3.54838
GHOST: No ghost state for L =  0
GHOST: No ghost state for L =  1
GHOST: No ghost state for L =  2
GHOST: No ghost state for L =  3

KBgen: Kleinman-Bylander projectors: 
   l= 0   rc=  3.417763   el= -1.365098   Ekb= -4.433130   kbcos= -0.707855
   l= 1   rc=  3.375302   el= -0.521201   Ekb=-13.264039   kbcos= -0.535594
   l= 2   rc=  3.872880   el=  0.001991   Ekb= -0.641094   kbcos= -0.062456
   l= 3   rc=  3.970931   el=  0.003093   Ekb= -0.474517   kbcos= -0.018236

KBgen: Total number of Kleinman-Bylander projectors:   16
atom: -------------------------------------------------------------------------

atom: SANKEY-TYPE ORBITALS:
atom: Selected multiple-zeta basis: split     

SPLIT: Orbitals with angular momentum L= 0

SPLIT: Basis orbitals for state 2s

SPLIT: PAO cut-off radius determined from an
SPLIT: energy shift=  0.002000 Ry

   izeta = 1
                 lambda =    1.000000
                     rc =    4.730425
                 energy =   -1.363399
                kinetic =    1.245246
    potential(screened) =   -2.608645
       potential(ionic) =   -8.121105

   izeta = 2
                 rmatch =    2.531849
              splitnorm =    0.280000
                 energy =   -0.959908
                kinetic =    2.409435
    potential(screened) =   -3.369343
       potential(ionic) =   -9.427975

SPLIT: Orbitals with angular momentum L= 1

SPLIT: Basis orbitals for state 2p

SPLIT: PAO cut-off radius determined from an
SPLIT: energy shift=  0.002000 Ry

   izeta = 1
                 lambda =    1.000000
                     rc =    5.924108
                 energy =   -0.519262
                kinetic =    3.672940
    potential(screened) =   -4.192202
       potential(ionic) =   -9.518354

   izeta = 2
                 rmatch =    2.531849
              splitnorm =    0.280000
                 energy =   -0.104258
                kinetic =    6.807538
    potential(screened) =   -6.911796
       potential(ionic) =  -13.149920

POLgen: Perturbative polarization orbital with L=  2

POLgen: Polarization orbital for state 2p

   izeta = 1
                     rc =    5.924108
                 energy =    1.427508
                kinetic =    2.872379
    potential(screened) =   -1.444871
       potential(ionic) =   -5.563644
atom: Total number of Sankey-type orbitals: 13

atm_pop: Valence configuration (for local Pseudopot. screening):
 2s( 2.00)                                                            
 2p( 3.00)                                                            
Vna: chval, zval:    5.00000   5.00000

Vna:  Cut-off radius for the neutral-atom potential:   5.924108

atom: _________________________________________________________________________

<basis_specs>
===============================================================================
Si                   Z=  14    Mass=  28.090        Charge= 0.17977+309
Lmxo=1 Lmxkb= 3    BasisType=split      Semic=F
L=0  Nsemic=0  Cnfigmx=3
          i=1  nzeta=2  polorb=0  (3s)
            splnorm:   0.28000    
               vcte:    0.0000    
               rinn:    0.0000    
               qcoe:    0.0000    
               qyuk:    0.0000    
               qwid:   0.10000E-01
                rcs:    0.0000      0.0000    
            lambdas:    1.0000      1.0000    
L=1  Nsemic=0  Cnfigmx=3
          i=1  nzeta=2  polorb=1  (3p)
            splnorm:   0.28000    
               vcte:    0.0000    
               rinn:    0.0000    
               qcoe:    0.0000    
               qyuk:    0.0000    
               qwid:   0.10000E-01
                rcs:    0.0000      0.0000    
            lambdas:    1.0000      1.0000    
-------------------------------------------------------------------------------
L=0  Nkbl=1  erefs: 0.17977+309
L=1  Nkbl=1  erefs: 0.17977+309
L=2  Nkbl=1  erefs: 0.17977+309
L=3  Nkbl=1  erefs: 0.17977+309
===============================================================================
</basis_specs>

atom: Called for Si                    (Z =  14)

read_vps: Pseudopotential generation method:
read_vps: ATM4.2.7  Troullier-Martins                       
Valence charge for ps generation:    4.00000

xc_check: Exchange-correlation functional:
xc_check: GGA Perdew, Burke & Ernzerhof 1996
V l=0 = -2*Zval/r beyond r=  2.7826
V l=1 = -2*Zval/r beyond r=  2.7826
V l=2 = -2*Zval/r beyond r=  2.9253
V l=3 = -2*Zval/r beyond r=  2.7826
All V_l potentials equal beyond r=  2.8530
This should be close to max(r_c) in ps generation
All pots = -2*Zval/r beyond r=  2.9253

VLOCAL1: 99.0% of the norm of Vloc inside      5.333 Ry
VLOCAL1: 99.9% of the norm of Vloc inside     12.154 Ry
atom: Maximum radius for 4*pi*r*r*local-pseudopot. charge    3.39869
atom: Maximum radius for r*vlocal+2*Zval:    2.96205
GHOST: No ghost state for L =  0
GHOST: No ghost state for L =  1
GHOST: No ghost state for L =  2
GHOST: No ghost state for L =  3

KBgen: Kleinman-Bylander projectors: 
   l= 0   rc=  3.075247   el= -0.794092   Ekb=  5.879390   kbcos=  0.167461
   l= 1   rc=  3.153101   el= -0.300068   Ekb=  2.642817   kbcos=  0.058301
   l= 2   rc=  3.273594   el=  0.001958   Ekb= -1.185135   kbcos= -0.104411
   l= 3   rc=  3.232927   el=  0.003046   Ekb= -0.497174   kbcos= -0.015889

KBgen: Total number of Kleinman-Bylander projectors:   16
atom: -------------------------------------------------------------------------

atom: SANKEY-TYPE ORBITALS:
atom: Selected multiple-zeta basis: split     

SPLIT: Orbitals with angular momentum L= 0

SPLIT: Basis orbitals for state 3s

SPLIT: PAO cut-off radius determined from an
SPLIT: energy shift=  0.002000 Ry

   izeta = 1
                 lambda =    1.000000
                     rc =    6.429618
                 energy =   -0.792283
                kinetic =    0.525293
    potential(screened) =   -1.317576
       potential(ionic) =   -3.744923

   izeta = 2
                 rmatch =    3.998416
              splitnorm =    0.280000
                 energy =   -0.583081
                kinetic =    1.069570
    potential(screened) =   -1.652651
       potential(ionic) =   -4.235185

SPLIT: Orbitals with angular momentum L= 1

SPLIT: Basis orbitals for state 3p

SPLIT: PAO cut-off radius determined from an
SPLIT: energy shift=  0.002000 Ry

   izeta = 1
                 lambda =    1.000000
                     rc =    8.464845
                 energy =   -0.298236
                kinetic =    0.785360
    potential(screened) =   -1.083596
       potential(ionic) =   -3.273779

   izeta = 2
                 rmatch =    4.587816
              splitnorm =    0.280000
                 energy =   -0.131871
                kinetic =    1.403687
    potential(screened) =   -1.535557
       potential(ionic) =   -4.015310

POLgen: Perturbative polarization orbital with L=  2

POLgen: Polarization orbital for state 3p

   izeta = 1
                     rc =    8.464845
                 energy =    0.321949
                kinetic =    1.055677
    potential(screened) =   -0.733728
       potential(ionic) =   -2.672950
atom: Total number of Sankey-type orbitals: 13

atm_pop: Valence configuration (for local Pseudopot. screening):
 3s( 2.00)                                                            
 3p( 2.00)                                                            
Vna: chval, zval:    4.00000   4.00000

Vna:  Cut-off radius for the neutral-atom potential:   8.464845

atom: _________________________________________________________________________

<basis_specs>
===============================================================================
O                    Z=   8    Mass=  16.000        Charge= 0.17977+309
Lmxo=1 Lmxkb= 3    BasisType=split      Semic=F
L=0  Nsemic=0  Cnfigmx=2
          i=1  nzeta=2  polorb=0  (2s)
            splnorm:   0.28000    
               vcte:    0.0000    
               rinn:    0.0000    
               qcoe:    0.0000    
               qyuk:    0.0000    
               qwid:   0.10000E-01
                rcs:    0.0000      0.0000    
            lambdas:    1.0000      1.0000    
L=1  Nsemic=0  Cnfigmx=2
          i=1  nzeta=2  polorb=1  (2p)
            splnorm:   0.28000    
               vcte:    0.0000    
               rinn:    0.0000    
               qcoe:    0.0000    
               qyuk:    0.0000    
               qwid:   0.10000E-01
                rcs:    0.0000      0.0000    
            lambdas:    1.0000      1.0000    
-------------------------------------------------------------------------------
L=0  Nkbl=1  erefs: 0.17977+309
L=1  Nkbl=1  erefs: 0.17977+309
L=2  Nkbl=1  erefs: 0.17977+309
L=3  Nkbl=1  erefs: 0.17977+309
===============================================================================
</basis_specs>

atom: Called for O                     (Z =   8)

read_vps: Pseudopotential generation method:
read_vps: ATM4.2.7  Troullier-Martins                       
Valence charge for ps generation:    6.00000

xc_check: Exchange-correlation functional:
xc_check: GGA Perdew, Burke & Ernzerhof 1996
V l=0 = -2*Zval/r beyond r=  1.1000
V l=1 = -2*Zval/r beyond r=  1.1000
V l=2 = -2*Zval/r beyond r=  2.2154
V l=3 = -2*Zval/r beyond r=  1.1000
All V_l potentials equal beyond r=  2.2154
This should be close to max(r_c) in ps generation
All pots = -2*Zval/r beyond r=  2.2154

VLOCAL1: 99.0% of the norm of Vloc inside      8.845 Ry
VLOCAL1: 99.9% of the norm of Vloc inside     20.157 Ry
atom: Maximum radius for 4*pi*r*r*local-pseudopot. charge    2.67231
atom: Maximum radius for r*vlocal+2*Zval:    2.32897
GHOST: No ghost state for L =  0
GHOST: No ghost state for L =  1
GHOST: No ghost state for L =  2
GHOST: No ghost state for L =  3

KBgen: Kleinman-Bylander projectors: 
   l= 0   rc=  2.243238   el= -1.759686   Ekb=**********   kbcos= -0.171774
   l= 1   rc=  2.328968   el= -0.663873   Ekb=-14.506792   kbcos= -0.519897
   l= 2   rc=  2.573941   el=  0.002031   Ekb= -1.137373   kbcos= -0.019581
   l= 3   rc=  2.606321   el=  0.003153   Ekb= -1.013546   kbcos= -0.003122

KBgen: Total number of Kleinman-Bylander projectors:   16
atom: -------------------------------------------------------------------------

atom: SANKEY-TYPE ORBITALS:
atom: Selected multiple-zeta basis: split     

SPLIT: Orbitals with angular momentum L= 0

SPLIT: Basis orbitals for state 2s

SPLIT: PAO cut-off radius determined from an
SPLIT: energy shift=  0.002000 Ry

   izeta = 1
                 lambda =    1.000000
                     rc =    4.243912
                 energy =   -1.758270
                kinetic =    3.286084
    potential(screened) =   -5.044353
       potential(ionic) =  -12.921184

   izeta = 2
                 rmatch =    2.187845
              splitnorm =    0.280000
                 energy =   -0.885018
                kinetic =    8.134434
    potential(screened) =   -9.019452
       potential(ionic) =  -17.710645

SPLIT: Orbitals with angular momentum L= 1

SPLIT: Basis orbitals for state 2p

SPLIT: PAO cut-off radius determined from an
SPLIT: energy shift=  0.002000 Ry

   izeta = 1
                 lambda =    1.000000
                     rc =    5.314825
                 energy =   -0.661986
                kinetic =    4.917472
    potential(screened) =   -5.579458
       potential(ionic) =  -13.236259

   izeta = 2
                 rmatch =    2.160663
              splitnorm =    0.280000
                 energy =   -0.068760
                kinetic =    9.183374
    potential(screened) =   -9.252135
       potential(ionic) =  -18.274251

POLgen: Perturbative polarization orbital with L=  2

POLgen: Polarization orbital for state 2p

   izeta = 1
                     rc =    5.314825
                 energy =    1.970580
                kinetic =    3.886128
    potential(screened) =   -1.915547
       potential(ionic) =   -7.749584
atom: Total number of Sankey-type orbitals: 13

atm_pop: Valence configuration (for local Pseudopot. screening):
 2s( 2.00)                                                            
 2p( 4.00)                                                            
Vna: chval, zval:    6.00000   6.00000

Vna:  Cut-off radius for the neutral-atom potential:   5.314825

atom: _________________________________________________________________________

prinput: Basis input ----------------------------------------------------------

PAO.BasisType split     

%block ChemicalSpeciesLabel
    1    1 H                       # Species index, atomic number, species label
    2    7 N                       # Species index, atomic number, species label
    3   14 Si                      # Species index, atomic number, species label
    4    8 O                       # Species index, atomic number, species label
%endblock ChemicalSpeciesLabel

%block PAO.Basis                 # Define Basis set
H                     1                    # Species label, number of l-shells
 n=1   0   2 P   1                   # n, l, Nzeta, Polarization, NzetaPol
   6.518      2.141   
   1.000      1.000   
N                     2                    # Species label, number of l-shells
 n=2   0   2                         # n, l, Nzeta 
   4.730      2.532   
   1.000      1.000   
 n=2   1   2 P   1                   # n, l, Nzeta, Polarization, NzetaPol
   5.924      2.532   
   1.000      1.000   
Si                    2                    # Species label, number of l-shells
 n=3   0   2                         # n, l, Nzeta 
   6.430      3.998   
   1.000      1.000   
 n=3   1   2 P   1                   # n, l, Nzeta, Polarization, NzetaPol
   8.465      4.588   
   1.000      1.000   
O                     2                    # Species label, number of l-shells
 n=2   0   2                         # n, l, Nzeta 
   4.244      2.188   
   1.000      1.000   
 n=2   1   2 P   1                   # n, l, Nzeta, Polarization, NzetaPol
   5.315      2.161   
   1.000      1.000   
%endblock PAO.Basis

prinput: ----------------------------------------------------------------------

Dumping basis to NetCDF file H.ion.nc
Dumping basis to NetCDF file N.ion.nc
Dumping basis to NetCDF file Si.ion.nc
Dumping basis to NetCDF file O.ion.nc
coor:   Atomic-coordinates input format  =     Cartesian coordinates
coor:                                          (in Angstroms)

siesta: Atomic coordinates (Bohr) and species
siesta:      0.97778   8.25228   0.00000  1        1
siesta:     -0.35729   6.75933   0.00000  2        2
siesta:     -3.62706   7.59339   0.00000  3        3
siesta:     -3.92144  10.40907   0.00000  1        4
siesta:     -6.50572   4.64748   0.00000  3        5
siesta:     -9.30854   5.10636   0.00000  1        6
siesta:     -4.24109   1.03191   0.00000  3        7
siesta:     -5.68867  -1.86451   0.00000  2        8
siesta:     -4.57326  -3.67338   0.00000  1        9
siesta:     -7.67595  -2.01655   0.00000  1       10
siesta:     -0.99794   1.13617   0.00000  2       11
siesta:      1.03356   3.65015   0.00000  3       12
siesta:      4.07351   3.61460   0.00000  4       13
siesta:     10.61355 -14.07759   0.00000  1       14
siesta:      8.65886 -13.66658   0.00000  2       15
siesta:      6.22979 -16.04876   0.00000  3       16
siesta:      7.18318 -18.71532  -0.00000  1       17
siesta:      3.13570 -15.14356   0.00000  2       18
siesta:      3.17659 -11.72506  -0.00000  3       19
siesta:      1.03072  -8.10005   0.00000  3       20
siesta:     -1.95457  -7.45403   0.00000  4       21
siesta:      3.27352  -5.43711   0.00000  2       22
siesta:      2.28576  -3.64645  -0.00000  1       23
siesta:      6.63017  -5.24735   0.00000  3       24
siesta:      7.81751  -2.22872   0.00000  2       25
siesta:      6.69523  -0.49602   0.00000  1       26
siesta:      9.79567  -1.98858  -0.00000  1       27
siesta:      8.75489  -7.70105  -0.00000  2       28
siesta:      7.16982 -10.55666   0.00000  3       29

siesta: Automatic unit cell vectors (Ang):
siesta:   19.185127    0.000000    0.000000
siesta:    0.000000   24.541736    0.000000
siesta:    0.000000    0.000000    9.854683

siesta: System type = molecule  

initatomlists: Number of atoms, orbitals, and projectors:     29   297   394

siesta: ******************** Simulation parameters ****************************
siesta:
siesta: The following are some of the parameters of the simulation.
siesta: A complete list of the parameters used, including default values,
siesta: can be found in file out.fdf
siesta:
redata: Spin configuration                          = spin-orbit
redata: Number of spin components                   = 8
redata: Time-Reversal Symmetry                      = F
redata: Spin spiral                                 = F
############################################################
This spin-orbit implementation uses a local approximation.
From 4.2 and onwards the full non-local approximation is implemented
You are strongly advised to use >=4.2 versions!
############################################################
redata: Long output                                 =   F
redata: Number of Atomic Species                    =        4
redata: Charge density info will appear in .RHO file
redata: Write Mulliken Pop.                         = NO
redata: Matel table size (NRTAB)                    =     1024
redata: Mesh Cutoff                                 =   340.0000 Ry
redata: Net charge of the system                    =     0.0000 |e|
redata: Min. number of SCF Iter                     =        1
redata: Max. number of SCF Iter                     =      600
redata: SCF convergence failure will abort job
redata: SCF mix quantity                            = Hamiltonian
redata: Mix DM or H after convergence               =   F
redata: Recompute H after scf cycle                 =   F
redata: Mix DM in first SCF step                    =   T
redata: Write Pulay info on disk                    =   F
redata: New DM Occupancy tolerance                  = 0.000000000001
redata: No kicks to SCF
redata: DM Mixing Weight for Kicks                  =     0.5000
redata: Require Harris convergence for SCF          =   F
redata: Harris energy tolerance for SCF             =     0.000100 eV
redata: Require DM convergence for SCF              =   T
redata: DM tolerance for SCF                        =     0.000008
redata: Require EDM convergence for SCF             =   F
redata: EDM tolerance for SCF                       =     0.001000 eV
redata: Require H convergence for SCF               =   T
redata: Hamiltonian tolerance for SCF               =     0.000001 eV
redata: Require (free) Energy convergence for SCF   =   F
redata: (free) Energy tolerance for SCF             =     0.000100 eV
redata: Using Saved Data (generic)                  =   F
redata: Use continuation files for DM               =   T
redata: Neglect nonoverlap interactions             =   F
redata: Method of Calculation                       = Diagonalization
redata: Electronic Temperature                      =   299.9978 K
redata: Fix the spin of the system                  =   F
redata: Dynamics option                             = Single-point calculation
mix.SCF: Pulay mixing                            = Pulay
mix.SCF:    Variant                              = stable
mix.SCF:    History steps                        = 6
mix.SCF:    Linear mixing weight                 =     0.250000
mix.SCF:    Mixing weight                        =     0.250000
mix.SCF:    SVD condition                        = 0.1000E-07
mix.SCF:    Restart steps                        = 24
mix.SCF:    Restart save steps                   = 3
mix.SCF: Spin-component mixing                   all
redata: Save all siesta data in one NC              =   F
redata: ***********************************************************************

%block SCF.Mixers
  Pulay
%endblock SCF.Mixers

%block SCF.Mixer.Pulay
  # Mixing method
  method pulay
  variant stable

  # Mixing options
  weight 0.2500
  weight.linear 0.2500
  history 6
  restart 24
  restart.save 3
%endblock SCF.Mixer.Pulay

DM_history_depth set to one: no extrapolation allowed by default for geometry relaxation
Size of DM history Fstack: 1
Total number of electrons:    98.000000
Total ionic charge:    98.000000

* ProcessorY, Blocksize:    2  24


* Orbital distribution balance (max,min):    57    48


Time-reversal symmetry not used.

siesta: k-grid: Number of k-points =     1
siesta: k-grid: Cutoff (effective) =     4.927 Ang
siesta: k-grid: Supercell and displacements
siesta: k-grid:    1   0   0      0.000
siesta: k-grid:    0   1   0      0.000
siesta: k-grid:    0   0   1      0.000

diag: Algorithm                                     = ELPA-1stage
diag: Parallel over k                               =   F
diag: Use parallel 2D distribution                  =   T
diag: Parallel block-size                           = 24
diag: Parallel distribution                         =     2 x     3
diag: Used triangular part                          = Lower
diag: Absolute tolerance                            =  0.100E-15
diag: Orthogonalization factor                      =  0.100E-05
diag: Memory factor                                 =  1.0000


ts: **************************************************************
ts: Save H and S matrices                           =    F
ts: Save DM and EDM matrices                        =    F
ts: Only save the overlap matrix S                  =    F
ts: **************************************************************

************************ Begin: TS CHECKS AND WARNINGS ************************
************************ End: TS CHECKS AND WARNINGS **************************


                     ====================================
                        Single-point calculation
                     ====================================

outcoor: Atomic coordinates (Ang):                          
    0.51741794    4.36691840    0.00000000   1       1  H
   -0.18906879    3.57688222    0.00000000   2       2  N
   -1.91935570    4.01824613    0.00000000   3       3  Si
   -2.07513538    5.50823839    0.00000000   1       4  H
   -3.44267732    2.45933861    0.00000000   3       5  Si
   -4.92586495    2.70216897    0.00000000   1       6  H
   -2.24428646    0.54606245    0.00000000   3       7  Si
   -3.01031192   -0.98665429    0.00000000   2       8  N
   -2.42006537   -1.94386732    0.00000000   1       9  H
   -4.06193424   -1.06711452    0.00000000   1      10  H
   -0.52808640    0.60123676    0.00000000   2      11  N
    0.54693622    1.93157560    0.00000000   3      12  Si
    2.15560954    1.91276534    0.00000000   4      13  O
    5.61644830   -7.44953905    0.00000000   1      14  H
    4.58206954   -7.23203760    0.00000000   2      15  N
    3.29666389   -8.49263600    0.00000000   3      16  Si
    3.80117524   -9.90371886    0.00000000   1      17  H
    1.65934232   -8.01362137    0.00000000   2      18  N
    1.68097912   -6.20463398    0.00000000   3      19  Si
    0.54543521   -4.28636135    0.00000000   3      20  Si
   -1.03431493   -3.94450034    0.00000000   4      21  O
    1.73226934   -2.87719605    0.00000000   2      22  N
    1.20957366   -1.92961761    0.00000000   1      23  H
    3.50853448   -2.77677601    0.00000000   3      24  Si
    4.13684451   -1.17938608    0.00000000   2      25  N
    3.54296161   -0.26248101    0.00000000   1      26  H
    5.18364407   -1.05231197    0.00000000   1      27  H
    4.63288658   -4.07521596    0.00000000   2      28  N
    3.79410501   -5.58634043    0.00000000   3      29  Si

outcell: Unit cell vectors (Ang):
       19.185127    0.000000    0.000000
        0.000000   24.541736    0.000000
        0.000000    0.000000    9.854683

outcell: Cell vector modules (Ang)   :   19.185127   24.541736    9.854683
outcell: Cell angles (23,13,12) (deg):     90.0000     90.0000     90.0000
outcell: Cell volume (Ang**3)        :   4639.9429
<dSpData1D:S at geom step 0
  <sparsity:sparsity for geom step 0
    nrows_g=297 nrows=57 sparsity=.1220 nnzs=10758, refcount: 8>
  <dData1D:(new from dSpData1D) n=10758, refcount: 1>
refcount: 1>
new_DM -- step:     1
Initializing Density Matrix...

Attempting to read DM from file... Failed...
DM filled with atomic data:
<dSpData2D:DM initialized from atoms
  <sparsity:sparsity for geom step 0
    nrows_g=297 nrows=57 sparsity=.1220 nnzs=10758, refcount: 9>
  <dData2D:DM n=10758 m=8, refcount: 1>
refcount: 1>
     spin moment: S , {S} =   56.00000   0.00000   0.00000  56.00000
No. of atoms with KB's overlaping orbs in proc 0. Max # of overlaps:      28     189

Initializing spin-orbit part of the Hamiltonian
  Adding spin-orbit effects for H 
  Adding spin-orbit effects for N 
  Adding spin-orbit effects for Si
  Adding spin-orbit effects for O 


New grid distribution:   1
           1       1:  108    1:   72    1:   20
           2       1:  108    1:   72   21:   40
           3       1:  108    1:   72   41:   60
           4       1:  108   73:  144    1:   20
           5       1:  108   73:  144   21:   40
           6       1:  108   73:  144   41:   60

InitMesh: MESH =   216 x   288 x   120 =     7464960
InitMesh: (bp) =   108 x   144 x    60 =      933120
InitMesh: Mesh cutoff (required, used) =   340.000   350.332 Ry
ExtMesh (bp) on 0 =   212 x   180 x   132 =     5037120
New grid distribution:   2
           1      19:  108   20:  106    1:   60
           2      16:  108  127:  144    1:   60
           3       1:   15  107:  144    1:   60
           4      16:  108  107:  126    1:   60
           5       1:   18    1:  106    1:   60
           6      19:  108    1:   19    1:   60
New grid distribution:   3
           1      23:  108   23:   92    1:   60
           2       1:   22    1:   92    1:   60
           3       1:   22   93:  144    1:   60
           4      23:  108  124:  144    1:   60
           5      23:  108   93:  123    1:   60
           6      23:  108    1:   22    1:   60
Setting up quadratic distribution...
ExtMesh (bp) on 0 =   194 x   195 x   172 =     6506760
PhiOnMesh: Number of (b)points on node 0 =               469800
PhiOnMesh: nlist on node 0 =              2187297

stepf: Fermi-Dirac step function

siesta: Program's energy decomposition (eV):
siesta: Ebs     =      -618.035394
siesta: Eions   =      3585.165840
siesta: Ena     =       381.759572
siesta: Ekin    =      3363.086203
siesta: Enl     =     -3292.172326
siesta: Eso     =        -0.003426
siesta: Edftu   =         0.000000
siesta: DEna    =       153.115065
siesta: DUscf   =        79.376544
siesta: DUext   =         0.000000
siesta: Exc     =     -1202.735202
siesta: eta*DQ  =         0.000000
siesta: Emadel  =         0.000000
siesta: Emeta   =         0.000000
siesta: Emolmec =         0.000000
siesta: Ekinion =         0.000000
siesta: Eharris =     -4027.271109
siesta: Etot    =     -4102.739411
siesta: FreeEng =     -4102.740425

        iscf     Eharris(eV)        E_KS(eV)     FreeEng(eV)     dDmax    Ef(eV) dHmax(eV)
   scf:    1    -4027.271109    -4102.739411    -4102.740425  0.962221 -4.904383 21.197793
     spin moment: S , {S} =    2.00569   0.00000   0.00000   2.00569
timer: Routine,Calls,Time,% = IterSCF        1       5.975  23.46
   scf:    2    -4149.052473    -4137.532583    -4137.534618  0.458749 -4.201547 11.047350
     spin moment: S , {S} =    1.98858  -0.00000  -0.00000   1.98858
   scf:    3    -4110.705708    -4134.923020    -4134.931274  0.428209 -4.298958 11.379532
     spin moment: S , {S} =    2.00023  -0.00000   0.00000   2.00023
   scf:    4    -4150.404448    -4145.773650    -4145.773650  0.328444 -3.897747  6.304965
     spin moment: S , {S} =    0.00009  -0.00000  -0.00000   0.00009
   scf:    5    -4146.913653    -4146.436614    -4146.436614  0.035138 -3.698768  4.396117
     spin moment: S , {S} =    0.00006  -0.00000  -0.00000   0.00006
   scf:    6    -4147.202894    -4146.825677    -4146.825677  0.024746 -3.570132  2.150857
     spin moment: S , {S} =    0.00003  -0.00000   0.00000   0.00003
   scf:    7    -4147.178731    -4146.999425    -4146.999425  0.021631 -3.736133  0.873501
     spin moment: S , {S} =    0.00001  -0.00000   0.00000   0.00001
   scf:    8    -4147.117390    -4147.056649    -4147.056649  0.012278 -3.761474  0.478552
     spin moment: S , {S} =    0.00000  -0.00000  -0.00000   0.00000
   scf:    9    -4147.095914    -4147.075624    -4147.075624  0.006761 -3.791705  0.338628
     spin moment: S , {S} =    0.00000  -0.00000  -0.00000   0.00000
   scf:   10    -4147.125701    -4147.096025    -4147.096025  0.019060 -3.792077  0.170470
     spin moment: S , {S} =    0.00000  -0.00000   0.00000  -0.00000
   scf:   11    -4147.099021    -4147.097466    -4147.097466  0.005095 -3.783674  0.050374
     spin moment: S , {S} =    0.00000  -0.00000  -0.00000  -0.00000
   scf:   12    -4147.098218    -4147.097852    -4147.097852  0.001462 -3.779235  0.026659
     spin moment: S , {S} =    0.00000  -0.00000  -0.00000   0.00000
   scf:   13    -4147.098254    -4147.098046    -4147.098046  0.001548 -3.777035  0.020029
     spin moment: S , {S} =    0.00000  -0.00000  -0.00000   0.00000
   scf:   14    -4147.098329    -4147.098177    -4147.098177  0.001597 -3.776586  0.015233
     spin moment: S , {S} =    0.00000  -0.00000  -0.00000   0.00000
   scf:   15    -4147.098371    -4147.098263    -4147.098263  0.001594 -3.776513  0.010457
     spin moment: S , {S} =    0.00000  -0.00000  -0.00000   0.00000
   scf:   16    -4147.098392    -4147.098316    -4147.098316  0.001687 -3.776353  0.005264
     spin moment: S , {S} =    0.00000   0.00000  -0.00000   0.00000
   scf:   17    -4147.098343    -4147.098327    -4147.098327  0.000798 -3.776378  0.002896
     spin moment: S , {S} =    0.00000   0.00000  -0.00000   0.00000
   scf:   18    -4147.098334    -4147.098330    -4147.098330  0.000405 -3.776481  0.001222
     spin moment: S , {S} =    0.00000   0.00000  -0.00000   0.00000
   scf:   19    -4147.098331    -4147.098330    -4147.098330  0.000159 -3.776498  0.000664
     spin moment: S , {S} =    0.00000   0.00000  -0.00000   0.00000
   scf:   20    -4147.098331    -4147.098330    -4147.098330  0.000050 -3.776479  0.000390
     spin moment: S , {S} =    0.00000   0.00000  -0.00000   0.00000
   scf:   21    -4147.098331    -4147.098330    -4147.098330  0.000057 -3.776463  0.000170
     spin moment: S , {S} =    0.00000   0.00000  -0.00000   0.00000
   scf:   22    -4147.098330    -4147.098330    -4147.098330  0.000012 -3.776445  0.000064
     spin moment: S , {S} =    0.00000   0.00000  -0.00000  -0.00000
   scf:   23    -4147.098330    -4147.098330    -4147.098330  0.000004 -3.776446  0.000054
     spin moment: S , {S} =    0.00000   0.00000  -0.00000  -0.00000
   scf:   24    -4147.098330    -4147.098330    -4147.098330  0.000002 -3.776445  0.000051
     spin moment: S , {S} =    0.00000  -0.00000  -0.00000  -0.00000
mix: Pulay -- resetting history
   scf:   25    -4147.098330    -4147.098330    -4147.098330  0.000005 -3.776443  0.000028
     spin moment: S , {S} =    0.00000  -0.00000  -0.00000  -0.00000
   scf:   26    -4147.098330    -4147.098330    -4147.098330  0.000004 -3.776440  0.000013
     spin moment: S , {S} =    0.00000  -0.00000  -0.00000  -0.00000
   scf:   27    -4147.098330    -4147.098330    -4147.098330  0.000003 -3.776439  0.000006
     spin moment: S , {S} =    0.00000  -0.00000  -0.00000  -0.00000
   scf:   28    -4147.098330    -4147.098330    -4147.098330  0.000000 -3.776438  0.000003
     spin moment: S , {S} =    0.00000  -0.00000  -0.00000  -0.00000
   scf:   29    -4147.098330    -4147.098330    -4147.098330  0.000000 -3.776438  0.000002
     spin moment: S , {S} =    0.00000  -0.00000  -0.00000  -0.00000
   scf:   30    -4147.098330    -4147.098330    -4147.098330  0.000000 -3.776438  0.000001
     spin moment: S , {S} =    0.00000  -0.00000  -0.00000  -0.00000
   scf:   31    -4147.098330    -4147.098330    -4147.098330  0.000000 -3.776437  0.000001
     spin moment: S , {S} =    0.00000  -0.00000  -0.00000  -0.00000

SCF Convergence by DM+H criterion
max |DM_out - DM_in|         :     0.0000001632
max |H_out - H_in|      (eV) :     0.0000005933
SCF cycle converged after 31 iterations

Using DM_out to compute the final energy and forces
No. of atoms with KB's overlaping orbs in proc 0. Max # of overlaps:      28     189

siesta: E_KS(eV) =            -4147.0983

siesta: E_KS - E_eggbox =     -4147.0983
     spin moment: S , {S} =    0.00000  -0.00000  -0.00000  -0.00000

siesta: Atomic forces (eV/Ang):
     1    0.082701   -0.076986   -0.000000
     2   -0.356303    0.184255   -0.000000
     3    0.270263   -0.025794    0.000000
     4   -0.040282    0.131331    0.000000
     5   -0.138737   -0.142411   -0.000000
     6    0.035003    0.069288   -0.000000
     7    0.823068    0.620329   -0.000000
     8    0.827950   -1.933059    0.000000
     9   -0.911885    1.275918   -0.000000
    10    0.098670   -0.241276    0.000000
    11   -0.565498   -0.154585    0.000000
    12    0.716642   -0.191643   -0.000000
    13   -4.604056   -1.085126    0.000000
    14   -0.020687    0.031810    0.000000
    15    0.064757    0.026553    0.000000
    16    0.015115   -0.007122    0.000000
    17    0.013580    0.092706   -0.000000
    18   -0.014692    0.022704   -0.000000
    19    0.171988    0.017656    0.000000
    20   -0.915266   -0.061665   -0.000000
    21   -2.845085    3.360585    0.000000
    22    0.162107    0.547172    0.000000
    23    0.215392   -0.460377   -0.000000
    24   -0.244443   -0.553155   -0.000000
    25   -0.487685    1.284350    0.000000
    26    0.683809   -0.752636   -0.000000
    27   -0.135582    0.130636    0.000000
    28    0.039913    0.486077   -0.000000
    29   -0.196637   -0.253351   -0.000000
----------------------------------------
   Tot   -7.255882    2.342181   -0.000000
----------------------------------------
   Max    4.604056
   Res    0.803122    sqrt( Sum f_i^2 / 3N )
----------------------------------------
   Max    4.604056    constrained

Stress tensor Voigt[x,y,z,yz,xz,xy] (kbar):        1.61        1.27       -0.08        0.00        0.00       -1.48
(Free)E + p*V (eV/cell)    -4149.8042
Target enthalpy (eV/cell)    -4147.0983

siesta: Eigenvalues (eV):
ik =     1
  -22.1556  -22.1556  -21.7792  -21.7792  -21.4418  -21.4418  -21.2953  -21.2953  -21.2137  -21.2137
  -21.2105  -21.2105  -20.6406  -20.6406  -19.6924  -19.6924  -19.4903  -19.4903  -19.3563  -19.3563
  -14.7871  -14.7871  -13.8306  -13.8306  -13.2982  -13.2982  -13.0655  -13.0655  -12.9457  -12.9457
  -12.8431  -12.8431  -12.6265  -12.6265  -12.2312  -12.2312  -12.1645  -12.1645  -11.9918  -11.9918
  -11.2326  -11.2326  -10.8313  -10.8313  -10.6979  -10.6979  -10.6079  -10.6079  -10.1500  -10.1500
   -9.6184   -9.6184   -9.1701   -9.1701   -8.8448   -8.8448   -8.7661   -8.7661   -8.6579   -8.6579
   -8.5090   -8.5090   -8.4956   -8.4956   -8.0980   -8.0980   -7.9892   -7.9892   -7.7312   -7.7312
   -7.6837   -7.6837   -7.3620   -7.3620   -7.1834   -7.1834   -6.8914   -6.8914   -6.7044   -6.7044
   -6.6683   -6.6683   -6.4712   -6.4712   -6.2598   -6.2598   -6.1934   -6.1934   -6.1867   -6.1867
   -6.1445   -6.1445   -5.8146   -5.8146   -5.5515   -5.5515   -4.3012   -4.3012   -3.2519   -3.2519
   -2.3298   -2.3298   -2.3230   -2.3230   -2.2447   -2.2447   -1.8891   -1.8891   -1.8425   -1.8425
   -1.8326   -1.8326   -1.7857   -1.7857   -1.6215   -1.6215   -1.3986   -1.3986   -1.1144   -1.1144
   -0.9372   -0.9372   -0.7109   -0.7109   -0.3684   -0.3684   -0.3064   -0.3064    0.2216    0.2216
    0.4359    0.4359    0.5293    0.5293    0.6219    0.6219    0.8602    0.8602    1.0695    1.0695
    1.1979    1.1979    1.3094    1.3094    1.4033    1.4033    1.4040    1.4040    1.6868    1.6868
    1.8429    1.8429    1.9402    1.9402    2.3637    2.3637    2.4707    2.4707    2.7353    2.7353
    2.7443    2.7443    2.8199    2.8199    2.9081    2.9081    3.3292    3.3292    3.4242    3.4242
    3.6643    3.6643    3.8953    3.8953    3.9972    3.9972    4.0674    4.0674    4.2790    4.2790
    4.4854    4.4854    4.5932    4.5932    4.6676    4.6676    4.7171    4.7171    4.7684    4.7684
    5.0051    5.0051    5.0453    5.0453    5.2728    5.2728    5.5523    5.5523    5.6415    5.6415
    5.8853    5.8853    5.9238    5.9238    5.9918    5.9918    6.2552    6.2552    6.2943    6.2943
    6.4237    6.4237    6.5587    6.5587    6.5939    6.5939    6.6985    6.6985    7.0054    7.0054
    7.0174    7.0174    7.2153    7.2153    7.5338    7.5338    7.7027    7.7027    7.8734    7.8734
    8.0215    8.0215    8.0492    8.0492    8.0606    8.0606    8.3555    8.3555    8.6284    8.6284
    8.7478    8.7478    8.8418    8.8418    8.9034    8.9034    8.9765    8.9765    9.2428    9.2428
    9.3273    9.3273    9.6278    9.6278    9.8271    9.8271    9.8782    9.8782   10.0834   10.0834
   10.2295   10.2295   10.2919   10.2919   10.5448   10.5449   10.9659   10.9659   11.0839   11.0839
   11.1144   11.1144   11.3076   11.3076   11.6928   11.6928   11.8813   11.8813   11.9196   11.9196
   12.1163   12.1163   12.1223   12.1223   12.4602   12.4602   12.5615   12.5615   12.8496   12.8496
   12.8633   12.8633   12.9610   12.9610   13.4614   13.4614   13.4845   13.4845   13.7738   13.7738
   13.9231   13.9231   14.1622   14.1622   14.4833   14.4833   14.7952   14.7952   14.8031   14.8031
   15.2685   15.2685   15.4132   15.4132   16.0834   16.0834   16.6498   16.6498   16.6898   16.6898
   16.9797   16.9797   17.4324   17.4324   17.5264   17.5264   18.5879   18.5879   18.5963   18.5963
   19.0971   19.0971   19.2200   19.2200   20.0359   20.0359   20.0926   20.0926   20.2563   20.2563
   21.1500   21.1500   21.6902   21.6902   22.1758   22.1758   22.2173   22.2173   22.7434   22.7434
   23.0001   23.0001   23.6871   23.6871   23.8404   23.8404   23.9948   23.9948   24.4418   24.4418
   25.1254   25.1254   25.5060   25.5060   26.2241   26.2241   27.0571   27.0571   27.8512   27.8512
   28.9896   28.9896   29.1460   29.1460   29.2735   29.2735   29.7234   29.7234   30.1119   30.1119
   30.1580   30.1580   30.3496   30.3496   30.7456   30.7456   30.8964   30.8964   31.1391   31.1391
   31.3255   31.3255   31.5100   31.5100   31.7581   31.7581   32.5437   32.5437   32.9927   32.9927
   33.9745   33.9745   34.1578   34.1578   34.4322   34.4322   34.5178   34.5178   34.5586   34.5586
   35.4060   35.4060   35.5075   35.5075   35.6670   35.6670   36.5087   36.5087   36.9805   36.9805
   37.0173   37.0173   38.0462   38.0462   38.0657   38.0657   38.2846   38.2846   38.7083   38.7083
   39.0761   39.0761   39.3160   39.3160   40.2245   40.2245   40.5486   40.5486   40.5886   40.5886
   40.6144   40.6144   40.8349   40.8349   40.8936   40.8936   41.3293   41.3293   41.4544   41.4544
   42.9338   42.9338   43.1031   43.1031   43.1920   43.1920   43.4275   43.4275   43.8211   43.8211
   44.0466   44.0466   44.6412   44.6412   44.6468   44.6468   44.7441   44.7441   45.1006   45.1006
   45.4260   45.4260   45.9930   45.9930   46.6396   46.6396   46.8590   46.8590   47.5242   47.5242
   47.5928   47.5928   48.5045   48.5045   49.3649   49.3649   49.7683   49.7683   49.8732   49.8732
   50.3500   50.3500   50.5061   50.5061   50.8257   50.8257   51.2934   51.2934   51.3190   51.3190
   51.5605   51.5605   52.5099   52.5099   53.4535   53.4535   54.8811   54.8811   54.9819   54.9819
   55.2351   55.2351   55.4736   55.4736   55.8692   55.8692   55.9864   55.9864   56.7844   56.7844
   57.1278   57.1278   57.3984   57.3984   57.9310   57.9310   59.2014   59.2014   60.4165   60.4165
   60.8641   60.8641   61.0022   61.0022   61.2556   61.2556   61.4006   61.4006   62.5750   62.5750
   63.4259   63.4259   63.6264   63.6264   64.4353   64.4353   65.0312   65.0312   66.8702   66.8702
   67.2015   67.2015   67.8178   67.8178   68.4285   68.4285   70.4203   70.4203   71.0223   71.0223
   74.3292   74.3292   84.4229   84.4229   91.7678   91.7678   92.2748   92.2748   93.5994   93.5994
   98.6054   98.6054   99.2585   99.2585  101.5951  101.5951  103.4840  103.4840  104.6940  104.6940
  111.8550  111.8550  114.3511  114.3511  124.4008  124.4008  126.8943  126.8943  131.6683  131.6683
  137.8013  137.8013  140.2328  140.2328
siesta: Fermi energy =      -3.776437 eV

siesta: Program's energy decomposition (eV):
siesta: Ebs     =     -1133.751481
siesta: Eions   =      3585.165840
siesta: Ena     =       381.759572
siesta: Ekin    =      2902.690790
siesta: Enl     =     -2787.933448
siesta: Eso     =        -0.004282
siesta: Edftu   =         0.000000
siesta: DEna    =        47.282481
siesta: DUscf   =        14.005922
siesta: DUext   =         0.000000
siesta: Exc     =     -1119.733526
siesta: eta*DQ  =         0.000000
siesta: Emadel  =         0.000000
siesta: Emeta   =         0.000000
siesta: Emolmec =         0.000000
siesta: Ekinion =         0.000000
siesta: Eharris =     -4147.098330
siesta: Etot    =     -4147.098330
siesta: FreeEng =     -4147.098330

siesta: Final energy (eV):
siesta:  Band Struct. =   -1133.751481
siesta:       Kinetic =    2902.690790
siesta:       Hartree =    8593.383773
siesta:       Edftu   =       0.000000
siesta:       Eso     =      -0.004282
siesta:    Ext. field =       0.000000
siesta:   Exch.-corr. =   -1119.733526
siesta:  Ion-electron =  -19769.657878
siesta:       Ion-ion =    5246.222792
siesta:       Ekinion =       0.000000
siesta:         Total =   -4147.098330
siesta:         Fermi =      -3.776437

siesta: Atomic forces (eV/Ang):
siesta:      1    0.082701   -0.076986   -0.000000
siesta:      2   -0.356303    0.184255   -0.000000
siesta:      3    0.270263   -0.025794    0.000000
siesta:      4   -0.040282    0.131331    0.000000
siesta:      5   -0.138737   -0.142411   -0.000000
siesta:      6    0.035003    0.069288   -0.000000
siesta:      7    0.823068    0.620329   -0.000000
siesta:      8    0.827950   -1.933059    0.000000
siesta:      9   -0.911885    1.275918   -0.000000
siesta:     10    0.098670   -0.241276    0.000000
siesta:     11   -0.565498   -0.154585    0.000000
siesta:     12    0.716642   -0.191643   -0.000000
siesta:     13   -4.604056   -1.085126    0.000000
siesta:     14   -0.020687    0.031810    0.000000
siesta:     15    0.064757    0.026553    0.000000
siesta:     16    0.015115   -0.007122    0.000000
siesta:     17    0.013580    0.092706   -0.000000
siesta:     18   -0.014692    0.022704   -0.000000
siesta:     19    0.171988    0.017656    0.000000
siesta:     20   -0.915266   -0.061665   -0.000000
siesta:     21   -2.845085    3.360585    0.000000
siesta:     22    0.162107    0.547172    0.000000
siesta:     23    0.215392   -0.460377   -0.000000
siesta:     24   -0.244443   -0.553155   -0.000000
siesta:     25   -0.487685    1.284350    0.000000
siesta:     26    0.683809   -0.752636   -0.000000
siesta:     27   -0.135582    0.130636    0.000000
siesta:     28    0.039913    0.486077   -0.000000
siesta:     29   -0.196637   -0.253351   -0.000000
siesta: ----------------------------------------
siesta:    Tot   -7.255882    2.342181   -0.000000

siesta: Stress tensor (static) (eV/Ang**3):
siesta:     0.001007   -0.000926   -0.000000
siesta:    -0.000926    0.000795    0.000000
siesta:     0.000000    0.000000   -0.000053

siesta: Cell volume =       4639.942875 Ang**3

siesta: Pressure (static):
siesta:                Solid            Molecule  Units
siesta:          -0.00000635          0.00000671  Ry/Bohr**3
siesta:          -0.00058317          0.00061647  eV/Ang**3
siesta:          -0.93434545          0.98771052  kBar
(Free)E+ p_basis*V_orbitals  =       -4127.247913
(Free)Eharris+ p_basis*V_orbitals  =       -4127.247913
     spin moment: S , {S} =    0.00000  -0.00000  -0.00000  -0.00000

siesta: Electric dipole (a.u.)  =   -0.056843    1.606177    0.000000
siesta: Electric dipole (Debye) =   -0.144481    4.082497    0.000000

cite: Please see "GC.bib" for an exhaustive BiBTeX file.
cite: Please clearly indicate Siesta version in published work: v4.1.5-1-g384057250
cite: This calculation has made use of the following articles
cite: which are encouraged to be cited in a published work.
        Primary SIESTA paper
          DOI: www.doi.org/10.1088/0953-8984/14/11/302
        Spin-orbit coupling (on-site approximation)
          DOI: www.doi.org/10.1088/0953-8984/19/19/489001


WARNING: alloc-realloc-dealloc name mismatch
         Name: atomlist isa
         Size:              -116. Bytes
         Node:     0
         Subsequent mismatches will not be reported
>> End of run:  16-OCT-2023  18:30:42
Job completed
