Siesta Version  : v4.1.5-1-g384057250
Architecture    : gcc
Compiler version: GNU Fortran (Ubuntu 11.4.0-1ubuntu1~22.04) 11.4.0
Compiler flags  : mpifort -O2 -fPIC -ftree-vectorize -fallow-argument-mismatch
PP flags        : -DFC_HAVE_ABORT -DMPI -DSIESTA__FLOOK -DSIESTA__METIS -DSIESTA__MUMPS -DCDF -DNCDF -DNCDF_4 -DNCDF_PARALLEL -DSIESTA__MRRR -DSIESTA__ELPA
Libraries       : libncdf.a libfdict.a  -lflookall -ldl -lnetcdff -lnetcdf -lhdf5_hl -lhdf5 -lhdf5_fortran -lz -lscalapack-openmpi -lopenblas -lmetis -lzmumps -lcmumps -ldmumps -lmumps_common -lpord -lsmumps -lesmumps -lscotch -lscotcherr -fopenmp -lelpa
PARALLEL version
NetCDF support
NetCDF-4 support
NetCDF-4 MPI-IO support
METIS ordering support
Lua support

* Running on 8 nodes in parallel
>> Start of run:   1-FEB-2024  21:29:45

                           ***********************       
                           *  WELCOME TO SIESTA  *       
                           ***********************       

reinit: Reading from standard input
reinit: Dumped input in INPUT_TMP.56070
************************** Dump of input data file ****************************
# mpirun -np 4 siesta-4.1.5 < GC.fdf > GC.out &
SystemLabel      GC
NumberOfAtoms    29
NumberOfSpecies  4
%block ChemicalSpeciesLabel
    1    1  H
    2    7  N
    3   14  Si
    4    8  O
%endblock ChemicalSpeciesLabel
############################################
# This overrides Defaults.fdf configuration
############################################
MD.TypeOfRun                Verlet # CG, Verlet
MD.Steps                    0
MaxSCFIterations            200
SCF.MustConverge            F
AtomicCoordinatesFormat NotScaledCartesianAng
%block AtomicCoordinatesAndAtomicSpecies
    0.9728494566417095 3.689099622816767 0.0  1  1  H
    0.26636272664170957 2.899063442816767 0.0  2  2  N
    -1.4639241833582906 3.340427352816767 0.0  3  3  Si
    -1.6197038633582905 4.830419612816767 0.0  1  4  H
    -2.9872458033582907 1.7815198328167667 0.0  3  5  Si
    -4.4704334333582905 2.024350192816767 0.0  1  6  H
    -1.7888549433582905 -0.13175632718323316 0.0  3  7  Si
    -2.5548804033582906 -1.6644730671832333 0.0  2  8  N
    -1.9646338533582905 -2.621686097183233 0.0  1  9  H
    -3.6065027233582905 -1.7449332971832332 0.0  1  10  H
    -0.07265488335829044 -0.07658201718323317 0.0  2  11  N
    1.0023677366417094 1.2537568228167668 0.0  3  12  Si
    2.6110410566417093 1.2349465628167668 0.0  4  13  O
    5.6164483 -7.44953905 0.0  1  14  H
    4.58206954 -7.2320376 0.0  2  15  N
    3.29666389 -8.492636 0.0  3  16  Si
    3.80117524 -9.90371886 -0.0  1  17  H
    1.65934232 -8.01362137 0.0  2  18  N
    1.68097912 -6.20463398 -0.0  3  19  Si
    0.54543521 -4.28636135 0.0  3  20  Si
    -1.03431493 -3.94450034 0.0  4  21  O
    1.73226934 -2.87719605 0.0  2  22  N
    1.20957366 -1.92961761 -0.0  1  23  H
    3.50853448 -2.77677601 0.0  3  24  Si
    4.13684451 -1.17938608 0.0  2  25  N
    3.54296161 -0.26248101 0.0  1  26  H
    5.18364407 -1.05231197 -0.0  1  27  H
    4.63288658 -4.07521596 -0.0  2  28  N
    3.79410501 -5.58634043 0.0  3  29  Si
%endblock AtomicCoordinatesAndAtomicSpecies
#############
# Unit Cell
#############
LatticeConstant 1.0 Ang
%block LatticeVectors
    30.00000    0.000000    0.000000
    0.000000    45.00000    0.000000
    0.000000    0.000000    10.00000
%endblock LatticeVectors
%include ../../../../Defaults.fdf
************************** End of input data file *****************************

reinit: -----------------------------------------------------------------------
reinit: System Name: 
reinit: -----------------------------------------------------------------------
reinit: System Label: GC
reinit: -----------------------------------------------------------------------

initatom: Reading input for the pseudopotentials and atomic orbitals ----------
Species number:   1 Atomic number:    1 Label: H
Species number:   2 Atomic number:    7 Label: N
Species number:   3 Atomic number:   14 Label: Si
Species number:   4 Atomic number:    8 Label: O

Ground state valence configuration:   1s01
Reading pseudopotential information in formatted form from H.psf

Pseudopotential generated from a relativistic atomic calculation

Valence configuration for pseudopotential generation:
1s( 1.00) rc: 0.01
2p( 0.00) rc: 0.60
3d( 0.00) rc: 1.99
4f( 0.00) rc: 2.49
Ground state valence configuration:   2s02  2p03
Reading pseudopotential information in formatted form from N.psf

Pseudopotential generated from a relativistic atomic calculation

Valence configuration for pseudopotential generation:
2s( 2.00) rc: 0.94
2p( 3.00) rc: 0.59
3d( 0.00) rc: 3.46
4f( 0.00) rc: 2.47
Ground state valence configuration:   3s02  3p02
Reading pseudopotential information in formatted form from Si.psf

Pseudopotential generated from a relativistic atomic calculation

Valence configuration for pseudopotential generation:
3s( 2.00) rc: 1.67
3p( 2.00) rc: 2.04
3d( 0.00) rc: 2.89
4f( 0.00) rc: 2.49
Ground state valence configuration:   2s02  2p04
Reading pseudopotential information in formatted form from O.psf

Pseudopotential generated from a relativistic atomic calculation

Valence configuration for pseudopotential generation:
2s( 2.00) rc: 0.45
2p( 4.00) rc: 0.92
3d( 0.00) rc: 2.24
4f( 0.00) rc: 0.25
For H, standard SIESTA heuristics set lmxkb to 2
 (one more than the basis l, including polarization orbitals).
Use PS.lmax or PS.KBprojectors blocks to override.
For N, standard SIESTA heuristics set lmxkb to 3
 (one more than the basis l, including polarization orbitals).
Use PS.lmax or PS.KBprojectors blocks to override.
For Si, standard SIESTA heuristics set lmxkb to 3
 (one more than the basis l, including polarization orbitals).
Use PS.lmax or PS.KBprojectors blocks to override.
For O, standard SIESTA heuristics set lmxkb to 3
 (one more than the basis l, including polarization orbitals).
Use PS.lmax or PS.KBprojectors blocks to override.

<basis_specs>
===============================================================================
H                    Z=   1    Mass=  1.0100        Charge= 0.17977+309
Lmxo=0 Lmxkb= 2    BasisType=split      Semic=F
L=0  Nsemic=0  Cnfigmx=1
          i=1  nzeta=2  polorb=1  (1s)
            splnorm:   0.62000    
               vcte:    0.0000    
               rinn:    0.0000    
               qcoe:    0.0000    
               qyuk:    0.0000    
               qwid:   0.10000E-01
                rcs:    0.0000      0.0000    
            lambdas:    1.0000      1.0000    
-------------------------------------------------------------------------------
L=0  Nkbl=1  erefs: 0.17977+309
L=1  Nkbl=1  erefs: 0.17977+309
L=2  Nkbl=1  erefs: 0.17977+309
===============================================================================
</basis_specs>

atom: Called for H                     (Z =   1)

read_vps: Pseudopotential generation method:
read_vps: ATM4.2.7  Troullier-Martins                       
Valence charge for ps generation:    1.00000

xc_check: Exchange-correlation functional:
xc_check: GGA Perdew, Burke & Ernzerhof 1996
V l=0 = -2*Zval/r beyond r=  0.0098
V l=1 = -2*Zval/r beyond r=  0.5817
V l=2 = -2*Zval/r beyond r=  1.9372
All V_l potentials equal beyond r=  1.9372
This should be close to max(r_c) in ps generation
All pots = -2*Zval/r beyond r=  1.9372

VLOCAL1: 99.0% of the norm of Vloc inside     11.567 Ry
VLOCAL1: 99.9% of the norm of Vloc inside     26.362 Ry
atom: Maximum radius for 4*pi*r*r*local-pseudopot. charge    2.25106
atom: Maximum radius for r*vlocal+2*Zval:    1.91306
GHOST: No ghost state for L =  0
GHOST: No ghost state for L =  1
GHOST: No ghost state for L =  2

KBgen: Kleinman-Bylander projectors: 
   l= 0   rc=  2.036604   el= -0.477180   Ekb= -6.081590   kbcos= -0.277285
   l= 1   rc=  2.195416   el=  0.001076   Ekb= -0.926943   kbcos= -0.034643
   l= 2   rc=  2.251056   el=  0.002010   Ekb= -0.130941   kbcos= -0.009788

KBgen: Total number of Kleinman-Bylander projectors:    9
atom: -------------------------------------------------------------------------

atom: SANKEY-TYPE ORBITALS:
atom: Selected multiple-zeta basis: split     

SPLIT: Orbitals with angular momentum L= 0

SPLIT: Basis orbitals for state 1s

SPLIT: PAO cut-off radius determined from an
SPLIT: energy shift=  0.002000 Ry

   izeta = 1
                 lambda =    1.000000
                     rc =    6.518340
                 energy =   -0.475305
                kinetic =    0.912139
    potential(screened) =   -1.387444
       potential(ionic) =   -1.907295

   izeta = 2
                 rmatch =    2.141150
              splitnorm =    0.620000
                 energy =    0.566467
                kinetic =    3.772856
    potential(screened) =   -3.206389
       potential(ionic) =   -3.759093

POLgen: Perturbative polarization orbital with L=  1

POLgen: Polarization orbital for state 1s

   izeta = 1
                     rc =    6.518340
                 energy =    0.533861
                kinetic =    1.121086
    potential(screened) =   -0.587225
       potential(ionic) =   -1.053027
atom: Total number of Sankey-type orbitals:  5

atm_pop: Valence configuration (for local Pseudopot. screening):
 1s( 1.00)                                                            
Vna: chval, zval:    1.00000   1.00000

Vna:  Cut-off radius for the neutral-atom potential:   6.518340

atom: _________________________________________________________________________

<basis_specs>
===============================================================================
N                    Z=   7    Mass=  14.010        Charge= 0.17977+309
Lmxo=1 Lmxkb= 3    BasisType=split      Semic=F
L=0  Nsemic=0  Cnfigmx=2
          i=1  nzeta=2  polorb=0  (2s)
            splnorm:   0.28000    
               vcte:    0.0000    
               rinn:    0.0000    
               qcoe:    0.0000    
               qyuk:    0.0000    
               qwid:   0.10000E-01
                rcs:    0.0000      0.0000    
            lambdas:    1.0000      1.0000    
L=1  Nsemic=0  Cnfigmx=2
          i=1  nzeta=2  polorb=1  (2p)
            splnorm:   0.28000    
               vcte:    0.0000    
               rinn:    0.0000    
               qcoe:    0.0000    
               qyuk:    0.0000    
               qwid:   0.10000E-01
                rcs:    0.0000      0.0000    
            lambdas:    1.0000      1.0000    
-------------------------------------------------------------------------------
L=0  Nkbl=1  erefs: 0.17977+309
L=1  Nkbl=1  erefs: 0.17977+309
L=2  Nkbl=1  erefs: 0.17977+309
L=3  Nkbl=1  erefs: 0.17977+309
===============================================================================
</basis_specs>

atom: Called for N                     (Z =   7)

read_vps: Pseudopotential generation method:
read_vps: ATM4.2.7  Troullier-Martins                       
Valence charge for ps generation:    5.00000

xc_check: Exchange-correlation functional:
xc_check: GGA Perdew, Burke & Ernzerhof 1996
V l=0 = -2*Zval/r beyond r=  1.2889
V l=1 = -2*Zval/r beyond r=  1.2889
V l=2 = -2*Zval/r beyond r=  3.4178
V l=3 = -2*Zval/r beyond r=  2.4084
All V_l potentials equal beyond r=  3.3753
This should be close to max(r_c) in ps generation
All pots = -2*Zval/r beyond r=  3.4178

VLOCAL1: 99.0% of the norm of Vloc inside      3.810 Ry
VLOCAL1: 99.9% of the norm of Vloc inside      8.683 Ry
atom: Maximum radius for 4*pi*r*r*local-pseudopot. charge    4.02088
atom: Maximum radius for r*vlocal+2*Zval:    3.54838
GHOST: No ghost state for L =  0
GHOST: No ghost state for L =  1
GHOST: No ghost state for L =  2
GHOST: No ghost state for L =  3

KBgen: Kleinman-Bylander projectors: 
   l= 0   rc=  3.417763   el= -1.365098   Ekb= -4.433130   kbcos= -0.707855
   l= 1   rc=  3.375302   el= -0.521201   Ekb=-13.264039   kbcos= -0.535594
   l= 2   rc=  3.872880   el=  0.001991   Ekb= -0.641094   kbcos= -0.062456
   l= 3   rc=  3.970931   el=  0.003093   Ekb= -0.474517   kbcos= -0.018236

KBgen: Total number of Kleinman-Bylander projectors:   16
atom: -------------------------------------------------------------------------

atom: SANKEY-TYPE ORBITALS:
atom: Selected multiple-zeta basis: split     

SPLIT: Orbitals with angular momentum L= 0

SPLIT: Basis orbitals for state 2s

SPLIT: PAO cut-off radius determined from an
SPLIT: energy shift=  0.002000 Ry

   izeta = 1
                 lambda =    1.000000
                     rc =    4.730425
                 energy =   -1.363399
                kinetic =    1.245246
    potential(screened) =   -2.608645
       potential(ionic) =   -8.121105

   izeta = 2
                 rmatch =    2.531849
              splitnorm =    0.280000
                 energy =   -0.959908
                kinetic =    2.409435
    potential(screened) =   -3.369343
       potential(ionic) =   -9.427975

SPLIT: Orbitals with angular momentum L= 1

SPLIT: Basis orbitals for state 2p

SPLIT: PAO cut-off radius determined from an
SPLIT: energy shift=  0.002000 Ry

   izeta = 1
                 lambda =    1.000000
                     rc =    5.924108
                 energy =   -0.519262
                kinetic =    3.672940
    potential(screened) =   -4.192202
       potential(ionic) =   -9.518354

   izeta = 2
                 rmatch =    2.531849
              splitnorm =    0.280000
                 energy =   -0.104258
                kinetic =    6.807538
    potential(screened) =   -6.911796
       potential(ionic) =  -13.149920

POLgen: Perturbative polarization orbital with L=  2

POLgen: Polarization orbital for state 2p

   izeta = 1
                     rc =    5.924108
                 energy =    1.427508
                kinetic =    2.872379
    potential(screened) =   -1.444871
       potential(ionic) =   -5.563644
atom: Total number of Sankey-type orbitals: 13

atm_pop: Valence configuration (for local Pseudopot. screening):
 2s( 2.00)                                                            
 2p( 3.00)                                                            
Vna: chval, zval:    5.00000   5.00000

Vna:  Cut-off radius for the neutral-atom potential:   5.924108

atom: _________________________________________________________________________

<basis_specs>
===============================================================================
Si                   Z=  14    Mass=  28.090        Charge= 0.17977+309
Lmxo=1 Lmxkb= 3    BasisType=split      Semic=F
L=0  Nsemic=0  Cnfigmx=3
          i=1  nzeta=2  polorb=0  (3s)
            splnorm:   0.28000    
               vcte:    0.0000    
               rinn:    0.0000    
               qcoe:    0.0000    
               qyuk:    0.0000    
               qwid:   0.10000E-01
                rcs:    0.0000      0.0000    
            lambdas:    1.0000      1.0000    
L=1  Nsemic=0  Cnfigmx=3
          i=1  nzeta=2  polorb=1  (3p)
            splnorm:   0.28000    
               vcte:    0.0000    
               rinn:    0.0000    
               qcoe:    0.0000    
               qyuk:    0.0000    
               qwid:   0.10000E-01
                rcs:    0.0000      0.0000    
            lambdas:    1.0000      1.0000    
-------------------------------------------------------------------------------
L=0  Nkbl=1  erefs: 0.17977+309
L=1  Nkbl=1  erefs: 0.17977+309
L=2  Nkbl=1  erefs: 0.17977+309
L=3  Nkbl=1  erefs: 0.17977+309
===============================================================================
</basis_specs>

atom: Called for Si                    (Z =  14)

read_vps: Pseudopotential generation method:
read_vps: ATM4.2.7  Troullier-Martins                       
Valence charge for ps generation:    4.00000

xc_check: Exchange-correlation functional:
xc_check: GGA Perdew, Burke & Ernzerhof 1996
V l=0 = -2*Zval/r beyond r=  2.7826
V l=1 = -2*Zval/r beyond r=  2.7826
V l=2 = -2*Zval/r beyond r=  2.9253
V l=3 = -2*Zval/r beyond r=  2.7826
All V_l potentials equal beyond r=  2.8530
This should be close to max(r_c) in ps generation
All pots = -2*Zval/r beyond r=  2.9253

VLOCAL1: 99.0% of the norm of Vloc inside      5.333 Ry
VLOCAL1: 99.9% of the norm of Vloc inside     12.154 Ry
atom: Maximum radius for 4*pi*r*r*local-pseudopot. charge    3.39869
atom: Maximum radius for r*vlocal+2*Zval:    2.96205
GHOST: No ghost state for L =  0
GHOST: No ghost state for L =  1
GHOST: No ghost state for L =  2
GHOST: No ghost state for L =  3

KBgen: Kleinman-Bylander projectors: 
   l= 0   rc=  3.075247   el= -0.794092   Ekb=  5.879390   kbcos=  0.167461
   l= 1   rc=  3.153101   el= -0.300068   Ekb=  2.642817   kbcos=  0.058301
   l= 2   rc=  3.273594   el=  0.001958   Ekb= -1.185135   kbcos= -0.104411
   l= 3   rc=  3.232927   el=  0.003046   Ekb= -0.497174   kbcos= -0.015889

KBgen: Total number of Kleinman-Bylander projectors:   16
atom: -------------------------------------------------------------------------

atom: SANKEY-TYPE ORBITALS:
atom: Selected multiple-zeta basis: split     

SPLIT: Orbitals with angular momentum L= 0

SPLIT: Basis orbitals for state 3s

SPLIT: PAO cut-off radius determined from an
SPLIT: energy shift=  0.002000 Ry

   izeta = 1
                 lambda =    1.000000
                     rc =    6.429618
                 energy =   -0.792283
                kinetic =    0.525293
    potential(screened) =   -1.317576
       potential(ionic) =   -3.744923

   izeta = 2
                 rmatch =    3.998416
              splitnorm =    0.280000
                 energy =   -0.583081
                kinetic =    1.069570
    potential(screened) =   -1.652651
       potential(ionic) =   -4.235185

SPLIT: Orbitals with angular momentum L= 1

SPLIT: Basis orbitals for state 3p

SPLIT: PAO cut-off radius determined from an
SPLIT: energy shift=  0.002000 Ry

   izeta = 1
                 lambda =    1.000000
                     rc =    8.464845
                 energy =   -0.298236
                kinetic =    0.785360
    potential(screened) =   -1.083596
       potential(ionic) =   -3.273779

   izeta = 2
                 rmatch =    4.587816
              splitnorm =    0.280000
                 energy =   -0.131871
                kinetic =    1.403687
    potential(screened) =   -1.535557
       potential(ionic) =   -4.015310

POLgen: Perturbative polarization orbital with L=  2

POLgen: Polarization orbital for state 3p

   izeta = 1
                     rc =    8.464845
                 energy =    0.321949
                kinetic =    1.055677
    potential(screened) =   -0.733728
       potential(ionic) =   -2.672950
atom: Total number of Sankey-type orbitals: 13

atm_pop: Valence configuration (for local Pseudopot. screening):
 3s( 2.00)                                                            
 3p( 2.00)                                                            
Vna: chval, zval:    4.00000   4.00000

Vna:  Cut-off radius for the neutral-atom potential:   8.464845

atom: _________________________________________________________________________

<basis_specs>
===============================================================================
O                    Z=   8    Mass=  16.000        Charge= 0.17977+309
Lmxo=1 Lmxkb= 3    BasisType=split      Semic=F
L=0  Nsemic=0  Cnfigmx=2
          i=1  nzeta=2  polorb=0  (2s)
            splnorm:   0.28000    
               vcte:    0.0000    
               rinn:    0.0000    
               qcoe:    0.0000    
               qyuk:    0.0000    
               qwid:   0.10000E-01
                rcs:    0.0000      0.0000    
            lambdas:    1.0000      1.0000    
L=1  Nsemic=0  Cnfigmx=2
          i=1  nzeta=2  polorb=1  (2p)
            splnorm:   0.28000    
               vcte:    0.0000    
               rinn:    0.0000    
               qcoe:    0.0000    
               qyuk:    0.0000    
               qwid:   0.10000E-01
                rcs:    0.0000      0.0000    
            lambdas:    1.0000      1.0000    
-------------------------------------------------------------------------------
L=0  Nkbl=1  erefs: 0.17977+309
L=1  Nkbl=1  erefs: 0.17977+309
L=2  Nkbl=1  erefs: 0.17977+309
L=3  Nkbl=1  erefs: 0.17977+309
===============================================================================
</basis_specs>

atom: Called for O                     (Z =   8)

read_vps: Pseudopotential generation method:
read_vps: ATM4.2.7  Troullier-Martins                       
Valence charge for ps generation:    6.00000

xc_check: Exchange-correlation functional:
xc_check: GGA Perdew, Burke & Ernzerhof 1996
V l=0 = -2*Zval/r beyond r=  1.1000
V l=1 = -2*Zval/r beyond r=  1.1000
V l=2 = -2*Zval/r beyond r=  2.2154
V l=3 = -2*Zval/r beyond r=  1.1000
All V_l potentials equal beyond r=  2.2154
This should be close to max(r_c) in ps generation
All pots = -2*Zval/r beyond r=  2.2154

VLOCAL1: 99.0% of the norm of Vloc inside      8.845 Ry
VLOCAL1: 99.9% of the norm of Vloc inside     20.157 Ry
atom: Maximum radius for 4*pi*r*r*local-pseudopot. charge    2.67231
atom: Maximum radius for r*vlocal+2*Zval:    2.32897
GHOST: No ghost state for L =  0
GHOST: No ghost state for L =  1
GHOST: No ghost state for L =  2
GHOST: No ghost state for L =  3

KBgen: Kleinman-Bylander projectors: 
   l= 0   rc=  2.243238   el= -1.759686   Ekb=**********   kbcos= -0.171774
   l= 1   rc=  2.328968   el= -0.663873   Ekb=-14.506792   kbcos= -0.519897
   l= 2   rc=  2.573941   el=  0.002031   Ekb= -1.137373   kbcos= -0.019581
   l= 3   rc=  2.606321   el=  0.003153   Ekb= -1.013546   kbcos= -0.003122

KBgen: Total number of Kleinman-Bylander projectors:   16
atom: -------------------------------------------------------------------------

atom: SANKEY-TYPE ORBITALS:
atom: Selected multiple-zeta basis: split     

SPLIT: Orbitals with angular momentum L= 0

SPLIT: Basis orbitals for state 2s

SPLIT: PAO cut-off radius determined from an
SPLIT: energy shift=  0.002000 Ry

   izeta = 1
                 lambda =    1.000000
                     rc =    4.243912
                 energy =   -1.758270
                kinetic =    3.286084
    potential(screened) =   -5.044353
       potential(ionic) =  -12.921184

   izeta = 2
                 rmatch =    2.187845
              splitnorm =    0.280000
                 energy =   -0.885018
                kinetic =    8.134434
    potential(screened) =   -9.019452
       potential(ionic) =  -17.710645

SPLIT: Orbitals with angular momentum L= 1

SPLIT: Basis orbitals for state 2p

SPLIT: PAO cut-off radius determined from an
SPLIT: energy shift=  0.002000 Ry

   izeta = 1
                 lambda =    1.000000
                     rc =    5.314825
                 energy =   -0.661986
                kinetic =    4.917472
    potential(screened) =   -5.579458
       potential(ionic) =  -13.236259

   izeta = 2
                 rmatch =    2.160663
              splitnorm =    0.280000
                 energy =   -0.068760
                kinetic =    9.183374
    potential(screened) =   -9.252135
       potential(ionic) =  -18.274251

POLgen: Perturbative polarization orbital with L=  2

POLgen: Polarization orbital for state 2p

   izeta = 1
                     rc =    5.314825
                 energy =    1.970580
                kinetic =    3.886128
    potential(screened) =   -1.915547
       potential(ionic) =   -7.749584
atom: Total number of Sankey-type orbitals: 13

atm_pop: Valence configuration (for local Pseudopot. screening):
 2s( 2.00)                                                            
 2p( 4.00)                                                            
Vna: chval, zval:    6.00000   6.00000

Vna:  Cut-off radius for the neutral-atom potential:   5.314825

atom: _________________________________________________________________________

prinput: Basis input ----------------------------------------------------------

PAO.BasisType split     

%block ChemicalSpeciesLabel
    1    1 H                       # Species index, atomic number, species label
    2    7 N                       # Species index, atomic number, species label
    3   14 Si                      # Species index, atomic number, species label
    4    8 O                       # Species index, atomic number, species label
%endblock ChemicalSpeciesLabel

%block PAO.Basis                 # Define Basis set
H                     1                    # Species label, number of l-shells
 n=1   0   2 P   1                   # n, l, Nzeta, Polarization, NzetaPol
   6.518      2.141   
   1.000      1.000   
N                     2                    # Species label, number of l-shells
 n=2   0   2                         # n, l, Nzeta 
   4.730      2.532   
   1.000      1.000   
 n=2   1   2 P   1                   # n, l, Nzeta, Polarization, NzetaPol
   5.924      2.532   
   1.000      1.000   
Si                    2                    # Species label, number of l-shells
 n=3   0   2                         # n, l, Nzeta 
   6.430      3.998   
   1.000      1.000   
 n=3   1   2 P   1                   # n, l, Nzeta, Polarization, NzetaPol
   8.465      4.588   
   1.000      1.000   
O                     2                    # Species label, number of l-shells
 n=2   0   2                         # n, l, Nzeta 
   4.244      2.188   
   1.000      1.000   
 n=2   1   2 P   1                   # n, l, Nzeta, Polarization, NzetaPol
   5.315      2.161   
   1.000      1.000   
%endblock PAO.Basis

prinput: ----------------------------------------------------------------------

Dumping basis to NetCDF file H.ion.nc
Dumping basis to NetCDF file N.ion.nc
Dumping basis to NetCDF file Si.ion.nc
Dumping basis to NetCDF file O.ion.nc
coor:   Atomic-coordinates input format  =     Cartesian coordinates
coor:                                          (in Angstroms)

siesta: Atomic coordinates (Bohr) and species
siesta:      1.83842   6.97139   0.00000  1        1
siesta:      0.50335   5.47844   0.00000  2        2
siesta:     -2.76642   6.31250   0.00000  3        3
siesta:     -3.06080   9.12817   0.00000  1        4
siesta:     -5.64508   3.36659   0.00000  3        5
siesta:     -8.44790   3.82547   0.00000  1        6
siesta:     -3.38045  -0.24898   0.00000  3        7
siesta:     -4.82803  -3.14540   0.00000  2        8
siesta:     -3.71262  -4.95427   0.00000  1        9
siesta:     -6.81531  -3.29745   0.00000  1       10
siesta:     -0.13730  -0.14472   0.00000  2       11
siesta:      1.89420   2.36926   0.00000  3       12
siesta:      4.93415   2.33371   0.00000  4       13
siesta:     10.61355 -14.07759   0.00000  1       14
siesta:      8.65886 -13.66658   0.00000  2       15
siesta:      6.22979 -16.04876   0.00000  3       16
siesta:      7.18318 -18.71532  -0.00000  1       17
siesta:      3.13570 -15.14356   0.00000  2       18
siesta:      3.17659 -11.72506  -0.00000  3       19
siesta:      1.03072  -8.10005   0.00000  3       20
siesta:     -1.95457  -7.45403   0.00000  4       21
siesta:      3.27352  -5.43711   0.00000  2       22
siesta:      2.28576  -3.64645  -0.00000  1       23
siesta:      6.63017  -5.24735   0.00000  3       24
siesta:      7.81751  -2.22872   0.00000  2       25
siesta:      6.69523  -0.49602   0.00000  1       26
siesta:      9.79567  -1.98858  -0.00000  1       27
siesta:      8.75489  -7.70105  -0.00000  2       28
siesta:      7.16982 -10.55666   0.00000  3       29

siesta: System type = molecule  

initatomlists: Number of atoms, orbitals, and projectors:     29   297   394

siesta: ******************** Simulation parameters ****************************
siesta:
siesta: The following are some of the parameters of the simulation.
siesta: A complete list of the parameters used, including default values,
siesta: can be found in file out.fdf
siesta:
redata: Spin configuration                          = spin-orbit
redata: Number of spin components                   = 8
redata: Time-Reversal Symmetry                      = F
redata: Spin spiral                                 = F
############################################################
This spin-orbit implementation uses a local approximation.
From 4.2 and onwards the full non-local approximation is implemented
You are strongly advised to use >=4.2 versions!
############################################################
redata: Long output                                 =   F
redata: Number of Atomic Species                    =        4
redata: Charge density info will appear in .RHO file
redata: Write Mulliken Pop.                         = NO
redata: Matel table size (NRTAB)                    =     1024
redata: Mesh Cutoff                                 =   340.0000 Ry
redata: Net charge of the system                    =     0.0000 |e|
redata: Min. number of SCF Iter                     =        1
redata: Max. number of SCF Iter                     =      200
redata: SCF mix quantity                            = Hamiltonian
redata: Mix DM or H after convergence               =   F
redata: Recompute H after scf cycle                 =   F
redata: Mix DM in first SCF step                    =   T
redata: Write Pulay info on disk                    =   F
redata: New DM Occupancy tolerance                  = 0.000000000001
redata: No kicks to SCF
redata: DM Mixing Weight for Kicks                  =     0.5000
redata: Require Harris convergence for SCF          =   F
redata: Harris energy tolerance for SCF             =     0.000100 eV
redata: Require DM convergence for SCF              =   T
redata: DM tolerance for SCF                        =     0.000008
redata: Require EDM convergence for SCF             =   F
redata: EDM tolerance for SCF                       =     0.001000 eV
redata: Require H convergence for SCF               =   T
redata: Hamiltonian tolerance for SCF               =     0.000001 eV
redata: Require (free) Energy convergence for SCF   =   F
redata: (free) Energy tolerance for SCF             =     0.000100 eV
redata: Using Saved Data (generic)                  =   F
redata: Use continuation files for DM               =   T
redata: Neglect nonoverlap interactions             =   F
redata: Method of Calculation                       = Diagonalization
redata: Electronic Temperature                      =   299.9978 K
redata: Fix the spin of the system                  =   F
redata: Dynamics option                             = Verlet MD run
redata: Initial MD time step                        =        1
redata:   Final MD time step                        =        1
redata: Length of MD time step                      =     0.5000 fs
redata: Initial Temperature of MD run               =     0.0000 K
redata: Perform a MD quench                         =   F
mix.SCF: Pulay mixing                            = Pulay
mix.SCF:    Variant                              = stable
mix.SCF:    History steps                        = 6
mix.SCF:    Linear mixing weight                 =     0.250000
mix.SCF:    Mixing weight                        =     0.250000
mix.SCF:    SVD condition                        = 0.1000E-07
mix.SCF:    Restart steps                        = 24
mix.SCF:    Restart save steps                   = 3
mix.SCF: Spin-component mixing                   all
redata: Save all siesta data in one NC              =   F
redata: ***********************************************************************

%block SCF.Mixers
  Pulay
%endblock SCF.Mixers

%block SCF.Mixer.Pulay
  # Mixing method
  method pulay
  variant stable

  # Mixing options
  weight 0.2500
  weight.linear 0.2500
  history 6
  restart 24
  restart.save 3
%endblock SCF.Mixer.Pulay

Size of DM history Fstack: 3
Total number of electrons:    98.000000
Total ionic charge:    98.000000

* ProcessorY, Blocksize:    2  24


* Orbital distribution balance (max,min):    48    24


Time-reversal symmetry not used.

siesta: k-grid: Number of k-points =     1
siesta: k-grid: Cutoff (effective) =     5.000 Ang
siesta: k-grid: Supercell and displacements
siesta: k-grid:    1   0   0      0.000
siesta: k-grid:    0   1   0      0.000
siesta: k-grid:    0   0   1      0.000

diag: Algorithm                                     = ELPA-1stage
diag: Parallel over k                               =   F
diag: Use parallel 2D distribution                  =   T
diag: Parallel block-size                           = 24
diag: Parallel distribution                         =     2 x     4
diag: Used triangular part                          = Lower
diag: Absolute tolerance                            =  0.100E-15
diag: Orthogonalization factor                      =  0.100E-05
diag: Memory factor                                 =  1.0000


ts: **************************************************************
ts: Save H and S matrices                           =    F
ts: Save DM and EDM matrices                        =    F
ts: Only save the overlap matrix S                  =    F
ts: **************************************************************

************************ Begin: TS CHECKS AND WARNINGS ************************
************************ End: TS CHECKS AND WARNINGS **************************


                     ====================================
                        Begin MD step =      1
                     ====================================

outcoor: Atomic coordinates (Ang):                          
    0.97284946    3.68909962    0.00000000   1       1  H
    0.26636273    2.89906344    0.00000000   2       2  N
   -1.46392418    3.34042735    0.00000000   3       3  Si
   -1.61970386    4.83041961    0.00000000   1       4  H
   -2.98724580    1.78151983    0.00000000   3       5  Si
   -4.47043343    2.02435019    0.00000000   1       6  H
   -1.78885494   -0.13175633    0.00000000   3       7  Si
   -2.55488040   -1.66447307    0.00000000   2       8  N
   -1.96463385   -2.62168610    0.00000000   1       9  H
   -3.60650272   -1.74493330    0.00000000   1      10  H
   -0.07265488   -0.07658202    0.00000000   2      11  N
    1.00236774    1.25375682    0.00000000   3      12  Si
    2.61104106    1.23494656    0.00000000   4      13  O
    5.61644830   -7.44953905    0.00000000   1      14  H
    4.58206954   -7.23203760    0.00000000   2      15  N
    3.29666389   -8.49263600    0.00000000   3      16  Si
    3.80117524   -9.90371886    0.00000000   1      17  H
    1.65934232   -8.01362137    0.00000000   2      18  N
    1.68097912   -6.20463398    0.00000000   3      19  Si
    0.54543521   -4.28636135    0.00000000   3      20  Si
   -1.03431493   -3.94450034    0.00000000   4      21  O
    1.73226934   -2.87719605    0.00000000   2      22  N
    1.20957366   -1.92961761    0.00000000   1      23  H
    3.50853448   -2.77677601    0.00000000   3      24  Si
    4.13684451   -1.17938608    0.00000000   2      25  N
    3.54296161   -0.26248101    0.00000000   1      26  H
    5.18364407   -1.05231197    0.00000000   1      27  H
    4.63288658   -4.07521596    0.00000000   2      28  N
    3.79410501   -5.58634043    0.00000000   3      29  Si

outcell: Unit cell vectors (Ang):
       30.000000    0.000000    0.000000
        0.000000   45.000000    0.000000
        0.000000    0.000000   10.000000

outcell: Cell vector modules (Ang)   :   30.000000   45.000000   10.000000
outcell: Cell angles (23,13,12) (deg):     90.0000     90.0000     90.0000
outcell: Cell volume (Ang**3)        :  13500.0000
<dSpData1D:S at geom step 1
  <sparsity:sparsity for geom step 1
    nrows_g=297 nrows=48 sparsity=.1328 nnzs=11710, refcount: 8>
  <dData1D:(new from dSpData1D) n=11710, refcount: 1>
refcount: 1>
new_DM -- step:     1
Initializing Density Matrix...

Attempting to read DM from file... Failed...
DM filled with atomic data:
<dSpData2D:DM initialized from atoms
  <sparsity:sparsity for geom step 1
    nrows_g=297 nrows=48 sparsity=.1328 nnzs=11710, refcount: 9>
  <dData2D:DM n=11710 m=8, refcount: 1>
refcount: 1>
     spin moment: S , {S} =   56.00000   0.00000   0.00000  56.00000
No. of atoms with KB's overlaping orbs in proc 0. Max # of overlaps:      27     206

Initializing spin-orbit part of the Hamiltonian
  Adding spin-orbit effects for H 
  Adding spin-orbit effects for N 
  Adding spin-orbit effects for Si
  Adding spin-orbit effects for O 


New grid distribution:   1
           1       1:  180    1:  125    1:   15
           2       1:  180    1:  125   16:   30
           3       1:  180    1:  125   31:   45
           4       1:  180    1:  125   46:   60
           5       1:  180  126:  250    1:   15
           6       1:  180  126:  250   16:   30
           7       1:  180  126:  250   31:   45
           8       1:  180  126:  250   46:   60

InitMesh: MESH =   360 x   500 x   120 =    21600000
InitMesh: (bp) =   180 x   250 x    60 =     2700000
InitMesh: Mesh cutoff (required, used) =   340.000   341.206 Ry
ExtMesh (bp) on 0 =   288 x   225 x   123 =     7970400
New grid distribution:   2
           1      26:  180   18:  218    1:   60
           2      26:  180    1:   17    1:   60
           3       1:   25  195:  218    1:   60
           4       1:   23  235:  250    1:   60
           5       1:   25    1:  194    1:   60
           6      24:  180  219:  236    1:   60
           7      24:  180  237:  250    1:   60
           8       1:   23  219:  234    1:   60
New grid distribution:   3
           1      40:  180   20:  203    1:   60
           2      36:  180  232:  250    1:   60
           3      40:  180    1:   19    1:   60
           4       1:   35  204:  226    1:   60
           5       1:   39   32:  203    1:   60
           6      36:  180  204:  231    1:   60
           7       1:   39    1:   31    1:   60
           8       1:   35  227:  250    1:   60
Setting up quadratic distribution...
ExtMesh (bp) on 0 =   263 x   301 x   168 =    13299384
PhiOnMesh: Number of (b)points on node 0 =              1869300
PhiOnMesh: nlist on node 0 =              1780473

stepf: Fermi-Dirac step function

siesta: Program's energy decomposition (eV):
siesta: Ebs     =      -588.795503
siesta: Eions   =      3585.165840
siesta: Ena     =       381.456731
siesta: Ekin    =      3360.978530
siesta: Enl     =     -3290.873557
siesta: Eso     =        -0.003447
siesta: Edftu   =         0.000000
siesta: DEna    =       154.286663
siesta: DUscf   =        77.733349
siesta: DUext   =         0.000000
siesta: Exc     =     -1202.987414
siesta: eta*DQ  =         0.000000
siesta: Emadel  =         0.000000
siesta: Emeta   =         0.000000
siesta: Emolmec =         0.000000
siesta: Ekinion =         0.000000
siesta: Eharris =     -4029.727776
siesta: Etot    =     -4104.574986
siesta: FreeEng =     -4104.576008

        iscf     Eharris(eV)        E_KS(eV)     FreeEng(eV)     dDmax    Ef(eV) dHmax(eV)
   scf:    1    -4029.727776    -4104.574986    -4104.576008  0.956874 -4.905887 20.246038
     spin moment: S , {S} =    2.00571   0.00000  -0.00000   2.00571
timer: Routine,Calls,Time,% = IterSCF        1      11.543  30.83
   scf:    2    -4148.956103    -4138.230752    -4138.232066  0.469166 -4.125830 11.577686
     spin moment: S , {S} =    1.99317  -0.00000   0.00000   1.99317
   scf:    3    -4108.840775    -4135.151863    -4135.171785  0.437147 -4.271900 12.350472
     spin moment: S , {S} =    2.00143  -0.00000   0.00000   2.00143
   scf:    4    -4151.654784    -4146.579508    -4146.579508  0.309939 -3.809788  5.968563
     spin moment: S , {S} =    0.00009  -0.00000   0.00000   0.00009
   scf:    5    -4147.782717    -4147.274955    -4147.274955  0.039488 -3.570521  4.317061
     spin moment: S , {S} =    0.00006  -0.00000  -0.00000   0.00006
   scf:    6    -4148.027781    -4147.654290    -4147.654290  0.024317 -3.483096  2.179652
     spin moment: S , {S} =    0.00003   0.00000   0.00000   0.00003
   scf:    7    -4148.013078    -4147.832998    -4147.832998  0.021293 -3.594224  0.906176
     spin moment: S , {S} =    0.00001   0.00000   0.00000   0.00001
   scf:    8    -4147.954564    -4147.892349    -4147.892349  0.012499 -3.610904  0.498416
     spin moment: S , {S} =    0.00000  -0.00000  -0.00000   0.00000
   scf:    9    -4147.933032    -4147.912109    -4147.912109  0.007194 -3.641154  0.334788
     spin moment: S , {S} =    0.00000   0.00000  -0.00000   0.00000
   scf:   10    -4147.960951    -4147.932762    -4147.932762  0.017320 -3.674135  0.150936
     spin moment: S , {S} =    0.00000  -0.00000   0.00000  -0.00000
   scf:   11    -4147.935900    -4147.934263    -4147.934263  0.004771 -3.665832  0.050593
     spin moment: S , {S} =    0.00000  -0.00000   0.00000   0.00000
   scf:   12    -4147.935098    -4147.934681    -4147.934681  0.002015 -3.660880  0.030802
     spin moment: S , {S} =    0.00000  -0.00000   0.00000   0.00000
   scf:   13    -4147.935180    -4147.934917    -4147.934917  0.001796 -3.659718  0.024417
     spin moment: S , {S} =    0.00000  -0.00000   0.00000   0.00000
   scf:   14    -4147.935350    -4147.935114    -4147.935114  0.002123 -3.658345  0.017520
     spin moment: S , {S} =    0.00000  -0.00000   0.00000   0.00000
   scf:   15    -4147.935436    -4147.935250    -4147.935250  0.002367 -3.658242  0.010373
     spin moment: S , {S} =    0.00000  -0.00000   0.00000   0.00000
   scf:   16    -4147.935372    -4147.935298    -4147.935298  0.001697 -3.658452  0.004899
     spin moment: S , {S} =    0.00000  -0.00000  -0.00000   0.00000
   scf:   17    -4147.935319    -4147.935307    -4147.935307  0.000689 -3.658697  0.002690
     spin moment: S , {S} =    0.00000  -0.00000  -0.00000   0.00000
   scf:   18    -4147.935312    -4147.935309    -4147.935309  0.000335 -3.658798  0.001127
     spin moment: S , {S} =    0.00000  -0.00000  -0.00000   0.00000
   scf:   19    -4147.935310    -4147.935309    -4147.935309  0.000137 -3.658818  0.000585
     spin moment: S , {S} =    0.00000  -0.00000  -0.00000  -0.00000
   scf:   20    -4147.935310    -4147.935309    -4147.935309  0.000045 -3.658778  0.000395
     spin moment: S , {S} =    0.00000  -0.00000  -0.00000  -0.00000
   scf:   21    -4147.935310    -4147.935310    -4147.935310  0.000062 -3.658739  0.000226
     spin moment: S , {S} =    0.00000  -0.00000  -0.00000  -0.00000
   scf:   22    -4147.935310    -4147.935310    -4147.935310  0.000019 -3.658714  0.000091
     spin moment: S , {S} =    0.00000  -0.00000  -0.00000  -0.00000
   scf:   23    -4147.935310    -4147.935310    -4147.935310  0.000006 -3.658712  0.000050
     spin moment: S , {S} =    0.00000  -0.00000  -0.00000  -0.00000
   scf:   24    -4147.935310    -4147.935310    -4147.935310  0.000005 -3.658707  0.000023
     spin moment: S , {S} =    0.00000  -0.00000  -0.00000  -0.00000
mix: Pulay -- resetting history
   scf:   25    -4147.935310    -4147.935310    -4147.935310  0.000002 -3.658705  0.000013
     spin moment: S , {S} =    0.00000  -0.00000  -0.00000   0.00000
   scf:   26    -4147.935310    -4147.935310    -4147.935310  0.000000 -3.658704  0.000008
     spin moment: S , {S} =    0.00000  -0.00000  -0.00000   0.00000
   scf:   27    -4147.935310    -4147.935310    -4147.935310  0.000000 -3.658704  0.000005
     spin moment: S , {S} =    0.00000  -0.00000  -0.00000   0.00000
   scf:   28    -4147.935310    -4147.935310    -4147.935310  0.000000 -3.658704  0.000004
     spin moment: S , {S} =    0.00000  -0.00000  -0.00000   0.00000
   scf:   29    -4147.935310    -4147.935310    -4147.935310  0.000000 -3.658704  0.000002
     spin moment: S , {S} =    0.00000  -0.00000  -0.00000   0.00000
   scf:   30    -4147.935310    -4147.935310    -4147.935310  0.000000 -3.658704  0.000001
     spin moment: S , {S} =    0.00000  -0.00000  -0.00000   0.00000
   scf:   31    -4147.935310    -4147.935310    -4147.935310  0.000000 -3.658703  0.000001
     spin moment: S , {S} =    0.00000  -0.00000  -0.00000   0.00000

SCF Convergence by DM+H criterion
max |DM_out - DM_in|         :     0.0000000558
max |H_out - H_in|      (eV) :     0.0000008606
SCF cycle converged after 31 iterations

Using DM_out to compute the final energy and forces
No. of atoms with KB's overlaping orbs in proc 0. Max # of overlaps:      27     206

siesta: E_KS(eV) =            -4147.9353

siesta: E_KS - E_eggbox =     -4147.9353
     spin moment: S , {S} =    0.00000  -0.00000  -0.00000   0.00000

siesta: Atomic forces (eV/Ang):
     1    0.087553   -0.003186   -0.000000
     2   -0.024134    0.060220    0.000000
     3    0.058848   -0.017711   -0.000000
     4   -0.008606    0.148560    0.000000
     5   -0.027090   -0.021062    0.000000
     6    0.021764    0.037905   -0.000000
     7    0.186300    0.080442    0.000000
     8    0.237262   -0.496852    0.000000
     9   -0.145655    0.211951    0.000000
    10    0.081142   -0.030361   -0.000000
    11   -0.049518   -0.064870    0.000000
    12    0.155496   -0.069755    0.000000
    13   -2.092473    3.910885   -0.000000
    14   -0.019847   -0.003418    0.000000
    15    0.010906    0.009703    0.000000
    16   -0.010200   -0.010458   -0.000000
    17   -0.008408    0.042237   -0.000000
    18   -0.038074    0.010604   -0.000000
    19    0.029814   -0.004476    0.000000
    20   -0.173772   -0.007622   -0.000000
    21    0.618520   -3.642090    0.000000
    22   -0.016235    0.125182    0.000000
    23    0.047514   -0.156268   -0.000000
    24   -0.053282   -0.100623   -0.000000
    25   -0.157055    0.354074   -0.000000
    26    0.126440   -0.136673    0.000000
    27   -0.102114   -0.057156    0.000000
    28    0.004886    0.089792    0.000000
    29   -0.045927   -0.053138   -0.000000
----------------------------------------
   Tot   -1.305944    0.205836   -0.000000
----------------------------------------
   Max    3.910885
   Res    0.626226    sqrt( Sum f_i^2 / 3N )
----------------------------------------
   Max    3.910885    constrained

Stress tensor Voigt[x,y,z,yz,xz,xy] (kbar):        0.36        0.11       -0.04       -0.00       -0.00       -0.15
(Free)E + p*V (eV/cell)    -4149.1605
Target enthalpy (eV/cell)    -4147.9353

siesta: Stress tensor (static) (eV/Ang**3):
         0.000224   -0.000094    0.000000
        -0.000094    0.000071   -0.000000
        -0.000000   -0.000000   -0.000022

siesta: Pressure (static):         -0.14540935  kBar

siesta: Stress tensor (total) (eV/Ang**3):
         0.000224   -0.000094    0.000000
        -0.000094    0.000071   -0.000000
        -0.000000   -0.000000   -0.000022

siesta: Pressure (total):         -0.14540935  kBar

siesta: Temp_ion =       0.000 K

siesta: Eigenvalues (eV):
ik =     1
  -22.5497  -22.5497  -22.1651  -22.1651  -21.3059  -21.3059  -21.0894  -21.0894  -20.8869  -20.8869
  -20.6854  -20.6854  -20.1980  -20.1980  -19.5069  -19.5069  -19.3943  -19.3943  -19.2081  -19.2081
  -14.6990  -14.6990  -13.6673  -13.6673  -13.1495  -13.1495  -12.9250  -12.9250  -12.8434  -12.8434
  -12.5288  -12.5288  -12.4554  -12.4554  -12.0051  -12.0051  -11.7066  -11.7066  -11.5751  -11.5751
  -10.9252  -10.9252  -10.7243  -10.7243  -10.4897  -10.4897  -10.2868  -10.2868  -10.0856  -10.0856
   -9.5878   -9.5878   -8.9679   -8.9679   -8.8450   -8.8450   -8.6788   -8.6788   -8.5382   -8.5382
   -8.3984   -8.3984   -8.2688   -8.2688   -8.2615   -8.2615   -7.8486   -7.8486   -7.7286   -7.7286
   -7.4999   -7.4999   -7.2239   -7.2239   -7.0923   -7.0923   -6.9706   -6.9706   -6.7863   -6.7863
   -6.5292   -6.5292   -6.4542   -6.4542   -6.2899   -6.2899   -6.2206   -6.2206   -6.1932   -6.1932
   -6.0230   -6.0230   -5.8069   -5.8069   -5.4793   -5.4793   -4.1707   -4.1707   -3.1465   -3.1465
   -2.2476   -2.2476   -2.2031   -2.2031   -2.0737   -2.0737   -1.7825   -1.7825   -1.7720   -1.7720
   -1.7010   -1.7010   -1.5563   -1.5563   -1.5289   -1.5289   -1.1196   -1.1196   -1.0787   -1.0787
   -0.8294   -0.8294   -0.4458   -0.4458   -0.3449   -0.3449   -0.1919   -0.1919    0.4995    0.4995
    0.5879    0.5879    0.6744    0.6744    0.7521    0.7521    1.1253    1.1253    1.2403    1.2403
    1.4866    1.4866    1.5023    1.5023    1.5369    1.5369    1.6930    1.6930    2.1061    2.1061
    2.2007    2.2007    2.7553    2.7553    2.8375    2.8375    2.8616    2.8616    2.9712    2.9712
    3.0051    3.0051    3.1011    3.1011    3.2580    3.2580    3.5596    3.5596    3.6293    3.6293
    3.9143    3.9143    4.1085    4.1085    4.2285    4.2285    4.2660    4.2660    4.4715    4.4715
    4.6736    4.6736    4.6948    4.6948    4.8707    4.8707    5.1593    5.1593    5.2645    5.2645
    5.3989    5.3989    5.4477    5.4477    5.8193    5.8193    5.8456    5.8456    6.0329    6.0329
    6.0897    6.0897    6.3772    6.3772    6.5338    6.5338    6.6448    6.6448    6.6512    6.6512
    6.7816    6.7816    6.8070    6.8070    7.0568    7.0568    7.2107    7.2107    7.2157    7.2157
    7.3978    7.3978    7.8087    7.8087    7.8396    7.8396    8.0253    8.0253    8.1491    8.1491
    8.1793    8.1793    8.3687    8.3687    8.5883    8.5883    8.6315    8.6315    8.8178    8.8178
    8.9042    8.9042    8.9756    8.9756    9.1862    9.1862    9.2142    9.2142    9.4921    9.4921
    9.6361    9.6361    9.9801    9.9801   10.0936   10.0936   10.0964   10.0964   10.2628   10.2628
   10.3994   10.3994   10.7071   10.7071   10.9159   10.9159   11.3128   11.3128   11.3715   11.3715
   11.4300   11.4300   11.7100   11.7100   12.4150   12.4150   12.4344   12.4344   12.4641   12.4641
   12.5760   12.5760   12.6658   12.6658   12.7056   12.7056   13.1295   13.1295   13.3570   13.3570
   13.6635   13.6635   13.6951   13.6951   13.7827   13.7827   14.0490   14.0490   14.1612   14.1612
   14.3259   14.3259   14.5226   14.5226   15.0132   15.0132   15.0636   15.0636   15.0859   15.0859
   15.5232   15.5232   16.2311   16.2311   16.6632   16.6632   16.7760   16.7760   16.9214   16.9214
   17.3137   17.3137   17.6583   17.6583   18.0604   18.0604   18.7439   18.7439   19.0773   19.0773
   19.3338   19.3338   20.0908   20.0908   20.3457   20.3457   20.5026   20.5026   20.7703   20.7703
   21.3683   21.3683   22.1590   22.1590   22.4042   22.4042   22.7281   22.7281   23.5553   23.5553
   23.7091   23.7091   24.0939   24.0939   24.1976   24.1976   24.7067   24.7067   25.3639   25.3639
   25.7796   25.7796   26.1957   26.1957   26.6502   26.6502   27.7166   27.7166   28.9175   28.9175
   29.5702   29.5702   29.8321   29.8321   30.1655   30.1655   30.4489   30.4489   30.7031   30.7031
   31.0069   31.0069   31.1249   31.1249   31.3555   31.3555   31.6828   31.6828   31.7946   31.7946
   32.4365   32.4365   32.8433   32.8433   33.6740   33.6740   34.0046   34.0046   34.1160   34.1160
   35.1773   35.1773   35.3981   35.3981   35.5611   35.5611   35.7992   35.7992   36.1738   36.1738
   36.7456   36.7456   36.9043   36.9043   37.2006   37.2006   37.3186   37.3186   38.4611   38.4611
   38.8105   38.8105   39.0508   39.0508   39.6219   39.6219   39.7878   39.7878   40.2838   40.2838
   40.4567   40.4567   40.5298   40.5298   41.0946   41.0946   41.3976   41.3976   41.5676   41.5676
   42.1114   42.1114   42.4578   42.4578   42.6240   42.6240   43.4737   43.4737   43.7151   43.7151
   44.0043   44.0043   44.0643   44.0643   44.1484   44.1484   44.5205   44.5205   44.7661   44.7661
   45.0883   45.0883   45.4103   45.4103   45.5331   45.5331   46.1403   46.1403   46.5105   46.5105
   46.8027   46.8027   47.5643   47.5643   47.9394   47.9394   48.2894   48.2894   49.6191   49.6191
   49.8293   49.8293   50.4293   50.4293   50.4815   50.4815   50.7870   50.7870   50.9086   50.9086
   51.2168   51.2168   51.4306   51.4306   52.3047   52.3047   52.7841   52.7841   54.0782   54.0782
   54.1636   54.1636   54.2128   54.2128   55.2454   55.2454   55.8398   55.8398   56.1365   56.1365
   56.1783   56.1783   56.6126   56.6126   58.1677   58.1677   58.2869   58.2869   58.5176   58.5176
   59.9053   59.9053   60.2770   60.2770   60.3762   60.3762   61.2078   61.2078   61.5684   61.5684
   62.3913   62.3913   62.5872   62.5872   62.7383   62.7383   62.9145   62.9145   66.0452   66.0452
   66.7439   66.7439   67.5950   67.5950   67.9390   67.9390   68.5612   68.5612   68.8881   68.8881
   70.0677   70.0677   70.6116   70.6116   71.3314   71.3314   75.1816   75.1816   84.9972   84.9972
   87.8459   87.8459   88.9159   88.9159   93.3655   93.3655   94.3087   94.3087   95.2104   95.2104
   99.5355   99.5355   99.9987   99.9987  102.1183  102.1183  104.1104  104.1104  105.2572  105.2572
  114.7936  114.7936  117.3585  117.3585  125.1033  125.1033  128.1383  128.1383  137.6557  137.6557
  144.3466  144.3466  146.2505  146.2505
siesta: Fermi energy =      -3.658703 eV

siesta: Program's energy decomposition (eV):
siesta: Ebs     =     -1121.841023
siesta: Eions   =      3585.165840
siesta: Ena     =       381.456731
siesta: Ekin    =      2907.759589
siesta: Enl     =     -2792.011285
siesta: Eso     =        -0.004310
siesta: Edftu   =         0.000000
siesta: DEna    =        47.873103
siesta: DUscf   =        13.687082
siesta: DUext   =         0.000000
siesta: Exc     =     -1121.530380
siesta: eta*DQ  =         0.000000
siesta: Emadel  =         0.000000
siesta: Emeta   =         0.000000
siesta: Emolmec =         0.000000
siesta: Ekinion =         0.000000
siesta: Eharris =     -4147.935310
siesta: Etot    =     -4147.935310
siesta: FreeEng =     -4147.935310

siesta: Final energy (eV):
siesta:  Band Struct. =   -1121.841023
siesta:       Kinetic =    2907.759589
siesta:       Hartree =   15904.571406
siesta:       Edftu   =       0.000000
siesta:       Eso     =      -0.004310
siesta:    Ext. field =       0.000000
siesta:   Exch.-corr. =   -1121.530380
siesta:  Ion-electron =  -34382.714994
siesta:       Ion-ion =   12543.983379
siesta:       Ekinion =       0.000000
siesta:         Total =   -4147.935310
siesta:         Fermi =      -3.658703

siesta: Atomic forces (eV/Ang):
siesta:      1    0.087553   -0.003186   -0.000000
siesta:      2   -0.024134    0.060220    0.000000
siesta:      3    0.058848   -0.017711   -0.000000
siesta:      4   -0.008606    0.148560    0.000000
siesta:      5   -0.027090   -0.021062    0.000000
siesta:      6    0.021764    0.037905   -0.000000
siesta:      7    0.186300    0.080442    0.000000
siesta:      8    0.237262   -0.496852    0.000000
siesta:      9   -0.145655    0.211951    0.000000
siesta:     10    0.081142   -0.030361   -0.000000
siesta:     11   -0.049518   -0.064870    0.000000
siesta:     12    0.155496   -0.069755    0.000000
siesta:     13   -2.092473    3.910885   -0.000000
siesta:     14   -0.019847   -0.003418    0.000000
siesta:     15    0.010906    0.009703    0.000000
siesta:     16   -0.010200   -0.010458   -0.000000
siesta:     17   -0.008408    0.042237   -0.000000
siesta:     18   -0.038074    0.010604   -0.000000
siesta:     19    0.029814   -0.004476    0.000000
siesta:     20   -0.173772   -0.007622   -0.000000
siesta:     21    0.618520   -3.642090    0.000000
siesta:     22   -0.016235    0.125182    0.000000
siesta:     23    0.047514   -0.156268   -0.000000
siesta:     24   -0.053282   -0.100623   -0.000000
siesta:     25   -0.157055    0.354074   -0.000000
siesta:     26    0.126440   -0.136673    0.000000
siesta:     27   -0.102114   -0.057156    0.000000
siesta:     28    0.004886    0.089792    0.000000
siesta:     29   -0.045927   -0.053138   -0.000000
siesta: ----------------------------------------
siesta:    Tot   -1.305944    0.205836   -0.000000

siesta: Stress tensor (static) (eV/Ang**3):
siesta:     0.000224   -0.000094    0.000000
siesta:    -0.000094    0.000071   -0.000000
siesta:    -0.000000   -0.000000   -0.000022

siesta: Cell volume =      13500.000000 Ang**3

siesta: Pressure (static):
siesta:                Solid            Molecule  Units
siesta:          -0.00000099         -0.00000460  Ry/Bohr**3
siesta:          -0.00009076         -0.00042221  eV/Ang**3
siesta:          -0.14540935         -0.67646687  kBar
(Free)E+ p_basis*V_orbitals  =       -4128.084892
(Free)Eharris+ p_basis*V_orbitals  =       -4128.084892
     spin moment: S , {S} =    0.00000  -0.00000  -0.00000   0.00000

siesta: Electric dipole (a.u.)  =   -0.037037    1.460957   -0.000000
siesta: Electric dipole (Debye) =   -0.094139    3.713386   -0.000000

cite: Please see "GC.bib" for an exhaustive BiBTeX file.
cite: Please clearly indicate Siesta version in published work: v4.1.5-1-g384057250
cite: This calculation has made use of the following articles
cite: which are encouraged to be cited in a published work.
        Primary SIESTA paper
          DOI: www.doi.org/10.1088/0953-8984/14/11/302
        Spin-orbit coupling (on-site approximation)
          DOI: www.doi.org/10.1088/0953-8984/19/19/489001


WARNING: alloc-realloc-dealloc name mismatch
         Name: atomlist isa
         Size:              -116. Bytes
         Node:     0
         Subsequent mismatches will not be reported
>> End of run:   1-FEB-2024  21:33:30
Job completed
