Siesta Version  : v4.1.5-1-g384057250
Architecture    : gcc
Compiler version: GNU Fortran (Ubuntu 11.3.0-1ubuntu1~22.04) 11.3.0
Compiler flags  : mpifort -O2 -fPIC -ftree-vectorize -fallow-argument-mismatch
PP flags        : -DFC_HAVE_ABORT -DMPI -DSIESTA__FLOOK -DSIESTA__METIS -DSIESTA__MUMPS -DCDF -DNCDF -DNCDF_4 -DNCDF_PARALLEL -DSIESTA__MRRR -DSIESTA__ELPA
Libraries       : libncdf.a libfdict.a  -lflookall -ldl -lnetcdff -lnetcdf -lhdf5_hl -lhdf5 -lhdf5_fortran -lz -lscalapack-openmpi -lopenblas -lmetis -lzmumps -lcmumps -ldmumps -lmumps_common -lpord -lsmumps -lesmumps -lscotch -lscotcherr -fopenmp -lelpa
PARALLEL version
NetCDF support
NetCDF-4 support
NetCDF-4 MPI-IO support
METIS ordering support
Lua support

* Running on 4 nodes in parallel
>> Start of run:   1-JUN-2023  23:22:26

                           ***********************       
                           *  WELCOME TO SIESTA  *       
                           ***********************       

reinit: Reading from standard input
reinit: Dumped input in INPUT_TMP.06383
************************** Dump of input data file ****************************
# mpirun -np 4 siesta-4.1.5 < Adenine.fdf > Adenine.out
SystemLabel      Adenine
NumberOfAtoms    15
NumberOfSpecies  3
%block ChemicalSpeciesLabel
    1    1  H
    2    7  N
    3   14  Si
%endblock ChemicalSpeciesLabel
############################################
# This overrides Defaults.fdf configuration
############################################
MD.TypeOfRun                CG # CG, Verlet
MD.Steps                    0
AtomicCoordinatesFormat NotScaledCartesianAng
%block AtomicCoordinatesAndAtomicSpecies
    2.46315852   -5.19921296    0.00000000   1       1  H
    1.53554010   -4.69174449   -0.00000000   2       2  N
   -0.05609030   -5.52408710    0.00000000   3       3  Si
    0.00000410   -7.01923201   -0.00000000   1       4  H
   -1.49611119   -4.60498625    0.00000000   2       5  N
   -0.94359104   -2.88324896   -0.00000001   3       6  Si
   -1.28979062   -0.69238461    0.00000001   3       7  Si
   -2.82615281    0.16010171    0.00000000   2       8  N
   -2.87378880    1.21247611   -0.00000000   1       9  H
   -3.75689478   -0.33235037    0.00000000   1      10  H
    0.09887265    0.34342352   -0.00000000   2      11  N
    1.75278495   -0.11954481   -0.00000001   3      12  Si
    2.70878199    1.03908226    0.00000000   1      13  H
    2.52893094   -1.67740697    0.00000000   2      14  N
    1.27270225   -2.87710973   -0.00000000   3      15  Si
%endblock AtomicCoordinatesAndAtomicSpecies
#############
# Unit Cell
#############
LatticeConstant 2.0 Ang
%block LatticeVectors
    14.779133    0.000000    0.000000
    0.000000   16.638097    0.000000
    0.000000    0.000000    9.854683
%endblock LatticeVectors
%include ../../Defaults.fdf
************************** End of input data file *****************************

reinit: -----------------------------------------------------------------------
reinit: System Name: 
reinit: -----------------------------------------------------------------------
reinit: System Label: Adenine
reinit: -----------------------------------------------------------------------

initatom: Reading input for the pseudopotentials and atomic orbitals ----------
Species number:   1 Atomic number:    1 Label: H
Species number:   2 Atomic number:    7 Label: N
Species number:   3 Atomic number:   14 Label: Si

Ground state valence configuration:   1s01
Reading pseudopotential information in formatted form from H.psf

Pseudopotential generated from a relativistic atomic calculation

Valence configuration for pseudopotential generation:
1s( 1.00) rc: 0.01
2p( 0.00) rc: 0.60
3d( 0.00) rc: 1.99
4f( 0.00) rc: 2.49
Ground state valence configuration:   2s02  2p03
Reading pseudopotential information in formatted form from N.psf

Pseudopotential generated from a relativistic atomic calculation

Valence configuration for pseudopotential generation:
2s( 2.00) rc: 0.94
2p( 3.00) rc: 0.59
3d( 0.00) rc: 3.46
4f( 0.00) rc: 2.47
Ground state valence configuration:   3s02  3p02
Reading pseudopotential information in formatted form from Si.psf

Pseudopotential generated from a relativistic atomic calculation

Valence configuration for pseudopotential generation:
3s( 2.00) rc: 1.67
3p( 2.00) rc: 2.04
3d( 0.00) rc: 2.89
4f( 0.00) rc: 2.49
For H, standard SIESTA heuristics set lmxkb to 2
 (one more than the basis l, including polarization orbitals).
Use PS.lmax or PS.KBprojectors blocks to override.
For N, standard SIESTA heuristics set lmxkb to 3
 (one more than the basis l, including polarization orbitals).
Use PS.lmax or PS.KBprojectors blocks to override.
For Si, standard SIESTA heuristics set lmxkb to 3
 (one more than the basis l, including polarization orbitals).
Use PS.lmax or PS.KBprojectors blocks to override.

<basis_specs>
===============================================================================
H                    Z=   1    Mass=  1.0100        Charge= 0.17977+309
Lmxo=0 Lmxkb= 2    BasisType=split      Semic=F
L=0  Nsemic=0  Cnfigmx=1
          i=1  nzeta=2  polorb=1  (1s)
            splnorm:   0.62000    
               vcte:    0.0000    
               rinn:    0.0000    
               qcoe:    0.0000    
               qyuk:    0.0000    
               qwid:   0.10000E-01
                rcs:    0.0000      0.0000    
            lambdas:    1.0000      1.0000    
-------------------------------------------------------------------------------
L=0  Nkbl=1  erefs: 0.17977+309
L=1  Nkbl=1  erefs: 0.17977+309
L=2  Nkbl=1  erefs: 0.17977+309
===============================================================================
</basis_specs>

atom: Called for H                     (Z =   1)

read_vps: Pseudopotential generation method:
read_vps: ATM4.2.7  Troullier-Martins                       
Valence charge for ps generation:    1.00000

xc_check: Exchange-correlation functional:
xc_check: GGA Perdew, Burke & Ernzerhof 1996
V l=0 = -2*Zval/r beyond r=  0.0098
V l=1 = -2*Zval/r beyond r=  0.5817
V l=2 = -2*Zval/r beyond r=  1.9372
All V_l potentials equal beyond r=  1.9372
This should be close to max(r_c) in ps generation
All pots = -2*Zval/r beyond r=  1.9372

VLOCAL1: 99.0% of the norm of Vloc inside     11.567 Ry
VLOCAL1: 99.9% of the norm of Vloc inside     26.362 Ry
atom: Maximum radius for 4*pi*r*r*local-pseudopot. charge    2.25106
atom: Maximum radius for r*vlocal+2*Zval:    1.91306
GHOST: No ghost state for L =  0
GHOST: No ghost state for L =  1
GHOST: No ghost state for L =  2

KBgen: Kleinman-Bylander projectors: 
   l= 0   rc=  2.036604   el= -0.477180   Ekb= -6.081590   kbcos= -0.277285
   l= 1   rc=  2.195416   el=  0.001076   Ekb= -0.926943   kbcos= -0.034643
   l= 2   rc=  2.251056   el=  0.002010   Ekb= -0.130941   kbcos= -0.009788

KBgen: Total number of Kleinman-Bylander projectors:    9
atom: -------------------------------------------------------------------------

atom: SANKEY-TYPE ORBITALS:
atom: Selected multiple-zeta basis: split     

SPLIT: Orbitals with angular momentum L= 0

SPLIT: Basis orbitals for state 1s

SPLIT: PAO cut-off radius determined from an
SPLIT: energy shift=  0.002000 Ry

   izeta = 1
                 lambda =    1.000000
                     rc =    6.518340
                 energy =   -0.475305
                kinetic =    0.912139
    potential(screened) =   -1.387444
       potential(ionic) =   -1.907295

   izeta = 2
                 rmatch =    2.141150
              splitnorm =    0.620000
                 energy =    0.566467
                kinetic =    3.772856
    potential(screened) =   -3.206389
       potential(ionic) =   -3.759093

POLgen: Perturbative polarization orbital with L=  1

POLgen: Polarization orbital for state 1s

   izeta = 1
                     rc =    6.518340
                 energy =    0.533861
                kinetic =    1.121086
    potential(screened) =   -0.587225
       potential(ionic) =   -1.053027
atom: Total number of Sankey-type orbitals:  5

atm_pop: Valence configuration (for local Pseudopot. screening):
 1s( 1.00)                                                            
Vna: chval, zval:    1.00000   1.00000

Vna:  Cut-off radius for the neutral-atom potential:   6.518340

atom: _________________________________________________________________________

<basis_specs>
===============================================================================
N                    Z=   7    Mass=  14.010        Charge= 0.17977+309
Lmxo=1 Lmxkb= 3    BasisType=split      Semic=F
L=0  Nsemic=0  Cnfigmx=2
          i=1  nzeta=2  polorb=0  (2s)
            splnorm:   0.28000    
               vcte:    0.0000    
               rinn:    0.0000    
               qcoe:    0.0000    
               qyuk:    0.0000    
               qwid:   0.10000E-01
                rcs:    0.0000      0.0000    
            lambdas:    1.0000      1.0000    
L=1  Nsemic=0  Cnfigmx=2
          i=1  nzeta=2  polorb=1  (2p)
            splnorm:   0.28000    
               vcte:    0.0000    
               rinn:    0.0000    
               qcoe:    0.0000    
               qyuk:    0.0000    
               qwid:   0.10000E-01
                rcs:    0.0000      0.0000    
            lambdas:    1.0000      1.0000    
-------------------------------------------------------------------------------
L=0  Nkbl=1  erefs: 0.17977+309
L=1  Nkbl=1  erefs: 0.17977+309
L=2  Nkbl=1  erefs: 0.17977+309
L=3  Nkbl=1  erefs: 0.17977+309
===============================================================================
</basis_specs>

atom: Called for N                     (Z =   7)

read_vps: Pseudopotential generation method:
read_vps: ATM4.2.7  Troullier-Martins                       
Valence charge for ps generation:    5.00000

xc_check: Exchange-correlation functional:
xc_check: GGA Perdew, Burke & Ernzerhof 1996
V l=0 = -2*Zval/r beyond r=  1.2889
V l=1 = -2*Zval/r beyond r=  1.2889
V l=2 = -2*Zval/r beyond r=  3.4178
V l=3 = -2*Zval/r beyond r=  2.4084
All V_l potentials equal beyond r=  3.3753
This should be close to max(r_c) in ps generation
All pots = -2*Zval/r beyond r=  3.4178

VLOCAL1: 99.0% of the norm of Vloc inside      3.810 Ry
VLOCAL1: 99.9% of the norm of Vloc inside      8.683 Ry
atom: Maximum radius for 4*pi*r*r*local-pseudopot. charge    4.02088
atom: Maximum radius for r*vlocal+2*Zval:    3.54838
GHOST: No ghost state for L =  0
GHOST: No ghost state for L =  1
GHOST: No ghost state for L =  2
GHOST: No ghost state for L =  3

KBgen: Kleinman-Bylander projectors: 
   l= 0   rc=  3.417763   el= -1.365098   Ekb= -4.433130   kbcos= -0.707855
   l= 1   rc=  3.375302   el= -0.521201   Ekb=-13.264039   kbcos= -0.535594
   l= 2   rc=  3.872880   el=  0.001991   Ekb= -0.641094   kbcos= -0.062456
   l= 3   rc=  3.970931   el=  0.003093   Ekb= -0.474517   kbcos= -0.018236

KBgen: Total number of Kleinman-Bylander projectors:   16
atom: -------------------------------------------------------------------------

atom: SANKEY-TYPE ORBITALS:
atom: Selected multiple-zeta basis: split     

SPLIT: Orbitals with angular momentum L= 0

SPLIT: Basis orbitals for state 2s

SPLIT: PAO cut-off radius determined from an
SPLIT: energy shift=  0.002000 Ry

   izeta = 1
                 lambda =    1.000000
                     rc =    4.730425
                 energy =   -1.363399
                kinetic =    1.245246
    potential(screened) =   -2.608645
       potential(ionic) =   -8.121105

   izeta = 2
                 rmatch =    2.531849
              splitnorm =    0.280000
                 energy =   -0.959908
                kinetic =    2.409435
    potential(screened) =   -3.369343
       potential(ionic) =   -9.427975

SPLIT: Orbitals with angular momentum L= 1

SPLIT: Basis orbitals for state 2p

SPLIT: PAO cut-off radius determined from an
SPLIT: energy shift=  0.002000 Ry

   izeta = 1
                 lambda =    1.000000
                     rc =    5.924108
                 energy =   -0.519262
                kinetic =    3.672940
    potential(screened) =   -4.192202
       potential(ionic) =   -9.518354

   izeta = 2
                 rmatch =    2.531849
              splitnorm =    0.280000
                 energy =   -0.104258
                kinetic =    6.807538
    potential(screened) =   -6.911796
       potential(ionic) =  -13.149920

POLgen: Perturbative polarization orbital with L=  2

POLgen: Polarization orbital for state 2p

   izeta = 1
                     rc =    5.924108
                 energy =    1.427508
                kinetic =    2.872379
    potential(screened) =   -1.444871
       potential(ionic) =   -5.563644
atom: Total number of Sankey-type orbitals: 13

atm_pop: Valence configuration (for local Pseudopot. screening):
 2s( 2.00)                                                            
 2p( 3.00)                                                            
Vna: chval, zval:    5.00000   5.00000

Vna:  Cut-off radius for the neutral-atom potential:   5.924108

atom: _________________________________________________________________________

<basis_specs>
===============================================================================
Si                   Z=  14    Mass=  28.090        Charge= 0.17977+309
Lmxo=1 Lmxkb= 3    BasisType=split      Semic=F
L=0  Nsemic=0  Cnfigmx=3
          i=1  nzeta=2  polorb=0  (3s)
            splnorm:   0.28000    
               vcte:    0.0000    
               rinn:    0.0000    
               qcoe:    0.0000    
               qyuk:    0.0000    
               qwid:   0.10000E-01
                rcs:    0.0000      0.0000    
            lambdas:    1.0000      1.0000    
L=1  Nsemic=0  Cnfigmx=3
          i=1  nzeta=2  polorb=1  (3p)
            splnorm:   0.28000    
               vcte:    0.0000    
               rinn:    0.0000    
               qcoe:    0.0000    
               qyuk:    0.0000    
               qwid:   0.10000E-01
                rcs:    0.0000      0.0000    
            lambdas:    1.0000      1.0000    
-------------------------------------------------------------------------------
L=0  Nkbl=1  erefs: 0.17977+309
L=1  Nkbl=1  erefs: 0.17977+309
L=2  Nkbl=1  erefs: 0.17977+309
L=3  Nkbl=1  erefs: 0.17977+309
===============================================================================
</basis_specs>

atom: Called for Si                    (Z =  14)

read_vps: Pseudopotential generation method:
read_vps: ATM4.2.7  Troullier-Martins                       
Valence charge for ps generation:    4.00000

xc_check: Exchange-correlation functional:
xc_check: GGA Perdew, Burke & Ernzerhof 1996
V l=0 = -2*Zval/r beyond r=  2.7826
V l=1 = -2*Zval/r beyond r=  2.7826
V l=2 = -2*Zval/r beyond r=  2.9253
V l=3 = -2*Zval/r beyond r=  2.7826
All V_l potentials equal beyond r=  2.8530
This should be close to max(r_c) in ps generation
All pots = -2*Zval/r beyond r=  2.9253

VLOCAL1: 99.0% of the norm of Vloc inside      5.333 Ry
VLOCAL1: 99.9% of the norm of Vloc inside     12.154 Ry
atom: Maximum radius for 4*pi*r*r*local-pseudopot. charge    3.39869
atom: Maximum radius for r*vlocal+2*Zval:    2.96205
GHOST: No ghost state for L =  0
GHOST: No ghost state for L =  1
GHOST: No ghost state for L =  2
GHOST: No ghost state for L =  3

KBgen: Kleinman-Bylander projectors: 
   l= 0   rc=  3.075247   el= -0.794092   Ekb=  5.879390   kbcos=  0.167461
   l= 1   rc=  3.153101   el= -0.300068   Ekb=  2.642817   kbcos=  0.058301
   l= 2   rc=  3.273594   el=  0.001958   Ekb= -1.185135   kbcos= -0.104411
   l= 3   rc=  3.232927   el=  0.003046   Ekb= -0.497174   kbcos= -0.015889

KBgen: Total number of Kleinman-Bylander projectors:   16
atom: -------------------------------------------------------------------------

atom: SANKEY-TYPE ORBITALS:
atom: Selected multiple-zeta basis: split     

SPLIT: Orbitals with angular momentum L= 0

SPLIT: Basis orbitals for state 3s

SPLIT: PAO cut-off radius determined from an
SPLIT: energy shift=  0.002000 Ry

   izeta = 1
                 lambda =    1.000000
                     rc =    6.429618
                 energy =   -0.792283
                kinetic =    0.525293
    potential(screened) =   -1.317576
       potential(ionic) =   -3.744923

   izeta = 2
                 rmatch =    3.998416
              splitnorm =    0.280000
                 energy =   -0.583081
                kinetic =    1.069570
    potential(screened) =   -1.652651
       potential(ionic) =   -4.235185

SPLIT: Orbitals with angular momentum L= 1

SPLIT: Basis orbitals for state 3p

SPLIT: PAO cut-off radius determined from an
SPLIT: energy shift=  0.002000 Ry

   izeta = 1
                 lambda =    1.000000
                     rc =    8.464845
                 energy =   -0.298236
                kinetic =    0.785360
    potential(screened) =   -1.083596
       potential(ionic) =   -3.273779

   izeta = 2
                 rmatch =    4.587816
              splitnorm =    0.280000
                 energy =   -0.131871
                kinetic =    1.403687
    potential(screened) =   -1.535557
       potential(ionic) =   -4.015310

POLgen: Perturbative polarization orbital with L=  2

POLgen: Polarization orbital for state 3p

   izeta = 1
                     rc =    8.464845
                 energy =    0.321949
                kinetic =    1.055677
    potential(screened) =   -0.733728
       potential(ionic) =   -2.672950
atom: Total number of Sankey-type orbitals: 13

atm_pop: Valence configuration (for local Pseudopot. screening):
 3s( 2.00)                                                            
 3p( 2.00)                                                            
Vna: chval, zval:    4.00000   4.00000

Vna:  Cut-off radius for the neutral-atom potential:   8.464845

atom: _________________________________________________________________________

prinput: Basis input ----------------------------------------------------------

PAO.BasisType split     

%block ChemicalSpeciesLabel
    1    1 H                       # Species index, atomic number, species label
    2    7 N                       # Species index, atomic number, species label
    3   14 Si                      # Species index, atomic number, species label
%endblock ChemicalSpeciesLabel

%block PAO.Basis                 # Define Basis set
H                     1                    # Species label, number of l-shells
 n=1   0   2 P   1                   # n, l, Nzeta, Polarization, NzetaPol
   6.518      2.141   
   1.000      1.000   
N                     2                    # Species label, number of l-shells
 n=2   0   2                         # n, l, Nzeta 
   4.730      2.532   
   1.000      1.000   
 n=2   1   2 P   1                   # n, l, Nzeta, Polarization, NzetaPol
   5.924      2.532   
   1.000      1.000   
Si                    2                    # Species label, number of l-shells
 n=3   0   2                         # n, l, Nzeta 
   6.430      3.998   
   1.000      1.000   
 n=3   1   2 P   1                   # n, l, Nzeta, Polarization, NzetaPol
   8.465      4.588   
   1.000      1.000   
%endblock PAO.Basis

prinput: ----------------------------------------------------------------------

Dumping basis to NetCDF file H.ion.nc
Dumping basis to NetCDF file N.ion.nc
Dumping basis to NetCDF file Si.ion.nc
coor:   Atomic-coordinates input format  =     Cartesian coordinates
coor:                                          (in Angstroms)

siesta: Atomic coordinates (Bohr) and species
siesta:      4.65470  -9.82509   0.00000  1        1
siesta:      2.90175  -8.86612  -0.00000  2        2
siesta:     -0.10600 -10.43902   0.00000  3        3
siesta:      0.00001 -13.26443  -0.00000  1        4
siesta:     -2.82724  -8.70217   0.00000  2        5
siesta:     -1.78313  -5.44855  -0.00000  3        6
siesta:     -2.43735  -1.30842   0.00000  3        7
siesta:     -5.34066   0.30255   0.00000  2        8
siesta:     -5.43068   2.29125  -0.00000  1        9
siesta:     -7.09951  -0.62805   0.00000  1       10
siesta:      0.18684   0.64898  -0.00000  2       11
siesta:      3.31228  -0.22591  -0.00000  3       12
siesta:      5.11886   1.96358   0.00000  1       13
siesta:      4.77899  -3.16984   0.00000  2       14
siesta:      2.40506  -5.43695  -0.00000  3       15

siesta: System type = molecule  

initatomlists: Number of atoms, orbitals, and projectors:     15   155   205

siesta: ******************** Simulation parameters ****************************
siesta:
siesta: The following are some of the parameters of the simulation.
siesta: A complete list of the parameters used, including default values,
siesta: can be found in file out.fdf
siesta:
redata: Spin configuration                          = spin-orbit
redata: Number of spin components                   = 8
redata: Time-Reversal Symmetry                      = F
redata: Spin spiral                                 = F
############################################################
This spin-orbit implementation uses a local approximation.
From 4.2 and onwards the full non-local approximation is implemented
You are strongly advised to use >=4.2 versions!
############################################################
redata: Long output                                 =   F
redata: Number of Atomic Species                    =        3
redata: Charge density info will appear in .RHO file
redata: Write Mulliken Pop.                         = Atomic and Orbital charges
redata: Matel table size (NRTAB)                    =     1024
redata: Mesh Cutoff                                 =   340.0000 Ry
redata: Net charge of the system                    =     0.0000 |e|
redata: Min. number of SCF Iter                     =        1
redata: Max. number of SCF Iter                     =      200
redata: SCF convergence failure will abort job
redata: SCF mix quantity                            = Hamiltonian
redata: Mix DM or H after convergence               =   F
redata: Recompute H after scf cycle                 =   F
redata: Mix DM in first SCF step                    =   T
redata: Write Pulay info on disk                    =   F
redata: New DM Occupancy tolerance                  = 0.000000000001
redata: No kicks to SCF
redata: DM Mixing Weight for Kicks                  =     0.5000
redata: Require Harris convergence for SCF          =   F
redata: Harris energy tolerance for SCF             =     0.000100 eV
redata: Require DM convergence for SCF              =   T
redata: DM tolerance for SCF                        =     0.000008
redata: Require EDM convergence for SCF             =   F
redata: EDM tolerance for SCF                       =     0.001000 eV
redata: Require H convergence for SCF               =   T
redata: Hamiltonian tolerance for SCF               =     0.000001 eV
redata: Require (free) Energy convergence for SCF   =   F
redata: (free) Energy tolerance for SCF             =     0.000100 eV
redata: Using Saved Data (generic)                  =   F
redata: Use continuation files for DM               =   F
redata: Neglect nonoverlap interactions             =   F
redata: Method of Calculation                       = Diagonalization
redata: Electronic Temperature                      =   299.9978 K
redata: Fix the spin of the system                  =   F
redata: Dynamics option                             = Single-point calculation
mix.SCF: Pulay mixing                            = Pulay
mix.SCF:    Variant                              = stable
mix.SCF:    History steps                        = 6
mix.SCF:    Linear mixing weight                 =     0.250000
mix.SCF:    Mixing weight                        =     0.250000
mix.SCF:    SVD condition                        = 0.1000E-07
mix.SCF:    Restart steps                        = 24
mix.SCF:    Restart save steps                   = 3
mix.SCF: Spin-component mixing                   all
redata: Save all siesta data in one NC              =   F
redata: ***********************************************************************

%block SCF.Mixers
  Pulay
%endblock SCF.Mixers

%block SCF.Mixer.Pulay
  # Mixing method
  method pulay
  variant stable

  # Mixing options
  weight 0.2500
  weight.linear 0.2500
  history 6
  restart 24
  restart.save 3
%endblock SCF.Mixer.Pulay

DM_history_depth set to one: no extrapolation allowed by default for geometry relaxation
Size of DM history Fstack: 1
Total number of electrons:    50.000000
Total ionic charge:    50.000000

* ProcessorY, Blocksize:    2  24


* Orbital distribution balance (max,min):    48    24


Time-reversal symmetry not used.

siesta: k-grid: Number of k-points =     1
siesta: k-grid: Cutoff (effective) =     9.855 Ang
siesta: k-grid: Supercell and displacements
siesta: k-grid:    1   0   0      0.000
siesta: k-grid:    0   1   0      0.000
siesta: k-grid:    0   0   1      0.000

diag: Algorithm                                     = ELPA-1stage
diag: Parallel over k                               =   F
diag: Use parallel 2D distribution                  =   T
diag: Parallel block-size                           = 24
diag: Parallel distribution                         =     2 x     2
diag: Used triangular part                          = Lower
diag: Absolute tolerance                            =  0.100E-15
diag: Orthogonalization factor                      =  0.100E-05
diag: Memory factor                                 =  1.0000


ts: **************************************************************
ts: Save H and S matrices                           =    F
ts: Save DM and EDM matrices                        =    F
ts: Only save the overlap matrix S                  =    F
ts: **************************************************************

************************ Begin: TS CHECKS AND WARNINGS ************************
************************ End: TS CHECKS AND WARNINGS **************************


                     ====================================
                        Single-point calculation
                     ====================================

outcoor: Atomic coordinates (Ang):                          
    2.46315852   -5.19921296    0.00000000   1       1  H
    1.53554010   -4.69174449    0.00000000   2       2  N
   -0.05609030   -5.52408710    0.00000000   3       3  Si
    0.00000410   -7.01923201    0.00000000   1       4  H
   -1.49611119   -4.60498625    0.00000000   2       5  N
   -0.94359104   -2.88324896   -0.00000001   3       6  Si
   -1.28979062   -0.69238461    0.00000001   3       7  Si
   -2.82615281    0.16010171    0.00000000   2       8  N
   -2.87378880    1.21247611    0.00000000   1       9  H
   -3.75689478   -0.33235037    0.00000000   1      10  H
    0.09887265    0.34342352    0.00000000   2      11  N
    1.75278495   -0.11954481   -0.00000001   3      12  Si
    2.70878199    1.03908226    0.00000000   1      13  H
    2.52893094   -1.67740697    0.00000000   2      14  N
    1.27270225   -2.87710973    0.00000000   3      15  Si

outcell: Unit cell vectors (Ang):
       29.558266    0.000000    0.000000
        0.000000   33.276194    0.000000
        0.000000    0.000000   19.709366

outcell: Cell vector modules (Ang)   :   29.558266   33.276194   19.709366
outcell: Cell angles (23,13,12) (deg):     90.0000     90.0000     90.0000
outcell: Cell volume (Ang**3)        :  19385.8682
<dSpData1D:S at geom step 0
  <sparsity:sparsity for geom step 0
    nrows_g=155 nrows=48 sparsity=.3022 nnzs=7261, refcount: 8>
  <dData1D:(new from dSpData1D) n=7261, refcount: 1>
refcount: 1>
new_DM -- step:     1
Initializing Density Matrix...
DM filled with atomic data:
<dSpData2D:DM initialized from atoms
  <sparsity:sparsity for geom step 0
    nrows_g=155 nrows=48 sparsity=.3022 nnzs=7261, refcount: 9>
  <dData2D:DM n=7261 m=8, refcount: 1>
refcount: 1>
     spin moment: S , {S} =   30.00000   0.00000   0.00000  30.00000
No. of atoms with KB's overlaping orbs in proc 0. Max # of overlaps:      15     133

Initializing spin-orbit part of the Hamiltonian
  Adding spin-orbit effects for H 
  Adding spin-orbit effects for N 
  Adding spin-orbit effects for Si


New grid distribution:   1
           1       1:  180    1:   96    1:   60
           2       1:  180    1:   96   61:  120
           3       1:  180   97:  192    1:   60
           4       1:  180   97:  192   61:  120

InitMesh: MESH =   360 x   384 x   240 =    33177600
InitMesh: (bp) =   180 x   192 x   120 =     4147200
InitMesh: Mesh cutoff (required, used) =   340.000   368.042 Ry
ExtMesh (bp) on 0 =   292 x   200 x   172 =    10044800
New grid distribution:   2
           1      28:  180    1:  171    1:  120
           2       1:   27    1:  171    1:  120
           3      23:  180  172:  192    1:  120
           4       1:   22  172:  192    1:  120
New grid distribution:   3
           1      68:  180    1:  157    1:  120
           2       1:   67    1:  157    1:  120
           3      37:  180  158:  192    1:  120
           4       1:   36  158:  192    1:  120
Setting up quadratic distribution...
ExtMesh (bp) on 0 =   265 x   275 x   232 =    16907000
PhiOnMesh: Number of (b)points on node 0 =              3139560
PhiOnMesh: nlist on node 0 =              1710359

stepf: Fermi-Dirac step function

siesta: Program's energy decomposition (eV):
siesta: Ebs     =      -299.434343
siesta: Eions   =      1645.679058
siesta: Ena     =       215.231456
siesta: Ekin    =      1533.829679
siesta: Enl     =     -1587.791231
siesta: Eso     =        -0.001641
siesta: Edftu   =         0.000000
siesta: DEna    =        98.363552
siesta: DUscf   =        42.834437
siesta: DUext   =         0.000000
siesta: Exc     =      -591.221132
siesta: eta*DQ  =         0.000000
siesta: Emadel  =         0.000000
siesta: Emeta   =         0.000000
siesta: Emolmec =         0.000000
siesta: Ekinion =         0.000000
siesta: Eharris =     -1887.911220
siesta: Etot    =     -1934.433937
siesta: FreeEng =     -1934.433939

        iscf     Eharris(eV)        E_KS(eV)     FreeEng(eV)     dDmax    Ef(eV) dHmax(eV)
   scf:    1    -1887.911220    -1934.433937    -1934.433939  0.945655 -4.884439 19.520901
     spin moment: S , {S} =    2.00002  -0.00000   0.00000   2.00002
timer: Routine,Calls,Time,% = IterSCF        1      26.494  57.79
   scf:    2    -1968.700942    -1957.140783    -1957.147016  0.320763 -4.003941  8.442264
     spin moment: S , {S} =    0.05196  -0.00000  -0.00000   0.05196
   scf:    3    -1959.892905    -1958.849778    -1958.849779  0.057685 -3.559584  6.508647
     spin moment: S , {S} =    0.00006  -0.00000   0.00000   0.00006
   scf:    4    -1959.604994    -1959.250164    -1959.250164  0.024219 -3.388788  4.493491
     spin moment: S , {S} =    0.00004  -0.00000   0.00000   0.00004
   scf:    5    -1959.804579    -1959.525594    -1959.525594  0.029844 -3.172912  1.786367
     spin moment: S , {S} =    0.00002  -0.00000  -0.00000   0.00002
   scf:    6    -1959.738669    -1959.627343    -1959.627343  0.021174 -3.707644  0.524990
     spin moment: S , {S} =    0.00001   0.00000  -0.00000   0.00001
   scf:    7    -1959.709290    -1959.665886    -1959.665886  0.012838 -3.675735  0.209264
     spin moment: S , {S} =    0.00000   0.00000  -0.00000   0.00000
   scf:    8    -1959.685900    -1959.675474    -1959.675474  0.005934 -3.669998  0.109403
     spin moment: S , {S} =    0.00000   0.00000  -0.00000   0.00000
   scf:    9    -1959.690419    -1959.682456    -1959.682456  0.006456 -3.667691  0.078573
     spin moment: S , {S} =    0.00000   0.00000  -0.00000   0.00000
   scf:   10    -1959.695804    -1959.688194    -1959.688194  0.009070 -3.664523  0.049354
     spin moment: S , {S} =    0.00000   0.00000  -0.00000   0.00000
   scf:   11    -1959.691822    -1959.689700    -1959.689700  0.005760 -3.663211  0.025692
     spin moment: S , {S} =    0.00000   0.00000  -0.00000   0.00000
   scf:   12    -1959.690431    -1959.690014    -1959.690014  0.002924 -3.661675  0.016482
     spin moment: S , {S} =    0.00000   0.00000  -0.00000   0.00000
   scf:   13    -1959.690169    -1959.690084    -1959.690084  0.001234 -3.662018  0.009958
     spin moment: S , {S} =    0.00000   0.00000  -0.00000   0.00000
   scf:   14    -1959.690179    -1959.690126    -1959.690126  0.001075 -3.661582  0.007086
     spin moment: S , {S} =    0.00000   0.00000  -0.00000   0.00000
   scf:   15    -1959.690178    -1959.690147    -1959.690147  0.001069 -3.661312  0.002447
     spin moment: S , {S} =    0.00000   0.00000   0.00000  -0.00000
   scf:   16    -1959.690154    -1959.690150    -1959.690150  0.000309 -3.661157  0.001787
     spin moment: S , {S} =    0.00000   0.00000   0.00000  -0.00000
   scf:   17    -1959.690153    -1959.690151    -1959.690151  0.000214 -3.661102  0.000886
     spin moment: S , {S} =    0.00000  -0.00000   0.00000  -0.00000
   scf:   18    -1959.690152    -1959.690152    -1959.690152  0.000101 -3.661081  0.000643
     spin moment: S , {S} =    0.00000  -0.00000   0.00000  -0.00000
   scf:   19    -1959.690152    -1959.690152    -1959.690152  0.000048 -3.661082  0.000498
     spin moment: S , {S} =    0.00000  -0.00000   0.00000  -0.00000
   scf:   20    -1959.690152    -1959.690152    -1959.690152  0.000037 -3.661084  0.000310
     spin moment: S , {S} =    0.00000  -0.00000   0.00000  -0.00000
   scf:   21    -1959.690152    -1959.690152    -1959.690152  0.000027 -3.661075  0.000189
     spin moment: S , {S} =    0.00000  -0.00000   0.00000  -0.00000
   scf:   22    -1959.690152    -1959.690152    -1959.690152  0.000014 -3.661074  0.000133
     spin moment: S , {S} =    0.00000  -0.00000   0.00000  -0.00000
   scf:   23    -1959.690152    -1959.690152    -1959.690152  0.000013 -3.661077  0.000105
     spin moment: S , {S} =    0.00000  -0.00000   0.00000  -0.00000
   scf:   24    -1959.690152    -1959.690152    -1959.690152  0.000006 -3.661079  0.000075
     spin moment: S , {S} =    0.00000  -0.00000   0.00000  -0.00000
mix: Pulay -- resetting history
   scf:   25    -1959.690152    -1959.690152    -1959.690152  0.000006 -3.661079  0.000045
     spin moment: S , {S} =    0.00000  -0.00000   0.00000  -0.00000
   scf:   26    -1959.690152    -1959.690152    -1959.690152  0.000006 -3.661078  0.000025
     spin moment: S , {S} =    0.00000  -0.00000   0.00000  -0.00000
   scf:   27    -1959.690152    -1959.690152    -1959.690152  0.000003 -3.661077  0.000010
     spin moment: S , {S} =    0.00000  -0.00000   0.00000  -0.00000
   scf:   28    -1959.690152    -1959.690152    -1959.690152  0.000001 -3.661077  0.000006
     spin moment: S , {S} =    0.00000  -0.00000   0.00000  -0.00000
   scf:   29    -1959.690152    -1959.690152    -1959.690152  0.000001 -3.661078  0.000004
     spin moment: S , {S} =    0.00000   0.00000   0.00000  -0.00000
   scf:   30    -1959.690152    -1959.690152    -1959.690152  0.000001 -3.661078  0.000002
     spin moment: S , {S} =    0.00000   0.00000   0.00000  -0.00000
   scf:   31    -1959.690152    -1959.690152    -1959.690152  0.000000 -3.661077  0.000001
     spin moment: S , {S} =    0.00000  -0.00000   0.00000  -0.00000

SCF Convergence by DM+H criterion
max |DM_out - DM_in|         :     0.0000001831
max |H_out - H_in|      (eV) :     0.0000006929
SCF cycle converged after 31 iterations

Using DM_out to compute the final energy and forces
No. of atoms with KB's overlaping orbs in proc 0. Max # of overlaps:      15     133

siesta: E_KS(eV) =            -1959.6902

siesta: E_KS - E_eggbox =     -1959.6902
     spin moment: S , {S} =    0.00000  -0.00000   0.00000  -0.00000

siesta: Atomic forces (eV/Ang):
     1    0.002620    0.001843   -0.000000
     2   -0.001659    0.001202   -0.000000
     3   -0.000927   -0.000234    0.000000
     4   -0.002452   -0.000366    0.000000
     5   -0.000647   -0.007235    0.000000
     6   -0.000311    0.000352   -0.000000
     7    0.012024   -0.000180    0.000000
     8   -0.008749    0.002304    0.000000
     9   -0.000023    0.003967    0.000000
    10    0.002845   -0.000507   -0.000000
    11   -0.017455   -0.011684   -0.000000
    12    0.017898    0.018702    0.000000
    13   -0.007570   -0.005890   -0.000000
    14   -0.006417   -0.011765   -0.000000
    15    0.009582    0.008295    0.000000
----------------------------------------
   Tot   -0.001241   -0.001196    0.000000
----------------------------------------
   Max    0.018702
   Res    0.006444    sqrt( Sum f_i^2 / 3N )
----------------------------------------
   Max    0.018702    constrained

Stress tensor Voigt[x,y,z,yz,xz,xy] (kbar):        0.03        0.03        0.00       -0.00        0.00        0.02
(Free)E + p*V (eV/cell)    -1959.9726
Target enthalpy (eV/cell)    -1959.6902

mulliken: Atomic and Orbital Populations:

Species: H                   

Atom      Orb        Charge      Spin       Svec
----------------------------------------------------------------
    1  1 1s         0.50589   0.00000      0.000  -0.000   0.000
    1  2 1s         0.18878   0.00000     -0.000  -0.000   0.000
    1  3 2Ppy       0.02753   0.00000      0.000  -0.000  -0.000
    1  4 2Ppz       0.03910   0.00000     -0.000   0.000   0.000
    1  5 2Ppx       0.02497   0.00000      0.000   0.000   0.000
    1     Total     0.78627   0.00000      0.000   0.000   0.000

    4  1 1s         1.01874   0.00000      0.000  -0.000  -0.000
    4  2 1s         0.09589   0.00000     -0.000   0.000   0.000
    4  3 2Ppy       0.03971   0.00000     -0.000  -0.000   0.000
    4  4 2Ppz       0.01910   0.00000      0.000  -0.000   0.000
    4  5 2Ppx       0.01351   0.00000      0.000   0.000  -0.000
    4     Total     1.18695   0.00000      0.000  -0.000  -0.000

    9  1 1s         0.48539   0.00000      0.000   0.000   0.000
    9  2 1s         0.19477   0.00000     -0.000  -0.000   0.000
    9  3 2Ppy       0.02308   0.00000      0.000   0.000  -0.000
    9  4 2Ppz       0.05082   0.00000     -0.000   0.000   0.000
    9  5 2Ppx       0.01296   0.00000      0.000  -0.000   0.000
    9     Total     0.76702   0.00000      0.000   0.000   0.000

   10  1 1s         0.48308   0.00000      0.000   0.000   0.000
   10  2 1s         0.19585   0.00000     -0.000  -0.000   0.000
   10  3 2Ppy       0.00697   0.00000      0.000   0.000  -0.000
   10  4 2Ppz       0.05354   0.00000     -0.000   0.000   0.000
   10  5 2Ppx       0.02907   0.00000      0.000   0.000  -0.000
   10     Total     0.76852   0.00000      0.000   0.000   0.000

   13  1 1s         1.01727   0.00000      0.000  -0.000   0.000
   13  2 1s         0.09937   0.00000     -0.000   0.000  -0.000
   13  3 2Ppy       0.02433   0.00000      0.000  -0.000   0.000
   13  4 2Ppz       0.01474   0.00000      0.000   0.000  -0.000
   13  5 2Ppx       0.01737   0.00000      0.000  -0.000   0.000
   13     Total     1.17308   0.00000      0.000  -0.000   0.000

----------------------------------------------------------------
Total               4.68184   0.00000      0.000   0.000  -0.000


Species: N                   

Atom      Orb        Charge      Spin       Svec
----------------------------------------------------------------
    2  1 2s         1.38073   0.00000     -0.000   0.000  -0.000
    2  2 2s         0.12671   0.00000      0.000  -0.000  -0.000
    2  3 2py        1.06759   0.00000      0.000   0.000  -0.000
    2  4 2pz        1.49606   0.00000      0.000   0.000  -0.000
    2  5 2px        1.01856   0.00000     -0.000   0.000  -0.000
    2  6 2py        0.19591   0.00000     -0.000  -0.000  -0.000
    2  7 2pz        0.01377   0.00000     -0.000   0.000  -0.000
    2  8 2px        0.20993   0.00000      0.000  -0.000  -0.000
    2  9 3Pdxy      0.00663   0.00000      0.000  -0.000   0.000
    2 10 3Pdyz      0.00593   0.00000      0.000  -0.000  -0.000
    2 11 3Pdz2      0.00149   0.00000      0.000  -0.000   0.000
    2 12 3Pdxz      0.00303   0.00000      0.000  -0.000   0.000
    2 13 3Pdx2-y2   0.00296   0.00000     -0.000  -0.000  -0.000
    2     Total     5.52931   0.00000     -0.000   0.000  -0.000

    5  1 2s         1.55946   0.00000      0.000   0.000  -0.000
    5  2 2s         0.08050   0.00000     -0.000  -0.000   0.000
    5  3 2py        0.90267   0.00000      0.000  -0.000  -0.000
    5  4 2pz        1.22478   0.00000     -0.000   0.000  -0.000
    5  5 2px        1.13873   0.00000     -0.000  -0.000  -0.000
    5  6 2py        0.23009   0.00000     -0.000   0.000   0.000
    5  7 2pz        0.05519   0.00000      0.000  -0.000   0.000
    5  8 2px        0.14754   0.00000     -0.000   0.000   0.000
    5  9 3Pdxy      0.00856   0.00000      0.000  -0.000   0.000
    5 10 3Pdyz      0.00684   0.00000      0.000  -0.000   0.000
    5 11 3Pdz2      0.00191   0.00000     -0.000  -0.000   0.000
    5 12 3Pdxz      0.01132   0.00000     -0.000   0.000   0.000
    5 13 3Pdx2-y2   0.00925   0.00000      0.000   0.000  -0.000
    5     Total     5.37682   0.00000     -0.000   0.000  -0.000

    8  1 2s         1.28473   0.00000      0.000  -0.000   0.000
    8  2 2s         0.17128   0.00000     -0.000   0.000  -0.000
    8  3 2py        1.05743   0.00000     -0.000  -0.000  -0.000
    8  4 2pz        1.57509   0.00000      0.000  -0.000  -0.000
    8  5 2px        1.00470   0.00000     -0.000  -0.000  -0.000
    8  6 2py        0.19564   0.00000      0.000   0.000  -0.000
    8  7 2pz        0.02726   0.00000     -0.000   0.000  -0.000
    8  8 2px        0.22875   0.00000      0.000   0.000  -0.000
    8  9 3Pdxy      0.00269   0.00000     -0.000   0.000  -0.000
    8 10 3Pdyz      0.00082   0.00000      0.000  -0.000  -0.000
    8 11 3Pdz2      0.00275   0.00000     -0.000   0.000  -0.000
    8 12 3Pdxz      0.00244   0.00000      0.000   0.000  -0.000
    8 13 3Pdx2-y2   0.00444   0.00000      0.000   0.000  -0.000
    8     Total     5.55802   0.00000     -0.000  -0.000  -0.000

   11  1 2s         1.45714   0.00000      0.000   0.000   0.000
   11  2 2s         0.11452   0.00000     -0.000  -0.000  -0.000
   11  3 2py        1.22646   0.00000      0.000   0.000  -0.000
   11  4 2pz        1.28716   0.00000     -0.000   0.000   0.000
   11  5 2px        0.79864   0.00000     -0.000  -0.000   0.000
   11  6 2py        0.11136   0.00000     -0.000   0.000  -0.000
   11  7 2pz        0.04628   0.00000      0.000  -0.000  -0.000
   11  8 2px        0.31787   0.00000      0.000   0.000  -0.000
   11  9 3Pdxy      0.00731   0.00000      0.000  -0.000   0.000
   11 10 3Pdyz      0.00602   0.00000      0.000  -0.000  -0.000
   11 11 3Pdz2      0.00054   0.00000      0.000   0.000  -0.000
   11 12 3Pdxz      0.00503   0.00000     -0.000   0.000  -0.000
   11 13 3Pdx2-y2   0.00523   0.00000     -0.000  -0.000   0.000
   11     Total     5.38357   0.00000      0.000   0.000   0.000

   14  1 2s         1.50688   0.00000      0.000  -0.000   0.000
   14  2 2s         0.10226   0.00000     -0.000   0.000  -0.000
   14  3 2py        0.84380   0.00000      0.000   0.000   0.000
   14  4 2pz        1.23532   0.00000      0.000  -0.000   0.000
   14  5 2px        1.17736   0.00000      0.000  -0.000   0.000
   14  6 2py        0.27781   0.00000     -0.000  -0.000  -0.000
   14  7 2pz        0.05469   0.00000     -0.000   0.000  -0.000
   14  8 2px        0.13243   0.00000     -0.000   0.000  -0.000
   14  9 3Pdxy      0.00951   0.00000      0.000  -0.000   0.000
   14 10 3Pdyz      0.00496   0.00000      0.000   0.000  -0.000
   14 11 3Pdz2      0.00147   0.00000      0.000   0.000  -0.000
   14 12 3Pdxz      0.01067   0.00000      0.000   0.000  -0.000
   14 13 3Pdx2-y2   0.00793   0.00000     -0.000   0.000   0.000
   14     Total     5.36508   0.00000      0.000  -0.000   0.000

----------------------------------------------------------------
Total              31.89464   0.00000      0.000  -0.000   0.000


Species: Si                  

Atom      Orb        Charge      Spin       Svec
----------------------------------------------------------------
    3  1 3s         0.55232   0.00000      0.000   0.000   0.000
    3  2 3s         0.38858   0.00000     -0.000  -0.000   0.000
    3  3 3py        0.07496   0.00000     -0.000   0.000   0.000
    3  4 3pz        0.51956   0.00000      0.000  -0.000   0.000
    3  5 3px        0.36602   0.00000     -0.000   0.000   0.000
    3  6 3py        0.50575   0.00000     -0.000  -0.000  -0.000
    3  7 3pz        0.17874   0.00000     -0.000   0.000   0.000
    3  8 3px        0.23791   0.00000      0.000  -0.000   0.000
    3  9 3Pdxy      0.10785   0.00000      0.000  -0.000   0.000
    3 10 3Pdyz      0.05084   0.00000      0.000  -0.000   0.000
    3 11 3Pdz2      0.00988   0.00000     -0.000  -0.000  -0.000
    3 12 3Pdxz      0.13151   0.00000     -0.000   0.000   0.000
    3 13 3Pdx2-y2   0.32258   0.00000      0.000  -0.000   0.000
    3     Total     3.44650   0.00000      0.000  -0.000   0.000

    6  1 3s         0.66150   0.00000      0.000  -0.000   0.000
    6  2 3s         0.37051   0.00000     -0.000   0.000   0.000
    6  3 3py        0.13159   0.00000     -0.000  -0.000   0.000
    6  4 3pz        0.69263   0.00000      0.000   0.000   0.000
    6  5 3px        0.49029   0.00000     -0.000  -0.000   0.000
    6  6 3py        0.46523   0.00000     -0.000   0.000   0.000
    6  7 3pz        0.24243   0.00000     -0.000  -0.000   0.000
    6  8 3px        0.24576   0.00000      0.000   0.000   0.000
    6  9 3Pdxy      0.18574   0.00000     -0.000  -0.000   0.000
    6 10 3Pdyz      0.14961   0.00000     -0.000   0.000   0.000
    6 11 3Pdz2      0.01164   0.00000      0.000  -0.000  -0.000
    6 12 3Pdxz      0.03665   0.00000     -0.000   0.000  -0.000
    6 13 3Pdx2-y2   0.18883   0.00000     -0.000   0.000  -0.000
    6     Total     3.87240   0.00000      0.000   0.000   0.000

    7  1 3s         0.62857   0.00000     -0.000  -0.000   0.000
    7  2 3s         0.36849   0.00000      0.000   0.000  -0.000
    7  3 3py        0.37390   0.00000     -0.000   0.000  -0.000
    7  4 3pz        0.50040   0.00000     -0.000  -0.000  -0.000
    7  5 3px        0.08042   0.00000     -0.000   0.000  -0.000
    7  6 3py        0.30296   0.00000     -0.000  -0.000  -0.000
    7  7 3pz        0.20696   0.00000      0.000   0.000  -0.000
    7  8 3px        0.42007   0.00000      0.000  -0.000   0.000
    7  9 3Pdxy      0.20461   0.00000      0.000  -0.000   0.000
    7 10 3Pdyz      0.14408   0.00000     -0.000  -0.000   0.000
    7 11 3Pdz2      0.01078   0.00000      0.000  -0.000   0.000
    7 12 3Pdxz      0.14921   0.00000     -0.000  -0.000  -0.000
    7 13 3Pdx2-y2   0.24135   0.00000     -0.000  -0.000  -0.000
    7     Total     3.63183   0.00000     -0.000  -0.000  -0.000

   12  1 3s         0.52564   0.00000     -0.000   0.000  -0.000
   12  2 3s         0.40207   0.00000      0.000  -0.000  -0.000
   12  3 3py        0.23320   0.00000     -0.000  -0.000  -0.000
   12  4 3pz        0.44535   0.00000      0.000   0.000  -0.000
   12  5 3px        0.29151   0.00000     -0.000  -0.000  -0.000
   12  6 3py        0.39228   0.00000      0.000   0.000  -0.000
   12  7 3pz        0.16985   0.00000     -0.000   0.000  -0.000
   12  8 3px        0.34261   0.00000     -0.000   0.000   0.000
   12  9 3Pdxy      0.38849   0.00000      0.000   0.000  -0.000
   12 10 3Pdyz      0.08088   0.00000     -0.000  -0.000  -0.000
   12 11 3Pdz2      0.01058   0.00000      0.000   0.000  -0.000
   12 12 3Pdxz      0.09284   0.00000      0.000   0.000  -0.000
   12 13 3Pdx2-y2   0.16540   0.00000     -0.000   0.000  -0.000
   12     Total     3.54070   0.00000     -0.000   0.000  -0.000

   15  1 3s         0.65981   0.00000     -0.000   0.000  -0.000
   15  2 3s         0.36769   0.00000     -0.000  -0.000  -0.000
   15  3 3py       -0.03200   0.00000     -0.000  -0.000  -0.000
   15  4 3pz        0.50777   0.00000      0.000  -0.000  -0.000
   15  5 3px        0.38752   0.00000     -0.000   0.000  -0.000
   15  6 3py        0.47511   0.00000      0.000   0.000   0.000
   15  7 3pz        0.20068   0.00000     -0.000   0.000  -0.000
   15  8 3px        0.34026   0.00000      0.000  -0.000   0.000
   15  9 3Pdxy      0.14202   0.00000     -0.000   0.000   0.000
   15 10 3Pdyz      0.12647   0.00000     -0.000   0.000  -0.000
   15 11 3Pdz2      0.01381   0.00000      0.000   0.000  -0.000
   15 12 3Pdxz      0.12358   0.00000     -0.000   0.000  -0.000
   15 13 3Pdx2-y2   0.30122   0.00000     -0.000   0.000  -0.000
   15     Total     3.61393   0.00000     -0.000   0.000  -0.000

----------------------------------------------------------------
Total              50.00000   0.00000     -0.000   0.000  -0.000


siesta: Eigenvalues (eV):
ik =     1
  -21.2038  -21.2038  -21.0801  -21.0801  -19.6850  -19.6850  -19.4303  -19.4303  -18.8950  -18.8950
  -13.8560  -13.8560  -13.0886  -13.0886  -12.7402  -12.7402  -12.3263  -12.3263  -11.8228  -11.8228
  -11.1775  -11.1775  -10.4161  -10.4161   -9.3817   -9.3817   -9.0417   -9.0417   -8.4471   -8.4471
   -8.3400   -8.3400   -8.1666   -8.1666   -7.6115   -7.6115   -7.5729   -7.5729   -7.0181   -7.0181
   -6.6015   -6.6015   -6.3508   -6.3508   -6.0229   -6.0229   -5.8031   -5.8031   -4.4659   -4.4659
   -2.4025   -2.4025   -2.2633   -2.2633   -1.9247   -1.9247   -1.8236   -1.8236   -1.5770   -1.5770
   -0.8530   -0.8530   -0.4627   -0.4627   -0.4212   -0.4212    0.3216    0.3216    0.3994    0.3994
    1.0875    1.0875    1.0984    1.0984    1.7007    1.7007    1.9557    1.9557    2.2917    2.2917
    2.6092    2.6092    2.6783    2.6783    2.8681    2.8681    2.9285    2.9285    3.5930    3.5930
    3.9103    3.9103    4.1209    4.1209    4.4678    4.4678    4.4859    4.4859    4.8845    4.8845
    5.0272    5.0272    5.6418    5.6418    5.7064    5.7064    5.9065    5.9065    6.0843    6.0843
    6.3989    6.3989    6.9159    6.9159    7.0067    7.0067    7.3157    7.3157    7.5199    7.5199
    7.7592    7.7592    8.1008    8.1008    8.1219    8.1219    8.6997    8.6997    8.7326    8.7326
    9.1562    9.1562    9.4649    9.4649    9.6837    9.6837    9.6969    9.6969   10.2258   10.2258
   10.6903   10.6903   11.1764   11.1764   11.3602   11.3602   11.5236   11.5236   12.1952   12.1952
   12.6047   12.6047   12.8497   12.8497   13.0871   13.0871   13.7217   13.7217   14.3293   14.3293
   14.5534   14.5534   14.9345   14.9345   16.2156   16.2156   16.6333   16.6333   17.1218   17.1218
   17.7331   17.7331   18.3804   18.3804   18.6006   18.6006   18.6200   18.6200   20.0928   20.0928
   20.8791   20.8791   21.0247   21.0247   22.0509   22.0509   22.6990   22.6990   22.8942   22.8942
   24.4727   24.4727   25.4296   25.4296   25.9383   25.9383   26.4474   26.4474   28.3008   28.3008
   29.6654   29.6654   30.3734   30.3734   30.6491   30.6491   30.7106   30.7106   31.1253   31.1253
   31.4607   31.4607   32.1483   32.1483   32.1689   32.1689   33.4405   33.4405   34.6958   34.6958
   35.9376   35.9376   37.0620   37.0620   37.3880   37.3880   37.4342   37.4342   38.3047   38.3047
   40.2583   40.2583   40.5674   40.5674   41.2121   41.2121   41.4406   41.4406   41.5291   41.5291
   43.0806   43.0806   43.7212   43.7212   44.3069   44.3069   44.5515   44.5515   45.0418   45.0418
   45.1135   45.1135   46.2504   46.2504   46.4285   46.4285   47.0000   47.0000   48.6479   48.6479
   50.0965   50.0965   50.4235   50.4235   51.6907   51.6907   53.8329   53.8329   54.7933   54.7933
   56.0949   56.0949   56.6755   56.6755   57.3750   57.3750   59.5135   59.5135   60.0554   60.0554
   61.0043   61.0043   61.4197   61.4197   61.9583   61.9583   65.4608   65.4608   66.9508   66.9508
   68.6284   68.6284   71.2669   71.2669   78.4811   78.4811   92.7852   92.7852   95.3941   95.3941
  100.2712  100.2712  102.8079  102.8079  113.1170  113.1170  122.9049  122.9049  140.1577  140.1577
siesta: Fermi energy =      -3.661077 eV

siesta: Program's energy decomposition (eV):
siesta: Ebs     =      -561.091394
siesta: Eions   =      1645.679058
siesta: Ena     =       215.231456
siesta: Ekin    =      1308.419936
siesta: Enl     =     -1325.072905
siesta: Eso     =        -0.002265
siesta: Edftu   =         0.000000
siesta: DEna    =        29.131135
siesta: DUscf   =         7.191166
siesta: DUext   =         0.000000
siesta: Exc     =      -548.909618
siesta: eta*DQ  =         0.000000
siesta: Emadel  =         0.000000
siesta: Emeta   =         0.000000
siesta: Emolmec =         0.000000
siesta: Ekinion =         0.000000
siesta: Eharris =     -1959.690152
siesta: Etot    =     -1959.690152
siesta: FreeEng =     -1959.690152

siesta: Final energy (eV):
siesta:  Band Struct. =    -561.091394
siesta:       Kinetic =    1308.419936
siesta:       Hartree =    4967.890877
siesta:       Edftu   =       0.000000
siesta:       Eso     =      -0.002265
siesta:    Ext. field =       0.000000
siesta:   Exch.-corr. =    -548.909618
siesta:  Ion-electron =  -11092.664362
siesta:       Ion-ion =    3405.575279
siesta:       Ekinion =       0.000000
siesta:         Total =   -1959.690152
siesta:         Fermi =      -3.661077

siesta: Atomic forces (eV/Ang):
siesta:      1    0.002620    0.001843   -0.000000
siesta:      2   -0.001659    0.001202   -0.000000
siesta:      3   -0.000927   -0.000234    0.000000
siesta:      4   -0.002452   -0.000366    0.000000
siesta:      5   -0.000647   -0.007235    0.000000
siesta:      6   -0.000311    0.000352   -0.000000
siesta:      7    0.012024   -0.000180    0.000000
siesta:      8   -0.008749    0.002304    0.000000
siesta:      9   -0.000023    0.003967    0.000000
siesta:     10    0.002845   -0.000507   -0.000000
siesta:     11   -0.017455   -0.011684   -0.000000
siesta:     12    0.017898    0.018702    0.000000
siesta:     13   -0.007570   -0.005890   -0.000000
siesta:     14   -0.006417   -0.011765   -0.000000
siesta:     15    0.009582    0.008295    0.000000
siesta: ----------------------------------------
siesta:    Tot   -0.001241   -0.001196    0.000000

siesta: Stress tensor (static) (eV/Ang**3):
siesta:     0.000022    0.000009    0.000000
siesta:     0.000009    0.000020    0.000000
siesta:     0.000000   -0.000000    0.000002

siesta: Cell volume =      19385.868168 Ang**3

siesta: Pressure (static):
siesta:                Solid            Molecule  Units
siesta:          -0.00000016         -0.00000016  Ry/Bohr**3
siesta:          -0.00001457         -0.00001485  eV/Ang**3
siesta:          -0.02334155         -0.02378620  kBar
(Free)E+ p_basis*V_orbitals  =       -1949.008282
(Free)Eharris+ p_basis*V_orbitals  =       -1949.008282
     spin moment: S , {S} =    0.00000  -0.00000   0.00000  -0.00000

siesta: Electric dipole (a.u.)  =   -0.358133   -0.585395   -0.000000
siesta: Electric dipole (Debye) =   -0.910283   -1.487928   -0.000000

cite: Please see "Adenine.bib" for an exhaustive BiBTeX file.
cite: Please clearly indicate Siesta version in published work: v4.1.5-1-g384057250
cite: This calculation has made use of the following articles
cite: which are encouraged to be cited in a published work.
        Primary SIESTA paper
          DOI: www.doi.org/10.1088/0953-8984/14/11/302
        Spin-orbit coupling (on-site approximation)
          DOI: www.doi.org/10.1088/0953-8984/19/19/489001


WARNING: alloc-realloc-dealloc name mismatch
         Name: atomlist isa
         Size:               -60. Bytes
         Node:     0
         Subsequent mismatches will not be reported
>> End of run:   1-JUN-2023  23:30:26
Job completed
