Siesta Version  : v4.1.5-1-g384057250
Architecture    : gcc
Compiler version: GNU Fortran (Debian 12.2.0-14) 12.2.0
Compiler flags  : mpifort -O2 -fPIC -ftree-vectorize -fallow-argument-mismatch
PP flags        : -DFC_HAVE_ABORT -DMPI -DSIESTA__FLOOK -DSIESTA__METIS -DSIESTA__MUMPS -DCDF -DNCDF -DNCDF_4 -DNCDF_PARALLEL -DSIESTA__MRRR -DSIESTA__ELPA
Libraries       : libncdf.a libfdict.a  -lflookall -ldl -lnetcdff -lnetcdf -lz -lscalapack-openmpi -lopenblas -lmetis -lzmumps -lcmumps -ldmumps -lmumps_common -lpord -lsmumps -lesmumps -lscotch -lscotcherr -fopenmp -lelpa
PARALLEL version
NetCDF support
NetCDF-4 support
NetCDF-4 MPI-IO support
METIS ordering support
Lua support

* Running on 32 nodes in parallel
>> Start of run:  16-OCT-2023  20:30:14

                           ***********************       
                           *  WELCOME TO SIESTA  *       
                           ***********************       

reinit: Reading from standard input
reinit: Dumped input in INPUT_TMP.28242
************************** Dump of input data file ****************************
# mpirun -np 4 siesta-4.1.5 < AT.fdf > AT.out &
SystemLabel      AT
NumberOfAtoms    30
NumberOfSpecies  4
%block ChemicalSpeciesLabel
    1    1  H
    2    7  N
    3   14  Si
    4    8  O
%endblock ChemicalSpeciesLabel
############################################
# This overrides Defaults.fdf configuration
############################################
MD.TypeOfRun                Verlet # CG, Verlet
MD.Steps                    0
MaxSCFIterations            300
AtomicCoordinatesFormat NotScaledCartesianAng
%block AtomicCoordinatesAndAtomicSpecies
    2.28494382 -5.19529124 0.0  1  1  H
    1.37433094 -4.6647107 0.0  2  2  N
    -0.21830245 -5.49458215 0.0  3  3  Si
    -0.17484108 -6.98516892 0.0  1  4  H
    -1.66171682 -4.58600741 0.0  2  5  N
    -1.09026419 -2.87456374 0.0  3  6  Si
    -1.53038332 -0.70765692 0.0  3  7  Si
    -3.14415959 -0.09186471 0.0  2  8  N
    -3.40268075 0.95848335 0.0  1  9  H
    -3.95073599 -0.76720972 0.0  1  10  H
    -0.17836637 0.41349951 0.0  2  11  N
    1.49520211 -0.0473996 0.0  3  12  Si
    2.45603905 1.10727302 0.0  1  13  H
    2.30451743 -1.58574382 0.0  2  14  N
    1.10725559 -2.84610319 0.0  3  15  Si
    0.4543466751862524 8.378061431354931 0.0  1  16  H
    -0.35436400481374764 7.68585555135493 0.0  2  17  N
    -2.0109538448137476 8.398975651354931 0.0  3  18  Si
    -1.9140886748137476 9.90970086135493 0.0  1  19  H
    -3.7371101948137473 7.0559275213549295 0.0  3  20  Si
    -6.091564444813748 7.04794059135493 0.0  3  21  Si
    -6.653982564813748 7.7824302413549304 -1.20183078  1  22  H
    -6.391378194813748 5.5688494613549295 -0.08618332  1  23  H
    -6.654095024813747 7.61277305135493 1.28814761  1  24  H
    -2.8077195548137475 4.985356291354931 0.0  3  25  Si
    -3.7571879148137475 3.69682016135493 0.0  4  26  O
    -1.0167746848137476 4.81162082135493 0.0  2  27  N
    -0.6857833248137476 3.7792638413549304 0.0  1  28  H
    0.29168353518625234 6.00616724135493 0.0  3  29  Si
    1.8576204651862522 5.738920391354931 0.0  4  30  O
%endblock AtomicCoordinatesAndAtomicSpecies
%include ../../../../Defaults.fdf
************************** End of input data file *****************************

reinit: -----------------------------------------------------------------------
reinit: System Name: 
reinit: -----------------------------------------------------------------------
reinit: System Label: AT
reinit: -----------------------------------------------------------------------

initatom: Reading input for the pseudopotentials and atomic orbitals ----------
Species number:   1 Atomic number:    1 Label: H
Species number:   2 Atomic number:    7 Label: N
Species number:   3 Atomic number:   14 Label: Si
Species number:   4 Atomic number:    8 Label: O

Ground state valence configuration:   1s01
Reading pseudopotential information in formatted form from H.psf

Pseudopotential generated from a relativistic atomic calculation

Valence configuration for pseudopotential generation:
1s( 1.00) rc: 0.01
2p( 0.00) rc: 0.60
3d( 0.00) rc: 1.99
4f( 0.00) rc: 2.49
Ground state valence configuration:   2s02  2p03
Reading pseudopotential information in formatted form from N.psf

Pseudopotential generated from a relativistic atomic calculation

Valence configuration for pseudopotential generation:
2s( 2.00) rc: 0.94
2p( 3.00) rc: 0.59
3d( 0.00) rc: 3.46
4f( 0.00) rc: 2.47
Ground state valence configuration:   3s02  3p02
Reading pseudopotential information in formatted form from Si.psf

Pseudopotential generated from a relativistic atomic calculation

Valence configuration for pseudopotential generation:
3s( 2.00) rc: 1.67
3p( 2.00) rc: 2.04
3d( 0.00) rc: 2.89
4f( 0.00) rc: 2.49
Ground state valence configuration:   2s02  2p04
Reading pseudopotential information in formatted form from O.psf

Pseudopotential generated from a relativistic atomic calculation

Valence configuration for pseudopotential generation:
2s( 2.00) rc: 0.45
2p( 4.00) rc: 0.92
3d( 0.00) rc: 2.24
4f( 0.00) rc: 0.25
For H, standard SIESTA heuristics set lmxkb to 2
 (one more than the basis l, including polarization orbitals).
Use PS.lmax or PS.KBprojectors blocks to override.
For N, standard SIESTA heuristics set lmxkb to 3
 (one more than the basis l, including polarization orbitals).
Use PS.lmax or PS.KBprojectors blocks to override.
For Si, standard SIESTA heuristics set lmxkb to 3
 (one more than the basis l, including polarization orbitals).
Use PS.lmax or PS.KBprojectors blocks to override.
For O, standard SIESTA heuristics set lmxkb to 3
 (one more than the basis l, including polarization orbitals).
Use PS.lmax or PS.KBprojectors blocks to override.

<basis_specs>
===============================================================================
H                    Z=   1    Mass=  1.0100        Charge= 0.17977+309
Lmxo=0 Lmxkb= 2    BasisType=split      Semic=F
L=0  Nsemic=0  Cnfigmx=1
          i=1  nzeta=2  polorb=1  (1s)
            splnorm:   0.62000    
               vcte:    0.0000    
               rinn:    0.0000    
               qcoe:    0.0000    
               qyuk:    0.0000    
               qwid:   0.10000E-01
                rcs:    0.0000      0.0000    
            lambdas:    1.0000      1.0000    
-------------------------------------------------------------------------------
L=0  Nkbl=1  erefs: 0.17977+309
L=1  Nkbl=1  erefs: 0.17977+309
L=2  Nkbl=1  erefs: 0.17977+309
===============================================================================
</basis_specs>

atom: Called for H                     (Z =   1)

read_vps: Pseudopotential generation method:
read_vps: ATM4.2.7  Troullier-Martins                       
Valence charge for ps generation:    1.00000

xc_check: Exchange-correlation functional:
xc_check: GGA Perdew, Burke & Ernzerhof 1996
V l=0 = -2*Zval/r beyond r=  0.0098
V l=1 = -2*Zval/r beyond r=  0.5817
V l=2 = -2*Zval/r beyond r=  1.9372
All V_l potentials equal beyond r=  1.9372
This should be close to max(r_c) in ps generation
All pots = -2*Zval/r beyond r=  1.9372

VLOCAL1: 99.0% of the norm of Vloc inside     11.567 Ry
VLOCAL1: 99.9% of the norm of Vloc inside     26.362 Ry
atom: Maximum radius for 4*pi*r*r*local-pseudopot. charge    2.25106
atom: Maximum radius for r*vlocal+2*Zval:    1.91306
GHOST: No ghost state for L =  0
GHOST: No ghost state for L =  1
GHOST: No ghost state for L =  2

KBgen: Kleinman-Bylander projectors: 
   l= 0   rc=  2.036604   el= -0.477180   Ekb= -6.081590   kbcos= -0.277285
   l= 1   rc=  2.195416   el=  0.001076   Ekb= -0.926943   kbcos= -0.034643
   l= 2   rc=  2.251056   el=  0.002010   Ekb= -0.130941   kbcos= -0.009788

KBgen: Total number of Kleinman-Bylander projectors:    9
atom: -------------------------------------------------------------------------

atom: SANKEY-TYPE ORBITALS:
atom: Selected multiple-zeta basis: split     

SPLIT: Orbitals with angular momentum L= 0

SPLIT: Basis orbitals for state 1s

SPLIT: PAO cut-off radius determined from an
SPLIT: energy shift=  0.002000 Ry

   izeta = 1
                 lambda =    1.000000
                     rc =    6.518340
                 energy =   -0.475305
                kinetic =    0.912139
    potential(screened) =   -1.387444
       potential(ionic) =   -1.907295

   izeta = 2
                 rmatch =    2.141150
              splitnorm =    0.620000
                 energy =    0.566467
                kinetic =    3.772856
    potential(screened) =   -3.206389
       potential(ionic) =   -3.759093

POLgen: Perturbative polarization orbital with L=  1

POLgen: Polarization orbital for state 1s

   izeta = 1
                     rc =    6.518340
                 energy =    0.533861
                kinetic =    1.121086
    potential(screened) =   -0.587225
       potential(ionic) =   -1.053027
atom: Total number of Sankey-type orbitals:  5

atm_pop: Valence configuration (for local Pseudopot. screening):
 1s( 1.00)                                                            
Vna: chval, zval:    1.00000   1.00000

Vna:  Cut-off radius for the neutral-atom potential:   6.518340

atom: _________________________________________________________________________

<basis_specs>
===============================================================================
N                    Z=   7    Mass=  14.010        Charge= 0.17977+309
Lmxo=1 Lmxkb= 3    BasisType=split      Semic=F
L=0  Nsemic=0  Cnfigmx=2
          i=1  nzeta=2  polorb=0  (2s)
            splnorm:   0.28000    
               vcte:    0.0000    
               rinn:    0.0000    
               qcoe:    0.0000    
               qyuk:    0.0000    
               qwid:   0.10000E-01
                rcs:    0.0000      0.0000    
            lambdas:    1.0000      1.0000    
L=1  Nsemic=0  Cnfigmx=2
          i=1  nzeta=2  polorb=1  (2p)
            splnorm:   0.28000    
               vcte:    0.0000    
               rinn:    0.0000    
               qcoe:    0.0000    
               qyuk:    0.0000    
               qwid:   0.10000E-01
                rcs:    0.0000      0.0000    
            lambdas:    1.0000      1.0000    
-------------------------------------------------------------------------------
L=0  Nkbl=1  erefs: 0.17977+309
L=1  Nkbl=1  erefs: 0.17977+309
L=2  Nkbl=1  erefs: 0.17977+309
L=3  Nkbl=1  erefs: 0.17977+309
===============================================================================
</basis_specs>

atom: Called for N                     (Z =   7)

read_vps: Pseudopotential generation method:
read_vps: ATM4.2.7  Troullier-Martins                       
Valence charge for ps generation:    5.00000

xc_check: Exchange-correlation functional:
xc_check: GGA Perdew, Burke & Ernzerhof 1996
V l=0 = -2*Zval/r beyond r=  1.2889
V l=1 = -2*Zval/r beyond r=  1.2889
V l=2 = -2*Zval/r beyond r=  3.4178
V l=3 = -2*Zval/r beyond r=  2.4084
All V_l potentials equal beyond r=  3.3753
This should be close to max(r_c) in ps generation
All pots = -2*Zval/r beyond r=  3.4178

VLOCAL1: 99.0% of the norm of Vloc inside      3.810 Ry
VLOCAL1: 99.9% of the norm of Vloc inside      8.683 Ry
atom: Maximum radius for 4*pi*r*r*local-pseudopot. charge    4.02088
atom: Maximum radius for r*vlocal+2*Zval:    3.54838
GHOST: No ghost state for L =  0
GHOST: No ghost state for L =  1
GHOST: No ghost state for L =  2
GHOST: No ghost state for L =  3

KBgen: Kleinman-Bylander projectors: 
   l= 0   rc=  3.417763   el= -1.365098   Ekb= -4.433130   kbcos= -0.707855
   l= 1   rc=  3.375302   el= -0.521201   Ekb=-13.264039   kbcos= -0.535594
   l= 2   rc=  3.872880   el=  0.001991   Ekb= -0.641094   kbcos= -0.062456
   l= 3   rc=  3.970931   el=  0.003093   Ekb= -0.474517   kbcos= -0.018236

KBgen: Total number of Kleinman-Bylander projectors:   16
atom: -------------------------------------------------------------------------

atom: SANKEY-TYPE ORBITALS:
atom: Selected multiple-zeta basis: split     

SPLIT: Orbitals with angular momentum L= 0

SPLIT: Basis orbitals for state 2s

SPLIT: PAO cut-off radius determined from an
SPLIT: energy shift=  0.002000 Ry

   izeta = 1
                 lambda =    1.000000
                     rc =    4.730425
                 energy =   -1.363399
                kinetic =    1.245246
    potential(screened) =   -2.608645
       potential(ionic) =   -8.121105

   izeta = 2
                 rmatch =    2.531849
              splitnorm =    0.280000
                 energy =   -0.959908
                kinetic =    2.409435
    potential(screened) =   -3.369343
       potential(ionic) =   -9.427975

SPLIT: Orbitals with angular momentum L= 1

SPLIT: Basis orbitals for state 2p

SPLIT: PAO cut-off radius determined from an
SPLIT: energy shift=  0.002000 Ry

   izeta = 1
                 lambda =    1.000000
                     rc =    5.924108
                 energy =   -0.519262
                kinetic =    3.672940
    potential(screened) =   -4.192202
       potential(ionic) =   -9.518354

   izeta = 2
                 rmatch =    2.531849
              splitnorm =    0.280000
                 energy =   -0.104258
                kinetic =    6.807538
    potential(screened) =   -6.911796
       potential(ionic) =  -13.149920

POLgen: Perturbative polarization orbital with L=  2

POLgen: Polarization orbital for state 2p

   izeta = 1
                     rc =    5.924108
                 energy =    1.427508
                kinetic =    2.872379
    potential(screened) =   -1.444871
       potential(ionic) =   -5.563644
atom: Total number of Sankey-type orbitals: 13

atm_pop: Valence configuration (for local Pseudopot. screening):
 2s( 2.00)                                                            
 2p( 3.00)                                                            
Vna: chval, zval:    5.00000   5.00000

Vna:  Cut-off radius for the neutral-atom potential:   5.924108

atom: _________________________________________________________________________

<basis_specs>
===============================================================================
Si                   Z=  14    Mass=  28.090        Charge= 0.17977+309
Lmxo=1 Lmxkb= 3    BasisType=split      Semic=F
L=0  Nsemic=0  Cnfigmx=3
          i=1  nzeta=2  polorb=0  (3s)
            splnorm:   0.28000    
               vcte:    0.0000    
               rinn:    0.0000    
               qcoe:    0.0000    
               qyuk:    0.0000    
               qwid:   0.10000E-01
                rcs:    0.0000      0.0000    
            lambdas:    1.0000      1.0000    
L=1  Nsemic=0  Cnfigmx=3
          i=1  nzeta=2  polorb=1  (3p)
            splnorm:   0.28000    
               vcte:    0.0000    
               rinn:    0.0000    
               qcoe:    0.0000    
               qyuk:    0.0000    
               qwid:   0.10000E-01
                rcs:    0.0000      0.0000    
            lambdas:    1.0000      1.0000    
-------------------------------------------------------------------------------
L=0  Nkbl=1  erefs: 0.17977+309
L=1  Nkbl=1  erefs: 0.17977+309
L=2  Nkbl=1  erefs: 0.17977+309
L=3  Nkbl=1  erefs: 0.17977+309
===============================================================================
</basis_specs>

atom: Called for Si                    (Z =  14)

read_vps: Pseudopotential generation method:
read_vps: ATM4.2.7  Troullier-Martins                       
Valence charge for ps generation:    4.00000

xc_check: Exchange-correlation functional:
xc_check: GGA Perdew, Burke & Ernzerhof 1996
V l=0 = -2*Zval/r beyond r=  2.7826
V l=1 = -2*Zval/r beyond r=  2.7826
V l=2 = -2*Zval/r beyond r=  2.9253
V l=3 = -2*Zval/r beyond r=  2.7826
All V_l potentials equal beyond r=  2.8530
This should be close to max(r_c) in ps generation
All pots = -2*Zval/r beyond r=  2.9253

VLOCAL1: 99.0% of the norm of Vloc inside      5.333 Ry
VLOCAL1: 99.9% of the norm of Vloc inside     12.154 Ry
atom: Maximum radius for 4*pi*r*r*local-pseudopot. charge    3.39869
atom: Maximum radius for r*vlocal+2*Zval:    2.96205
GHOST: No ghost state for L =  0
GHOST: No ghost state for L =  1
GHOST: No ghost state for L =  2
GHOST: No ghost state for L =  3

KBgen: Kleinman-Bylander projectors: 
   l= 0   rc=  3.075247   el= -0.794092   Ekb=  5.879390   kbcos=  0.167461
   l= 1   rc=  3.153101   el= -0.300068   Ekb=  2.642817   kbcos=  0.058301
   l= 2   rc=  3.273594   el=  0.001958   Ekb= -1.185135   kbcos= -0.104411
   l= 3   rc=  3.232927   el=  0.003046   Ekb= -0.497174   kbcos= -0.015889

KBgen: Total number of Kleinman-Bylander projectors:   16
atom: -------------------------------------------------------------------------

atom: SANKEY-TYPE ORBITALS:
atom: Selected multiple-zeta basis: split     

SPLIT: Orbitals with angular momentum L= 0

SPLIT: Basis orbitals for state 3s

SPLIT: PAO cut-off radius determined from an
SPLIT: energy shift=  0.002000 Ry

   izeta = 1
                 lambda =    1.000000
                     rc =    6.429618
                 energy =   -0.792283
                kinetic =    0.525293
    potential(screened) =   -1.317576
       potential(ionic) =   -3.744923

   izeta = 2
                 rmatch =    3.998416
              splitnorm =    0.280000
                 energy =   -0.583081
                kinetic =    1.069570
    potential(screened) =   -1.652651
       potential(ionic) =   -4.235185

SPLIT: Orbitals with angular momentum L= 1

SPLIT: Basis orbitals for state 3p

SPLIT: PAO cut-off radius determined from an
SPLIT: energy shift=  0.002000 Ry

   izeta = 1
                 lambda =    1.000000
                     rc =    8.464845
                 energy =   -0.298236
                kinetic =    0.785360
    potential(screened) =   -1.083596
       potential(ionic) =   -3.273779

   izeta = 2
                 rmatch =    4.587816
              splitnorm =    0.280000
                 energy =   -0.131871
                kinetic =    1.403687
    potential(screened) =   -1.535557
       potential(ionic) =   -4.015310

POLgen: Perturbative polarization orbital with L=  2

POLgen: Polarization orbital for state 3p

   izeta = 1
                     rc =    8.464845
                 energy =    0.321949
                kinetic =    1.055677
    potential(screened) =   -0.733728
       potential(ionic) =   -2.672950
atom: Total number of Sankey-type orbitals: 13

atm_pop: Valence configuration (for local Pseudopot. screening):
 3s( 2.00)                                                            
 3p( 2.00)                                                            
Vna: chval, zval:    4.00000   4.00000

Vna:  Cut-off radius for the neutral-atom potential:   8.464845

atom: _________________________________________________________________________

<basis_specs>
===============================================================================
O                    Z=   8    Mass=  16.000        Charge= 0.17977+309
Lmxo=1 Lmxkb= 3    BasisType=split      Semic=F
L=0  Nsemic=0  Cnfigmx=2
          i=1  nzeta=2  polorb=0  (2s)
            splnorm:   0.28000    
               vcte:    0.0000    
               rinn:    0.0000    
               qcoe:    0.0000    
               qyuk:    0.0000    
               qwid:   0.10000E-01
                rcs:    0.0000      0.0000    
            lambdas:    1.0000      1.0000    
L=1  Nsemic=0  Cnfigmx=2
          i=1  nzeta=2  polorb=1  (2p)
            splnorm:   0.28000    
               vcte:    0.0000    
               rinn:    0.0000    
               qcoe:    0.0000    
               qyuk:    0.0000    
               qwid:   0.10000E-01
                rcs:    0.0000      0.0000    
            lambdas:    1.0000      1.0000    
-------------------------------------------------------------------------------
L=0  Nkbl=1  erefs: 0.17977+309
L=1  Nkbl=1  erefs: 0.17977+309
L=2  Nkbl=1  erefs: 0.17977+309
L=3  Nkbl=1  erefs: 0.17977+309
===============================================================================
</basis_specs>

atom: Called for O                     (Z =   8)

read_vps: Pseudopotential generation method:
read_vps: ATM4.2.7  Troullier-Martins                       
Valence charge for ps generation:    6.00000

xc_check: Exchange-correlation functional:
xc_check: GGA Perdew, Burke & Ernzerhof 1996
V l=0 = -2*Zval/r beyond r=  1.1000
V l=1 = -2*Zval/r beyond r=  1.1000
V l=2 = -2*Zval/r beyond r=  2.2154
V l=3 = -2*Zval/r beyond r=  1.1000
All V_l potentials equal beyond r=  2.2154
This should be close to max(r_c) in ps generation
All pots = -2*Zval/r beyond r=  2.2154

VLOCAL1: 99.0% of the norm of Vloc inside      8.845 Ry
VLOCAL1: 99.9% of the norm of Vloc inside     20.157 Ry
atom: Maximum radius for 4*pi*r*r*local-pseudopot. charge    2.67231
atom: Maximum radius for r*vlocal+2*Zval:    2.32897
GHOST: No ghost state for L =  0
GHOST: No ghost state for L =  1
GHOST: No ghost state for L =  2
GHOST: No ghost state for L =  3

KBgen: Kleinman-Bylander projectors: 
   l= 0   rc=  2.243238   el= -1.759686   Ekb=**********   kbcos= -0.171774
   l= 1   rc=  2.328968   el= -0.663873   Ekb=-14.506792   kbcos= -0.519897
   l= 2   rc=  2.573941   el=  0.002031   Ekb= -1.137373   kbcos= -0.019581
   l= 3   rc=  2.606321   el=  0.003153   Ekb= -1.013546   kbcos= -0.003122

KBgen: Total number of Kleinman-Bylander projectors:   16
atom: -------------------------------------------------------------------------

atom: SANKEY-TYPE ORBITALS:
atom: Selected multiple-zeta basis: split     

SPLIT: Orbitals with angular momentum L= 0

SPLIT: Basis orbitals for state 2s

SPLIT: PAO cut-off radius determined from an
SPLIT: energy shift=  0.002000 Ry

   izeta = 1
                 lambda =    1.000000
                     rc =    4.243912
                 energy =   -1.758270
                kinetic =    3.286084
    potential(screened) =   -5.044353
       potential(ionic) =  -12.921184

   izeta = 2
                 rmatch =    2.187845
              splitnorm =    0.280000
                 energy =   -0.885018
                kinetic =    8.134434
    potential(screened) =   -9.019452
       potential(ionic) =  -17.710645

SPLIT: Orbitals with angular momentum L= 1

SPLIT: Basis orbitals for state 2p

SPLIT: PAO cut-off radius determined from an
SPLIT: energy shift=  0.002000 Ry

   izeta = 1
                 lambda =    1.000000
                     rc =    5.314825
                 energy =   -0.661986
                kinetic =    4.917472
    potential(screened) =   -5.579458
       potential(ionic) =  -13.236259

   izeta = 2
                 rmatch =    2.160663
              splitnorm =    0.280000
                 energy =   -0.068760
                kinetic =    9.183374
    potential(screened) =   -9.252135
       potential(ionic) =  -18.274251

POLgen: Perturbative polarization orbital with L=  2

POLgen: Polarization orbital for state 2p

   izeta = 1
                     rc =    5.314825
                 energy =    1.970580
                kinetic =    3.886128
    potential(screened) =   -1.915547
       potential(ionic) =   -7.749584
atom: Total number of Sankey-type orbitals: 13

atm_pop: Valence configuration (for local Pseudopot. screening):
 2s( 2.00)                                                            
 2p( 4.00)                                                            
Vna: chval, zval:    6.00000   6.00000

Vna:  Cut-off radius for the neutral-atom potential:   5.314825

atom: _________________________________________________________________________

prinput: Basis input ----------------------------------------------------------

PAO.BasisType split     

%block ChemicalSpeciesLabel
    1    1 H                       # Species index, atomic number, species label
    2    7 N                       # Species index, atomic number, species label
    3   14 Si                      # Species index, atomic number, species label
    4    8 O                       # Species index, atomic number, species label
%endblock ChemicalSpeciesLabel

%block PAO.Basis                 # Define Basis set
H                     1                    # Species label, number of l-shells
 n=1   0   2 P   1                   # n, l, Nzeta, Polarization, NzetaPol
   6.518      2.141   
   1.000      1.000   
N                     2                    # Species label, number of l-shells
 n=2   0   2                         # n, l, Nzeta 
   4.730      2.532   
   1.000      1.000   
 n=2   1   2 P   1                   # n, l, Nzeta, Polarization, NzetaPol
   5.924      2.532   
   1.000      1.000   
Si                    2                    # Species label, number of l-shells
 n=3   0   2                         # n, l, Nzeta 
   6.430      3.998   
   1.000      1.000   
 n=3   1   2 P   1                   # n, l, Nzeta, Polarization, NzetaPol
   8.465      4.588   
   1.000      1.000   
O                     2                    # Species label, number of l-shells
 n=2   0   2                         # n, l, Nzeta 
   4.244      2.188   
   1.000      1.000   
 n=2   1   2 P   1                   # n, l, Nzeta, Polarization, NzetaPol
   5.315      2.161   
   1.000      1.000   
%endblock PAO.Basis

prinput: ----------------------------------------------------------------------

Dumping basis to NetCDF file H.ion.nc
Dumping basis to NetCDF file N.ion.nc
Dumping basis to NetCDF file Si.ion.nc
Dumping basis to NetCDF file O.ion.nc
coor:   Atomic-coordinates input format  =     Cartesian coordinates
coor:                                          (in Angstroms)

siesta: Atomic coordinates (Bohr) and species
siesta:      4.31792  -9.81768   0.00000  1        1
siesta:      2.59711  -8.81503   0.00000  2        2
siesta:     -0.41253 -10.38326   0.00000  3        3
siesta:     -0.33040 -13.20006   0.00000  1        4
siesta:     -3.14019  -8.66630   0.00000  2        5
siesta:     -2.06030  -5.43214   0.00000  3        6
siesta:     -2.89201  -1.33728   0.00000  3        7
siesta:     -5.94160  -0.17360   0.00000  2        8
siesta:     -6.43014   1.81127   0.00000  1        9
siesta:     -7.46581  -1.44982   0.00000  1       10
siesta:     -0.33706   0.78140   0.00000  2       11
siesta:      2.82552  -0.08957   0.00000  3       12
siesta:      4.64124   2.09244   0.00000  1       13
siesta:      4.35491  -2.99662   0.00000  2       14
siesta:      2.09241  -5.37836   0.00000  3       15
siesta:      0.85859  15.83225   0.00000  1       16
siesta:     -0.66965  14.52417   0.00000  2       17
siesta:     -3.80015  15.87177   0.00000  3       18
siesta:     -3.61710  18.72663   0.00000  1       19
siesta:     -7.06212  13.33378   0.00000  3       20
siesta:    -11.51139  13.31868   0.00000  3       21
siesta:    -12.57421  14.70667  -2.27113  1       22
siesta:    -12.07796  10.52360  -0.16286  1       23
siesta:    -12.57442  14.38606   2.43425  1       24
siesta:     -5.30582   9.42096   0.00000  3       25
siesta:     -7.10006   6.98598   0.00000  4       26
siesta:     -1.92143   9.09265   0.00000  2       27
siesta:     -1.29594   7.14178   0.00000  1       28
siesta:      0.55120  11.35002   0.00000  3       29
siesta:      3.51040  10.84499   0.00000  4       30

siesta: Automatic unit cell vectors (Ang):
siesta:   18.200127    0.000000    0.000000
siesta:    0.000000   26.172940    0.000000
siesta:    0.000000    0.000000   10.327559

siesta: System type = molecule  

initatomlists: Number of atoms, orbitals, and projectors:     30   302   403

siesta: ******************** Simulation parameters ****************************
siesta:
siesta: The following are some of the parameters of the simulation.
siesta: A complete list of the parameters used, including default values,
siesta: can be found in file out.fdf
siesta:
redata: Spin configuration                          = spin-orbit
redata: Number of spin components                   = 8
redata: Time-Reversal Symmetry                      = F
redata: Spin spiral                                 = F
############################################################
This spin-orbit implementation uses a local approximation.
From 4.2 and onwards the full non-local approximation is implemented
You are strongly advised to use >=4.2 versions!
############################################################
redata: Long output                                 =   F
redata: Number of Atomic Species                    =        4
redata: Charge density info will appear in .RHO file
redata: Write Mulliken Pop.                         = NO
redata: Matel table size (NRTAB)                    =     1024
redata: Mesh Cutoff                                 =   340.0000 Ry
redata: Net charge of the system                    =     0.0000 |e|
redata: Min. number of SCF Iter                     =        1
redata: Max. number of SCF Iter                     =      300
redata: SCF convergence failure will abort job
redata: SCF mix quantity                            = Hamiltonian
redata: Mix DM or H after convergence               =   F
redata: Recompute H after scf cycle                 =   F
redata: Mix DM in first SCF step                    =   T
redata: Write Pulay info on disk                    =   F
redata: New DM Occupancy tolerance                  = 0.000000000001
redata: No kicks to SCF
redata: DM Mixing Weight for Kicks                  =     0.5000
redata: Require Harris convergence for SCF          =   F
redata: Harris energy tolerance for SCF             =     0.000100 eV
redata: Require DM convergence for SCF              =   T
redata: DM tolerance for SCF                        =     0.000008
redata: Require EDM convergence for SCF             =   F
redata: EDM tolerance for SCF                       =     0.001000 eV
redata: Require H convergence for SCF               =   T
redata: Hamiltonian tolerance for SCF               =     0.000001 eV
redata: Require (free) Energy convergence for SCF   =   F
redata: (free) Energy tolerance for SCF             =     0.000100 eV
redata: Using Saved Data (generic)                  =   F
redata: Use continuation files for DM               =   T
redata: Neglect nonoverlap interactions             =   F
redata: Method of Calculation                       = Diagonalization
redata: Electronic Temperature                      =   299.9978 K
redata: Fix the spin of the system                  =   F
redata: Dynamics option                             = Verlet MD run
redata: Initial MD time step                        =        1
redata:   Final MD time step                        =        1
redata: Length of MD time step                      =     0.5000 fs
redata: Initial Temperature of MD run               =     0.0000 K
redata: Perform a MD quench                         =   F
mix.SCF: Pulay mixing                            = Pulay
mix.SCF:    Variant                              = stable
mix.SCF:    History steps                        = 6
mix.SCF:    Linear mixing weight                 =     0.250000
mix.SCF:    Mixing weight                        =     0.250000
mix.SCF:    SVD condition                        = 0.1000E-07
mix.SCF:    Restart steps                        = 24
mix.SCF:    Restart save steps                   = 3
mix.SCF: Spin-component mixing                   all
redata: Save all siesta data in one NC              =   F
redata: ***********************************************************************

%block SCF.Mixers
  Pulay
%endblock SCF.Mixers

%block SCF.Mixer.Pulay
  # Mixing method
  method pulay
  variant stable

  # Mixing options
  weight 0.2500
  weight.linear 0.2500
  history 6
  restart 24
  restart.save 3
%endblock SCF.Mixer.Pulay

Size of DM history Fstack: 3
Total number of electrons:    98.000000
Total ionic charge:    98.000000

* ProcessorY, Blocksize:    4   9


* Orbital distribution balance (max,min):    18     9


Time-reversal symmetry not used.

siesta: k-grid: Number of k-points =     1
siesta: k-grid: Cutoff (effective) =     5.164 Ang
siesta: k-grid: Supercell and displacements
siesta: k-grid:    1   0   0      0.000
siesta: k-grid:    0   1   0      0.000
siesta: k-grid:    0   0   1      0.000

diag: Algorithm                                     = ELPA-1stage
diag: Parallel over k                               =   F
diag: Use parallel 2D distribution                  =   T
diag: Parallel block-size                           = 9
diag: Parallel distribution                         =     4 x     8
diag: Used triangular part                          = Lower
diag: Absolute tolerance                            =  0.100E-15
diag: Orthogonalization factor                      =  0.100E-05
diag: Memory factor                                 =  1.0000


ts: **************************************************************
ts: Save H and S matrices                           =    F
ts: Save DM and EDM matrices                        =    F
ts: Only save the overlap matrix S                  =    F
ts: **************************************************************

************************ Begin: TS CHECKS AND WARNINGS ************************
************************ End: TS CHECKS AND WARNINGS **************************


                     ====================================
                        Begin MD step =      1
                     ====================================

outcoor: Atomic coordinates (Ang):                          
    2.28494382   -5.19529124    0.00000000   1       1  H
    1.37433094   -4.66471070    0.00000000   2       2  N
   -0.21830245   -5.49458215    0.00000000   3       3  Si
   -0.17484108   -6.98516892    0.00000000   1       4  H
   -1.66171682   -4.58600741    0.00000000   2       5  N
   -1.09026419   -2.87456374    0.00000000   3       6  Si
   -1.53038332   -0.70765692    0.00000000   3       7  Si
   -3.14415959   -0.09186471    0.00000000   2       8  N
   -3.40268075    0.95848335    0.00000000   1       9  H
   -3.95073599   -0.76720972    0.00000000   1      10  H
   -0.17836637    0.41349951    0.00000000   2      11  N
    1.49520211   -0.04739960    0.00000000   3      12  Si
    2.45603905    1.10727302    0.00000000   1      13  H
    2.30451743   -1.58574382    0.00000000   2      14  N
    1.10725559   -2.84610319    0.00000000   3      15  Si
    0.45434668    8.37806143    0.00000000   1      16  H
   -0.35436400    7.68585555    0.00000000   2      17  N
   -2.01095384    8.39897565    0.00000000   3      18  Si
   -1.91408867    9.90970086    0.00000000   1      19  H
   -3.73711019    7.05592752    0.00000000   3      20  Si
   -6.09156444    7.04794059    0.00000000   3      21  Si
   -6.65398256    7.78243024   -1.20183078   1      22  H
   -6.39137819    5.56884946   -0.08618332   1      23  H
   -6.65409502    7.61277305    1.28814761   1      24  H
   -2.80771955    4.98535629    0.00000000   3      25  Si
   -3.75718791    3.69682016    0.00000000   4      26  O
   -1.01677468    4.81162082    0.00000000   2      27  N
   -0.68578332    3.77926384    0.00000000   1      28  H
    0.29168354    6.00616724    0.00000000   3      29  Si
    1.85762047    5.73892039    0.00000000   4      30  O

outcell: Unit cell vectors (Ang):
       18.200127    0.000000    0.000000
        0.000000   26.172940    0.000000
        0.000000    0.000000   10.327559

outcell: Cell vector modules (Ang)   :   18.200127   26.172940   10.327559
outcell: Cell angles (23,13,12) (deg):     90.0000     90.0000     90.0000
outcell: Cell volume (Ang**3)        :   4919.5411
<dSpData1D:S at geom step 1
  <sparsity:sparsity for geom step 1
    nrows_g=302 nrows=18 sparsity=.0322 nnzs=2939, refcount: 8>
  <dData1D:(new from dSpData1D) n=2939, refcount: 1>
refcount: 1>
new_DM -- step:     1
Initializing Density Matrix...

Attempting to read DM from file... Failed...
DM filled with atomic data:
<dSpData2D:DM initialized from atoms
  <sparsity:sparsity for geom step 1
    nrows_g=302 nrows=18 sparsity=.0322 nnzs=2939, refcount: 9>
  <dData2D:DM n=2939 m=8, refcount: 1>
refcount: 1>
     spin moment: S , {S} =   56.00000   0.00000   0.00000  56.00000
No. of atoms with KB's overlaping orbs in proc 0. Max # of overlaps:      22     163

Initializing spin-orbit part of the Hamiltonian
  Adding spin-orbit effects for H 
  Adding spin-orbit effects for N 
  Adding spin-orbit effects for Si
  Adding spin-orbit effects for O 


New grid distribution:   1
           1       1:  108    1:   38    1:    8
           2       1:  108    1:   38    9:   16
           3       1:  108    1:   38   17:   24
           4       1:  108    1:   38   25:   32
           5       1:  108    1:   38   33:   39
           6       1:  108    1:   38   40:   46
           7       1:  108    1:   38   47:   53
           8       1:  108    1:   38   54:   60
           9       1:  108   39:   76    1:    8
          10       1:  108   39:   76    9:   16
          11       1:  108   39:   76   17:   24
          12       1:  108   39:   76   25:   32
          13       1:  108   39:   76   33:   39
          14       1:  108   39:   76   40:   46
          15       1:  108   39:   76   47:   53
          16       1:  108   39:   76   54:   60
          17       1:  108   77:  113    1:    8
          18       1:  108   77:  113    9:   16
          19       1:  108   77:  113   17:   24
          20       1:  108   77:  113   25:   32
          21       1:  108   77:  113   33:   39
          22       1:  108   77:  113   40:   46
          23       1:  108   77:  113   47:   53
          24       1:  108   77:  113   54:   60
          25       1:  108  114:  150    1:    8
          26       1:  108  114:  150    9:   16
          27       1:  108  114:  150   17:   24
          28       1:  108  114:  150   25:   32
          29       1:  108  114:  150   33:   39
          30       1:  108  114:  150   40:   46
          31       1:  108  114:  150   47:   53
          32       1:  108  114:  150   54:   60

InitMesh: MESH =   216 x   300 x   120 =     7776000
InitMesh: (bp) =   108 x   150 x    60 =      972000
InitMesh: Mesh cutoff (required, used) =   340.000   363.111 Ry
ExtMesh (bp) on 0 =   216 x   142 x   116 =     3557952
New grid distribution:   2
           1       1:   10   48:  131    1:   20
           2      69:   87   31:   47    1:   21
           3      99:  108    1:   28   19:   60
           4      16:   87    1:   30   19:   60
           5      16:   87    1:   30    1:   18
           6       1:   15    1:   30   19:   60
           7      88:   98    1:   28   19:   60
           8      88:   98    1:   28    1:   18
           9      11:   81   48:  131    1:   20
          10       1:   68   31:   47    1:   21
          11      99:  108    1:   28    1:   18
          12      70:   87   31:   47   22:   60
          13       1:   69   31:   47   22:   60
          14      99:  108   48:  129    1:   20
          15      98:  108   29:   47   22:   60
          16      98:  108   29:   47    1:   21
          17      82:   98   48:  129    1:   20
          18       1:   15    1:   30    1:   18
          19      88:   97   29:   47    1:   21
          20      11:   81   48:  131   21:   60
          21      82:   98   48:  129   21:   60
          22      99:  108   48:  129   21:   60
          23      88:   97   29:   47   22:   60
          24       1:    9  132:  150    1:   20
          25      10:   81  132:  150    1:   20
          26      82:   99  130:  150    1:   21
          27     100:  108  130:  150    1:   21
          28      10:   81  132:  150   21:   60
          29       1:   10   48:  131   21:   60
          30      82:   99  130:  150   22:   60
          31     100:  108  130:  150   22:   60
          32       1:    9  132:  150   21:   60
New grid distribution:   3
           1      26:   70   31:   52    1:   25
           2      92:  108    1:   28   25:   60
           3      71:   90    1:   28    1:   24
           4      18:   70    1:   30   26:   60
           5      17:   75  123:  150    1:   25
           6      71:   91    1:   28   25:   60
           7       1:   17    1:   30   26:   60
           8       1:   17    1:   30    1:   25
           9      15:   75   53:  122    1:   24
          10      95:  108  119:  150   26:   60
          11       1:   25   31:   52    1:   25
          12      26:   70   31:   52   26:   60
          13      18:   70    1:   30    1:   25
          14       1:   25   31:   52   26:   60
          15      71:   89   29:   52   27:   60
          16      91:  108    1:   28    1:   24
          17      76:   96   53:  118    1:   24
          18      97:  108   53:  118    1:   24
          19      71:   89   29:   52    1:   26
          20      15:   75   53:  122   25:   60
          21      76:   96   53:  118   25:   60
          22      97:  108   53:  118   25:   60
          23      90:  108   29:   52   27:   60
          24      90:  108   29:   52    1:   26
          25       1:   14   53:  122    1:   24
          26      76:   94  119:  150    1:   25
          27       1:   16  123:  150    1:   25
          28      17:   75  123:  150   26:   60
          29       1:   14   53:  122   25:   60
          30      76:   94  119:  150   26:   60
          31       1:   16  123:  150   26:   60
          32      95:  108  119:  150    1:   25
Setting up quadratic distribution...
ExtMesh (bp) on 0 =   118 x   188 x   128 =     2839552
PhiOnMesh: Number of (b)points on node 0 =                16800
PhiOnMesh: nlist on node 0 =               341191

stepf: Fermi-Dirac step function

siesta: Program's energy decomposition (eV):
siesta: Ebs     =      -639.908632
siesta: Eions   =      3553.971015
siesta: Ena     =       374.968811
siesta: Ekin    =      3169.020158
siesta: Enl     =     -2982.713638
siesta: Eso     =        -0.003891
siesta: Edftu   =         0.000000
siesta: DEna    =       129.532737
siesta: DUscf   =        74.764319
siesta: DUext   =         0.000000
siesta: Exc     =     -1168.144366
siesta: eta*DQ  =         0.000000
siesta: Emadel  =         0.000000
siesta: Emeta   =         0.000000
siesta: Emolmec =         0.000000
siesta: Ekinion =         0.000000
siesta: Eharris =     -3887.070516
siesta: Etot    =     -3956.546886
siesta: FreeEng =     -3956.550180

        iscf     Eharris(eV)        E_KS(eV)     FreeEng(eV)     dDmax    Ef(eV) dHmax(eV)
   scf:    1    -3887.070516    -3956.546886    -3956.550180  0.970211 -4.935295 21.161407
     spin moment: S , {S} =    2.02338  -0.00000  -0.00000   2.02338
timer: Routine,Calls,Time,% = IterSCF        1       3.905   9.56
   scf:    2    -3998.684375    -3989.944164    -3989.944175  0.465653 -4.287016 10.392389
     spin moment: S , {S} =    2.00007   0.00000  -0.00000   2.00007
   scf:    3    -3976.404737    -3990.886842    -3990.929037  0.421977 -4.164454  9.071746
     spin moment: S , {S} =    1.30420  -0.00000  -0.00000   1.30420
   scf:    4    -4001.453395    -3997.650945    -3997.650945  0.168063 -3.910922  4.553325
     spin moment: S , {S} =    0.00010  -0.00000   0.00000   0.00010
   scf:    5    -3998.985618    -3998.386234    -3998.386234  0.037304 -3.826446  2.674985
     spin moment: S , {S} =    0.00006  -0.00000   0.00000   0.00006
   scf:    6    -3999.068692    -3998.730000    -3998.730000  0.024603 -3.824089  1.321259
     spin moment: S , {S} =    0.00003  -0.00000   0.00000   0.00003
   scf:    7    -3999.090176    -3998.903497    -3998.903497  0.022622 -3.874442  0.685526
     spin moment: S , {S} =    0.00001  -0.00000   0.00000   0.00001
   scf:    8    -3999.017291    -3998.958203    -3998.958203  0.011281 -3.910393  0.394636
     spin moment: S , {S} =    0.00000  -0.00000   0.00000   0.00000
   scf:    9    -3999.004031    -3998.980049    -3998.980049  0.006948 -3.925677  0.288292
     spin moment: S , {S} =    0.00000  -0.00000   0.00000   0.00000
   scf:   10    -3999.029094    -3998.999730    -3998.999731  0.017309 -3.942835  0.137477
     spin moment: S , {S} =    0.00000  -0.00000  -0.00000  -0.00000
   scf:   11    -3999.002540    -3999.001142    -3999.001143  0.004102 -3.934718  0.038568
     spin moment: S , {S} =    0.00000  -0.00000  -0.00000  -0.00000
   scf:   12    -3999.001817    -3999.001478    -3999.001480  0.001508 -3.933257  0.025791
     spin moment: S , {S} =    0.00000  -0.00000  -0.00000   0.00000
   scf:   13    -3999.001881    -3999.001674    -3999.001675  0.001241 -3.932019  0.021528
     spin moment: S , {S} =    0.00000  -0.00000  -0.00000   0.00000
   scf:   14    -3999.002059    -3999.001852    -3999.001854  0.001620 -3.931305  0.015710
     spin moment: S , {S} =    0.00000  -0.00000  -0.00000   0.00000
   scf:   15    -3999.002092    -3999.001960    -3999.001961  0.001519 -3.930937  0.011343
     spin moment: S , {S} =    0.00000  -0.00000  -0.00000   0.00000
   scf:   16    -3999.002106    -3999.002020    -3999.002022  0.001499 -3.930844  0.005630
     spin moment: S , {S} =    0.00000  -0.00000  -0.00000   0.00000
   scf:   17    -3999.002051    -3999.002033    -3999.002034  0.000684 -3.930920  0.003641
     spin moment: S , {S} =    0.00000  -0.00000  -0.00000   0.00000
   scf:   18    -3999.002042    -3999.002037    -3999.002038  0.000417 -3.931019  0.001769
     spin moment: S , {S} =    0.00000  -0.00000  -0.00000   0.00000
   scf:   19    -3999.002039    -3999.002038    -3999.002039  0.000221 -3.931035  0.000776
     spin moment: S , {S} =    0.00000  -0.00000  -0.00000   0.00000
   scf:   20    -3999.002038    -3999.002038    -3999.002039  0.000058 -3.931049  0.000500
     spin moment: S , {S} =    0.00000  -0.00000  -0.00000   0.00000
   scf:   21    -3999.002038    -3999.002038    -3999.002039  0.000033 -3.931048  0.000316
     spin moment: S , {S} =    0.00000  -0.00000  -0.00000  -0.00000
   scf:   22    -3999.002038    -3999.002038    -3999.002039  0.000044 -3.931056  0.000153
     spin moment: S , {S} =    0.00000  -0.00000  -0.00000  -0.00000
   scf:   23    -3999.002038    -3999.002038    -3999.002039  0.000014 -3.931059  0.000120
     spin moment: S , {S} =    0.00000  -0.00000  -0.00000  -0.00000
   scf:   24    -3999.002038    -3999.002038    -3999.002039  0.000008 -3.931059  0.000093
     spin moment: S , {S} =    0.00000  -0.00000  -0.00000  -0.00000
mix: Pulay -- resetting history
   scf:   25    -3999.002038    -3999.002038    -3999.002039  0.000008 -3.931058  0.000054
     spin moment: S , {S} =    0.00000  -0.00000  -0.00000  -0.00000
   scf:   26    -3999.002038    -3999.002038    -3999.002039  0.000004 -3.931056  0.000028
     spin moment: S , {S} =    0.00000   0.00000   0.00000  -0.00000
   scf:   27    -3999.002038    -3999.002038    -3999.002039  0.000003 -3.931056  0.000019
     spin moment: S , {S} =    0.00000   0.00000   0.00000  -0.00000
   scf:   28    -3999.002038    -3999.002038    -3999.002039  0.000001 -3.931056  0.000013
     spin moment: S , {S} =    0.00000   0.00000   0.00000  -0.00000
   scf:   29    -3999.002038    -3999.002038    -3999.002039  0.000002 -3.931057  0.000008
     spin moment: S , {S} =    0.00000   0.00000   0.00000   0.00000
   scf:   30    -3999.002038    -3999.002038    -3999.002039  0.000001 -3.931057  0.000004
     spin moment: S , {S} =    0.00000   0.00000   0.00000   0.00000
   scf:   31    -3999.002038    -3999.002038    -3999.002039  0.000000 -3.931058  0.000003
     spin moment: S , {S} =    0.00000   0.00000   0.00000  -0.00000
   scf:   32    -3999.002038    -3999.002038    -3999.002039  0.000000 -3.931058  0.000002
     spin moment: S , {S} =    0.00000   0.00000   0.00000   0.00000
   scf:   33    -3999.002038    -3999.002038    -3999.002039  0.000000 -3.931058  0.000001
     spin moment: S , {S} =    0.00000   0.00000   0.00000   0.00000
   scf:   34    -3999.002038    -3999.002038    -3999.002039  0.000000 -3.931058  0.000001
     spin moment: S , {S} =    0.00000   0.00000   0.00000  -0.00000

SCF Convergence by DM+H criterion
max |DM_out - DM_in|         :     0.0000001612
max |H_out - H_in|      (eV) :     0.0000009312
SCF cycle converged after 34 iterations

Using DM_out to compute the final energy and forces
No. of atoms with KB's overlaping orbs in proc 0. Max # of overlaps:      22     163

siesta: E_KS(eV) =            -3999.0020

siesta: E_KS - E_eggbox =     -3999.0020
     spin moment: S , {S} =    0.00000   0.00000   0.00000  -0.00000

siesta: Atomic forces (eV/Ang):
     1    0.142819   -0.014578   -0.000000
     2   -0.026181    0.019633   -0.000000
     3   -0.022157   -0.005807   -0.000000
     4    0.175315    0.011882   -0.000000
     5   -0.002113   -0.027625    0.000000
     6   -0.139529    0.014179   -0.000000
     7    0.773824    0.019609   -0.000003
     8   -0.516118    1.309973    0.000007
     9    0.182296   -0.799988   -0.000017
    10   -0.154938    0.033552    0.000002
    11   -0.123814   -0.262058    0.000003
    12   -0.217803    0.030587    0.000001
    13   -0.150433    0.043282    0.000000
    14    0.021420   -0.100144   -0.000001
    15    0.078611    0.082012    0.000000
    16   -0.131210   -0.067125   -0.000944
    17    0.026058   -0.057893   -0.000804
    18   -0.115757    0.025209    0.005287
    19    0.035723   -0.102599   -0.001478
    20    0.089905    0.061538   -0.001010
    21    0.027188   -0.017666   -0.006847
    22    0.055827   -0.116923    0.088310
    23   -0.047762    0.149240   -0.016266
    24    0.056350   -0.049000   -0.074543
    25   -0.488269   -0.330119    0.000994
    26   -1.714570   -3.398806    0.000494
    27    0.261482   -0.359798   -0.000548
    28   -0.107850    0.546221   -0.000078
    29    0.115377    0.117242   -0.000208
    30   -1.220438    2.280164    0.000246
----------------------------------------
   Tot   -3.136747   -0.965806   -0.007401
----------------------------------------
   Max    3.398806
   Res    0.534596    sqrt( Sum f_i^2 / 3N )
----------------------------------------
   Max    3.398806    constrained

Stress tensor Voigt[x,y,z,yz,xz,xy] (kbar):        0.33        1.07       -0.05       -0.02        0.00        0.27
(Free)E + p*V (eV/cell)    -4000.3802
Target enthalpy (eV/cell)    -3999.0020

siesta: Stress tensor (static) (eV/Ang**3):
         0.000203    0.000167    0.000001
         0.000167    0.000668   -0.000011
         0.000001   -0.000011   -0.000031

siesta: Pressure (static):         -0.44883045  kBar

siesta: Stress tensor (total) (eV/Ang**3):
         0.000203    0.000167    0.000001
         0.000167    0.000668   -0.000011
         0.000001   -0.000011   -0.000031

siesta: Pressure (total):         -0.44883045  kBar

siesta: Temp_ion =       0.000 K

siesta: Eigenvalues (eV):
ik =     1
  -22.9180  -22.9180  -22.5008  -22.5008  -21.7969  -21.7969  -21.3170  -21.3170  -21.1213  -21.1213
  -20.8277  -20.8277  -19.5015  -19.5015  -19.3376  -19.3376  -18.7227  -18.7227  -15.0995  -15.0995
  -14.1713  -14.1713  -13.7259  -13.7259  -13.6123  -13.6123  -13.1485  -13.1485  -12.9861  -12.9861
  -12.5803  -12.5803  -12.0895  -12.0895  -11.9680  -11.9680  -11.6299  -11.6299  -11.5289  -11.5289
  -11.0074  -11.0074  -10.6848  -10.6848  -10.2972  -10.2972   -9.6495   -9.6495   -9.3713   -9.3713
   -9.2385   -9.2385   -9.1833   -9.1833   -9.0796   -9.0796   -8.9004   -8.9004   -8.6638   -8.6638
   -8.4618   -8.4618   -8.3357   -8.3357   -8.2308   -8.2308   -8.0730   -8.0730   -8.0020   -8.0020
   -7.8869   -7.8869   -7.4451   -7.4451   -7.4085   -7.4085   -7.3555   -7.3555   -6.9128   -6.9128
   -6.8816   -6.8816   -6.8251   -6.8251   -6.4827   -6.4827   -6.4698   -6.4698   -6.3011   -6.3010
   -5.8860   -5.8860   -5.7885   -5.7885   -5.6561   -5.6561   -4.2946   -4.2946   -3.5675   -3.5675
   -2.7680   -2.7680   -2.2933   -2.2933   -2.2712   -2.2712   -2.1992   -2.1992   -2.0750   -2.0750
   -2.0279   -2.0279   -1.8105   -1.8105   -1.7002   -1.7002   -1.6689   -1.6689   -1.4968   -1.4968
   -1.2121   -1.2121   -0.6094   -0.6094   -0.4066   -0.4066   -0.3047   -0.3047   -0.2314   -0.2314
   -0.0685   -0.0685   -0.0111   -0.0111    0.1826    0.1826    0.4855    0.4855    0.4948    0.4948
    0.5768    0.5768    0.6963    0.6963    1.0729    1.0729    1.2040    1.2040    1.3823    1.3823
    1.4065    1.4065    1.4985    1.4985    1.7620    1.7620    1.9662    1.9662    2.1387    2.1387
    2.4061    2.4061    2.6223    2.6223    2.7209    2.7209    2.7660    2.7660    2.9651    2.9651
    2.9777    2.9777    3.0045    3.0045    3.1944    3.1944    3.2575    3.2575    3.4354    3.4354
    3.6554    3.6554    3.8395    3.8395    4.0562    4.0562    4.1821    4.1821    4.2167    4.2167
    4.2754    4.2754    4.6178    4.6178    4.7347    4.7347    4.8361    4.8361    5.0057    5.0057
    5.0200    5.0200    5.2778    5.2778    5.5087    5.5087    5.6362    5.6362    5.6952    5.6952
    5.7876    5.7876    6.0209    6.0209    6.0837    6.0837    6.2421    6.2421    6.2816    6.2816
    6.5439    6.5439    6.7262    6.7262    6.7518    6.7518    7.0474    7.0474    7.1568    7.1568
    7.2333    7.2333    7.4200    7.4200    7.6092    7.6092    7.7773    7.7773    7.9175    7.9175
    8.0348    8.0348    8.2083    8.2083    8.3330    8.3330    8.4529    8.4529    8.6181    8.6181
    8.8294    8.8294    9.0146    9.0146    9.0356    9.0356    9.2269    9.2269    9.5771    9.5771
    9.6430    9.6430    9.7544    9.7544    9.7900    9.7900    9.8851    9.8851   10.1029   10.1029
   10.3002   10.3002   10.4472   10.4472   10.7019   10.7019   10.8581   10.8581   11.0257   11.0257
   11.2278   11.2278   11.5113   11.5113   11.5804   11.5804   11.7228   11.7228   11.7416   11.7416
   11.8927   11.8927   12.2645   12.2645   12.4124   12.4124   12.4631   12.4631   12.5038   12.5038
   12.8721   12.8721   12.9589   12.9589   13.0952   13.0952   13.3491   13.3491   13.3661   13.3661
   13.5138   13.5138   13.7635   13.7635   14.4955   14.4955   14.7319   14.7319   14.7776   14.7776
   14.8293   14.8293   14.9955   14.9955   15.1121   15.1121   16.0370   16.0370   16.5058   16.5058
   16.7523   16.7523   16.8320   16.8320   16.9901   16.9901   17.1945   17.1945   17.4936   17.4936
   18.1818   18.1818   18.2343   18.2343   18.5206   18.5206   18.7288   18.7288   18.7555   18.7555
   18.7836   18.7836   19.5165   19.5165   19.6774   19.6774   19.9868   19.9868   20.4619   20.4619
   20.7160   20.7160   21.0801   21.0801   21.4628   21.4628   21.6482   21.6482   22.1533   22.1533
   22.2895   22.2895   22.9278   22.9278   23.0787   23.0787   23.1147   23.1147   23.9008   23.9008
   24.5828   24.5828   24.7946   24.7946   24.9130   24.9130   25.7418   25.7418   25.8850   25.8850
   26.1534   26.1534   26.5008   26.5008   26.6249   26.6249   27.6905   27.6905   27.8696   27.8696
   28.3228   28.3228   28.8491   28.8491   29.3676   29.3676   30.3421   30.3421   30.7398   30.7398
   30.7499   30.7499   30.7954   30.7954   31.1093   31.1093   31.3013   31.3013   31.6277   31.6277
   31.8976   31.8976   31.9105   31.9105   32.0916   32.0916   33.3707   33.3707   33.5656   33.5656
   34.0119   34.0119   34.1382   34.1382   34.4178   34.4178   34.6289   34.6289   35.6157   35.6157
   35.9031   35.9031   36.1156   36.1156   36.9475   36.9475   37.1055   37.1055   37.8321   37.8321
   37.8645   37.8645   38.3966   38.3966   38.4213   38.4213   38.7028   38.7028   39.1161   39.1161
   39.7307   39.7307   40.2015   40.2015   40.7202   40.7202   41.1805   41.1805   41.1944   41.1944
   41.7230   41.7230   42.4288   42.4288   43.0561   43.0561   43.5217   43.5217   43.7976   43.7976
   44.6240   44.6240   44.9031   44.9031   45.0606   45.0606   45.1249   45.1249   45.5964   45.5964
   46.2198   46.2198   46.4304   46.4304   46.6991   46.6991   47.2250   47.2250   47.3723   47.3723
   47.6944   47.6944   48.5630   48.5630   48.5809   48.5809   49.2622   49.2622   49.3412   49.3412
   50.0051   50.0051   50.2064   50.2064   50.4175   50.4175   50.4400   50.4400   50.8458   50.8458
   51.7140   51.7140   52.8151   52.8151   53.4452   53.4452   53.9473   53.9473   54.4103   54.4103
   54.9779   54.9779   55.3222   55.3222   55.7916   55.7916   56.5207   56.5207   56.5556   56.5556
   57.9388   57.9388   58.4929   58.4929   58.5100   58.5100   60.1456   60.1456   60.2501   60.2501
   61.0561   61.0561   62.1382   62.1382   62.2053   62.2054   63.0416   63.0416   63.5590   63.5590
   65.4513   65.4513   65.5181   65.5181   67.1030   67.1030   67.4975   67.4975   68.4835   68.4835
   68.7999   68.7999   70.7762   70.7762   71.9645   71.9645   79.0171   79.0171   88.6713   88.6713
   92.7114   92.7114   93.1940   93.1940   95.1975   95.1975   96.8638   96.8638  100.1316  100.1316
  102.0937  102.0937  102.6058  102.6058  115.6250  115.6250  119.2796  119.2796  123.4513  123.4513
  133.3496  133.3496  139.8676  139.8676
siesta: Fermi energy =      -3.931058 eV

siesta: Program's energy decomposition (eV):
siesta: Ebs     =     -1118.713911
siesta: Eions   =      3553.971015
siesta: Ena     =       374.968811
siesta: Ekin    =      2743.027222
siesta: Enl     =     -2522.917206
siesta: Eso     =        -0.004668
siesta: Edftu   =         0.000000
siesta: DEna    =        36.977961
siesta: DUscf   =        13.792444
siesta: DUext   =         0.000000
siesta: Exc     =     -1090.875588
siesta: eta*DQ  =         0.000000
siesta: Emadel  =         0.000000
siesta: Emeta   =         0.000000
siesta: Emolmec =         0.000000
siesta: Ekinion =         0.000000
siesta: Eharris =     -3999.002038
siesta: Etot    =     -3999.002038
siesta: FreeEng =     -3999.002039

siesta: Final energy (eV):
siesta:  Band Struct. =   -1118.713911
siesta:       Kinetic =    2743.027222
siesta:       Hartree =    7775.679647
siesta:       Edftu   =       0.000000
siesta:       Eso     =      -0.004668
siesta:    Ext. field =       0.000000
siesta:   Exch.-corr. =   -1090.875588
siesta:  Ion-electron =  -17997.353893
siesta:       Ion-ion =    4570.525242
siesta:       Ekinion =       0.000000
siesta:         Total =   -3999.002038
siesta:         Fermi =      -3.931058

siesta: Atomic forces (eV/Ang):
siesta:      1    0.142819   -0.014578   -0.000000
siesta:      2   -0.026181    0.019633   -0.000000
siesta:      3   -0.022157   -0.005807   -0.000000
siesta:      4    0.175315    0.011882   -0.000000
siesta:      5   -0.002113   -0.027625    0.000000
siesta:      6   -0.139529    0.014179   -0.000000
siesta:      7    0.773824    0.019609   -0.000003
siesta:      8   -0.516118    1.309973    0.000007
siesta:      9    0.182296   -0.799988   -0.000017
siesta:     10   -0.154938    0.033552    0.000002
siesta:     11   -0.123814   -0.262058    0.000003
siesta:     12   -0.217803    0.030587    0.000001
siesta:     13   -0.150433    0.043282    0.000000
siesta:     14    0.021420   -0.100144   -0.000001
siesta:     15    0.078611    0.082012    0.000000
siesta:     16   -0.131210   -0.067125   -0.000944
siesta:     17    0.026058   -0.057893   -0.000804
siesta:     18   -0.115757    0.025209    0.005287
siesta:     19    0.035723   -0.102599   -0.001478
siesta:     20    0.089905    0.061538   -0.001010
siesta:     21    0.027188   -0.017666   -0.006847
siesta:     22    0.055827   -0.116923    0.088310
siesta:     23   -0.047762    0.149240   -0.016266
siesta:     24    0.056350   -0.049000   -0.074543
siesta:     25   -0.488269   -0.330119    0.000994
siesta:     26   -1.714570   -3.398806    0.000494
siesta:     27    0.261482   -0.359798   -0.000548
siesta:     28   -0.107850    0.546221   -0.000078
siesta:     29    0.115377    0.117242   -0.000208
siesta:     30   -1.220438    2.280164    0.000246
siesta: ----------------------------------------
siesta:    Tot   -3.136747   -0.965806   -0.007401

siesta: Stress tensor (static) (eV/Ang**3):
siesta:     0.000203    0.000167    0.000001
siesta:     0.000167    0.000668   -0.000011
siesta:     0.000001   -0.000011   -0.000031

siesta: Cell volume =       4919.541098 Ang**3

siesta: Pressure (static):
siesta:                Solid            Molecule  Units
siesta:          -0.00000305         -0.00000237  Ry/Bohr**3
siesta:          -0.00028013         -0.00021800  eV/Ang**3
siesta:          -0.44883045         -0.34927283  kBar
(Free)E+ p_basis*V_orbitals  =       -3977.873954
(Free)Eharris+ p_basis*V_orbitals  =       -3977.873954
     spin moment: S , {S} =    0.00000   0.00000   0.00000  -0.00000

siesta: Electric dipole (a.u.)  =   -1.278750    1.813650   -0.001715
siesta: Electric dipole (Debye) =   -3.250261    4.609842   -0.004359

cite: Please see "AT.bib" for an exhaustive BiBTeX file.
cite: Please clearly indicate Siesta version in published work: v4.1.5-1-g384057250
cite: This calculation has made use of the following articles
cite: which are encouraged to be cited in a published work.
        Primary SIESTA paper
          DOI: www.doi.org/10.1088/0953-8984/14/11/302
        Spin-orbit coupling (on-site approximation)
          DOI: www.doi.org/10.1088/0953-8984/19/19/489001


WARNING: alloc-realloc-dealloc name mismatch
         Name: atomlist isa
         Size:              -120. Bytes
         Node:     0
         Subsequent mismatches will not be reported
>> End of run:  16-OCT-2023  20:32:18
Job completed
