Siesta Version  : v4.1.5-1-g384057250
Architecture    : gcc
Compiler version: GNU Fortran (Debian 10.2.1-6) 10.2.1 20210110
Compiler flags  : mpifort -O2 -fPIC -ftree-vectorize -fallow-argument-mismatch
PP flags        : -DFC_HAVE_ABORT -DMPI -DSIESTA__FLOOK -DSIESTA__METIS -DSIESTA__MUMPS -DCDF -DNCDF -DNCDF_4 -DNCDF_PARALLEL -DSIESTA__MRRR -DSIESTA__ELPA
Libraries       : libncdf.a libfdict.a  -lflookall -ldl -lnetcdff -lnetcdf -lhdf5_hl -lhdf5 -lhdf5_fortran -lz -lscalapack-openmpi -lopenblas -lmetis -lzmumps -lcmumps -ldmumps -lmumps_common -lpord -lsmumps -lesmumps -lscotch -lscotcherr -fopenmp -lelpa
PARALLEL version
NetCDF support
NetCDF-4 support
NetCDF-4 MPI-IO support
METIS ordering support
Lua support

* Running on 6 nodes in parallel
>> Start of run:  14-OCT-2023  11:48:56

                           ***********************       
                           *  WELCOME TO SIESTA  *       
                           ***********************       

reinit: Reading from standard input
reinit: Dumped input in INPUT_TMP.91454
************************** Dump of input data file ****************************
# mpirun -np 4 siesta-4.1.5 < Thymine.fdf > Thymine.out
SystemLabel      Thymine
NumberOfAtoms    15
NumberOfSpecies  4
%block ChemicalSpeciesLabel
    1    1  H
    2    7  N
    3   14  Si
    4    8  O
%endblock ChemicalSpeciesLabel
############################################
# This overrides Defaults.fdf configuration
############################################
MD.TypeOfRun                Verlet # CG, Verlet
MD.Steps                    300
MD.Quench                   True
AtomicCoordinatesFormat NotScaledCartesianAng
%block AtomicCoordinatesAndAtomicSpecies
1.242161 5.687181 0.000000 1
0.432477 5.014500 0.000000 2
-0.943700 5.484401 0.000000 3
-1.056913 6.583724 0.000000 1
-2.023180 4.641328 0.000000 3
-3.430296 5.153830 0.000000 3
-3.720767 5.802691 -0.647100 1
-4.100149 4.264215 0.312385 1
-3.529647 5.743702 0.957589 1
-1.829833 3.188407 0.000000 3
-2.779511 2.364822 0.000000 4
-0.434550 2.703596 0.000000 2
-0.240032 1.583463 0.000000 1
0.774211 3.545831 0.000000 3
1.917000 3.111784 0.000000 4
%endblock AtomicCoordinatesAndAtomicSpecies
#############
# Unit Cell
#############
LatticeConstant 1.0 Ang
%block LatticeVectors
    16.818328    0.000000    0.000000
    0.000000   14.230200    0.000000
    0.000000    0.000000   10.224979
%endblock LatticeVectors
%include ../../../../Defaults.fdf
************************** End of input data file *****************************

reinit: -----------------------------------------------------------------------
reinit: System Name: 
reinit: -----------------------------------------------------------------------
reinit: System Label: Thymine
reinit: -----------------------------------------------------------------------

initatom: Reading input for the pseudopotentials and atomic orbitals ----------
Species number:   1 Atomic number:    1 Label: H
Species number:   2 Atomic number:    7 Label: N
Species number:   3 Atomic number:   14 Label: Si
Species number:   4 Atomic number:    8 Label: O

Ground state valence configuration:   1s01
Reading pseudopotential information in formatted form from H.psf

Pseudopotential generated from a relativistic atomic calculation

Valence configuration for pseudopotential generation:
1s( 1.00) rc: 0.01
2p( 0.00) rc: 0.60
3d( 0.00) rc: 1.99
4f( 0.00) rc: 2.49
Ground state valence configuration:   2s02  2p03
Reading pseudopotential information in formatted form from N.psf

Pseudopotential generated from a relativistic atomic calculation

Valence configuration for pseudopotential generation:
2s( 2.00) rc: 0.94
2p( 3.00) rc: 0.59
3d( 0.00) rc: 3.46
4f( 0.00) rc: 2.47
Ground state valence configuration:   3s02  3p02
Reading pseudopotential information in formatted form from Si.psf

Pseudopotential generated from a relativistic atomic calculation

Valence configuration for pseudopotential generation:
3s( 2.00) rc: 1.67
3p( 2.00) rc: 2.04
3d( 0.00) rc: 2.89
4f( 0.00) rc: 2.49
Ground state valence configuration:   2s02  2p04
Reading pseudopotential information in formatted form from O.psf

Pseudopotential generated from a relativistic atomic calculation

Valence configuration for pseudopotential generation:
2s( 2.00) rc: 0.45
2p( 4.00) rc: 0.92
3d( 0.00) rc: 2.24
4f( 0.00) rc: 0.25
For H, standard SIESTA heuristics set lmxkb to 2
 (one more than the basis l, including polarization orbitals).
Use PS.lmax or PS.KBprojectors blocks to override.
For N, standard SIESTA heuristics set lmxkb to 3
 (one more than the basis l, including polarization orbitals).
Use PS.lmax or PS.KBprojectors blocks to override.
For Si, standard SIESTA heuristics set lmxkb to 3
 (one more than the basis l, including polarization orbitals).
Use PS.lmax or PS.KBprojectors blocks to override.
For O, standard SIESTA heuristics set lmxkb to 3
 (one more than the basis l, including polarization orbitals).
Use PS.lmax or PS.KBprojectors blocks to override.

<basis_specs>
===============================================================================
H                    Z=   1    Mass=  1.0100        Charge= 0.17977+309
Lmxo=0 Lmxkb= 2    BasisType=split      Semic=F
L=0  Nsemic=0  Cnfigmx=1
          i=1  nzeta=2  polorb=1  (1s)
            splnorm:   0.62000    
               vcte:    0.0000    
               rinn:    0.0000    
               qcoe:    0.0000    
               qyuk:    0.0000    
               qwid:   0.10000E-01
                rcs:    0.0000      0.0000    
            lambdas:    1.0000      1.0000    
-------------------------------------------------------------------------------
L=0  Nkbl=1  erefs: 0.17977+309
L=1  Nkbl=1  erefs: 0.17977+309
L=2  Nkbl=1  erefs: 0.17977+309
===============================================================================
</basis_specs>

atom: Called for H                     (Z =   1)

read_vps: Pseudopotential generation method:
read_vps: ATM4.2.7  Troullier-Martins                       
Valence charge for ps generation:    1.00000

xc_check: Exchange-correlation functional:
xc_check: GGA Perdew, Burke & Ernzerhof 1996
V l=0 = -2*Zval/r beyond r=  0.0098
V l=1 = -2*Zval/r beyond r=  0.5817
V l=2 = -2*Zval/r beyond r=  1.9372
All V_l potentials equal beyond r=  1.9372
This should be close to max(r_c) in ps generation
All pots = -2*Zval/r beyond r=  1.9372

VLOCAL1: 99.0% of the norm of Vloc inside     11.567 Ry
VLOCAL1: 99.9% of the norm of Vloc inside     26.362 Ry
atom: Maximum radius for 4*pi*r*r*local-pseudopot. charge    2.25106
atom: Maximum radius for r*vlocal+2*Zval:    1.91306
GHOST: No ghost state for L =  0
GHOST: No ghost state for L =  1
GHOST: No ghost state for L =  2

KBgen: Kleinman-Bylander projectors: 
   l= 0   rc=  2.036604   el= -0.477180   Ekb= -6.081590   kbcos= -0.277285
   l= 1   rc=  2.195416   el=  0.001076   Ekb= -0.926943   kbcos= -0.034643
   l= 2   rc=  2.251056   el=  0.002010   Ekb= -0.130941   kbcos= -0.009788

KBgen: Total number of Kleinman-Bylander projectors:    9
atom: -------------------------------------------------------------------------

atom: SANKEY-TYPE ORBITALS:
atom: Selected multiple-zeta basis: split     

SPLIT: Orbitals with angular momentum L= 0

SPLIT: Basis orbitals for state 1s

SPLIT: PAO cut-off radius determined from an
SPLIT: energy shift=  0.002000 Ry

   izeta = 1
                 lambda =    1.000000
                     rc =    6.518340
                 energy =   -0.475305
                kinetic =    0.912139
    potential(screened) =   -1.387444
       potential(ionic) =   -1.907295

   izeta = 2
                 rmatch =    2.141150
              splitnorm =    0.620000
                 energy =    0.566467
                kinetic =    3.772856
    potential(screened) =   -3.206389
       potential(ionic) =   -3.759093

POLgen: Perturbative polarization orbital with L=  1

POLgen: Polarization orbital for state 1s

   izeta = 1
                     rc =    6.518340
                 energy =    0.533861
                kinetic =    1.121086
    potential(screened) =   -0.587225
       potential(ionic) =   -1.053027
atom: Total number of Sankey-type orbitals:  5

atm_pop: Valence configuration (for local Pseudopot. screening):
 1s( 1.00)                                                            
Vna: chval, zval:    1.00000   1.00000

Vna:  Cut-off radius for the neutral-atom potential:   6.518340

atom: _________________________________________________________________________

<basis_specs>
===============================================================================
N                    Z=   7    Mass=  14.010        Charge= 0.17977+309
Lmxo=1 Lmxkb= 3    BasisType=split      Semic=F
L=0  Nsemic=0  Cnfigmx=2
          i=1  nzeta=2  polorb=0  (2s)
            splnorm:   0.28000    
               vcte:    0.0000    
               rinn:    0.0000    
               qcoe:    0.0000    
               qyuk:    0.0000    
               qwid:   0.10000E-01
                rcs:    0.0000      0.0000    
            lambdas:    1.0000      1.0000    
L=1  Nsemic=0  Cnfigmx=2
          i=1  nzeta=2  polorb=1  (2p)
            splnorm:   0.28000    
               vcte:    0.0000    
               rinn:    0.0000    
               qcoe:    0.0000    
               qyuk:    0.0000    
               qwid:   0.10000E-01
                rcs:    0.0000      0.0000    
            lambdas:    1.0000      1.0000    
-------------------------------------------------------------------------------
L=0  Nkbl=1  erefs: 0.17977+309
L=1  Nkbl=1  erefs: 0.17977+309
L=2  Nkbl=1  erefs: 0.17977+309
L=3  Nkbl=1  erefs: 0.17977+309
===============================================================================
</basis_specs>

atom: Called for N                     (Z =   7)

read_vps: Pseudopotential generation method:
read_vps: ATM4.2.7  Troullier-Martins                       
Valence charge for ps generation:    5.00000

xc_check: Exchange-correlation functional:
xc_check: GGA Perdew, Burke & Ernzerhof 1996
V l=0 = -2*Zval/r beyond r=  1.2889
V l=1 = -2*Zval/r beyond r=  1.2889
V l=2 = -2*Zval/r beyond r=  3.4178
V l=3 = -2*Zval/r beyond r=  2.4084
All V_l potentials equal beyond r=  3.3753
This should be close to max(r_c) in ps generation
All pots = -2*Zval/r beyond r=  3.4178

VLOCAL1: 99.0% of the norm of Vloc inside      3.810 Ry
VLOCAL1: 99.9% of the norm of Vloc inside      8.683 Ry
atom: Maximum radius for 4*pi*r*r*local-pseudopot. charge    4.02088
atom: Maximum radius for r*vlocal+2*Zval:    3.54838
GHOST: No ghost state for L =  0
GHOST: No ghost state for L =  1
GHOST: No ghost state for L =  2
GHOST: No ghost state for L =  3

KBgen: Kleinman-Bylander projectors: 
   l= 0   rc=  3.417763   el= -1.365098   Ekb= -4.433130   kbcos= -0.707855
   l= 1   rc=  3.375302   el= -0.521201   Ekb=-13.264039   kbcos= -0.535594
   l= 2   rc=  3.872880   el=  0.001991   Ekb= -0.641094   kbcos= -0.062456
   l= 3   rc=  3.970931   el=  0.003093   Ekb= -0.474517   kbcos= -0.018236

KBgen: Total number of Kleinman-Bylander projectors:   16
atom: -------------------------------------------------------------------------

atom: SANKEY-TYPE ORBITALS:
atom: Selected multiple-zeta basis: split     

SPLIT: Orbitals with angular momentum L= 0

SPLIT: Basis orbitals for state 2s

SPLIT: PAO cut-off radius determined from an
SPLIT: energy shift=  0.002000 Ry

   izeta = 1
                 lambda =    1.000000
                     rc =    4.730425
                 energy =   -1.363399
                kinetic =    1.245246
    potential(screened) =   -2.608645
       potential(ionic) =   -8.121105

   izeta = 2
                 rmatch =    2.531849
              splitnorm =    0.280000
                 energy =   -0.959908
                kinetic =    2.409435
    potential(screened) =   -3.369343
       potential(ionic) =   -9.427975

SPLIT: Orbitals with angular momentum L= 1

SPLIT: Basis orbitals for state 2p

SPLIT: PAO cut-off radius determined from an
SPLIT: energy shift=  0.002000 Ry

   izeta = 1
                 lambda =    1.000000
                     rc =    5.924108
                 energy =   -0.519262
                kinetic =    3.672940
    potential(screened) =   -4.192202
       potential(ionic) =   -9.518354

   izeta = 2
                 rmatch =    2.531849
              splitnorm =    0.280000
                 energy =   -0.104258
                kinetic =    6.807538
    potential(screened) =   -6.911796
       potential(ionic) =  -13.149920

POLgen: Perturbative polarization orbital with L=  2

POLgen: Polarization orbital for state 2p

   izeta = 1
                     rc =    5.924108
                 energy =    1.427508
                kinetic =    2.872379
    potential(screened) =   -1.444871
       potential(ionic) =   -5.563644
atom: Total number of Sankey-type orbitals: 13

atm_pop: Valence configuration (for local Pseudopot. screening):
 2s( 2.00)                                                            
 2p( 3.00)                                                            
Vna: chval, zval:    5.00000   5.00000

Vna:  Cut-off radius for the neutral-atom potential:   5.924108

atom: _________________________________________________________________________

<basis_specs>
===============================================================================
Si                   Z=  14    Mass=  28.090        Charge= 0.17977+309
Lmxo=1 Lmxkb= 3    BasisType=split      Semic=F
L=0  Nsemic=0  Cnfigmx=3
          i=1  nzeta=2  polorb=0  (3s)
            splnorm:   0.28000    
               vcte:    0.0000    
               rinn:    0.0000    
               qcoe:    0.0000    
               qyuk:    0.0000    
               qwid:   0.10000E-01
                rcs:    0.0000      0.0000    
            lambdas:    1.0000      1.0000    
L=1  Nsemic=0  Cnfigmx=3
          i=1  nzeta=2  polorb=1  (3p)
            splnorm:   0.28000    
               vcte:    0.0000    
               rinn:    0.0000    
               qcoe:    0.0000    
               qyuk:    0.0000    
               qwid:   0.10000E-01
                rcs:    0.0000      0.0000    
            lambdas:    1.0000      1.0000    
-------------------------------------------------------------------------------
L=0  Nkbl=1  erefs: 0.17977+309
L=1  Nkbl=1  erefs: 0.17977+309
L=2  Nkbl=1  erefs: 0.17977+309
L=3  Nkbl=1  erefs: 0.17977+309
===============================================================================
</basis_specs>

atom: Called for Si                    (Z =  14)

read_vps: Pseudopotential generation method:
read_vps: ATM4.2.7  Troullier-Martins                       
Valence charge for ps generation:    4.00000

xc_check: Exchange-correlation functional:
xc_check: GGA Perdew, Burke & Ernzerhof 1996
V l=0 = -2*Zval/r beyond r=  2.7826
V l=1 = -2*Zval/r beyond r=  2.7826
V l=2 = -2*Zval/r beyond r=  2.9253
V l=3 = -2*Zval/r beyond r=  2.7826
All V_l potentials equal beyond r=  2.8530
This should be close to max(r_c) in ps generation
All pots = -2*Zval/r beyond r=  2.9253

VLOCAL1: 99.0% of the norm of Vloc inside      5.333 Ry
VLOCAL1: 99.9% of the norm of Vloc inside     12.154 Ry
atom: Maximum radius for 4*pi*r*r*local-pseudopot. charge    3.39869
atom: Maximum radius for r*vlocal+2*Zval:    2.96205
GHOST: No ghost state for L =  0
GHOST: No ghost state for L =  1
GHOST: No ghost state for L =  2
GHOST: No ghost state for L =  3

KBgen: Kleinman-Bylander projectors: 
   l= 0   rc=  3.075247   el= -0.794092   Ekb=  5.879390   kbcos=  0.167461
   l= 1   rc=  3.153101   el= -0.300068   Ekb=  2.642817   kbcos=  0.058301
   l= 2   rc=  3.273594   el=  0.001958   Ekb= -1.185135   kbcos= -0.104411
   l= 3   rc=  3.232927   el=  0.003046   Ekb= -0.497174   kbcos= -0.015889

KBgen: Total number of Kleinman-Bylander projectors:   16
atom: -------------------------------------------------------------------------

atom: SANKEY-TYPE ORBITALS:
atom: Selected multiple-zeta basis: split     

SPLIT: Orbitals with angular momentum L= 0

SPLIT: Basis orbitals for state 3s

SPLIT: PAO cut-off radius determined from an
SPLIT: energy shift=  0.002000 Ry

   izeta = 1
                 lambda =    1.000000
                     rc =    6.429618
                 energy =   -0.792283
                kinetic =    0.525293
    potential(screened) =   -1.317576
       potential(ionic) =   -3.744923

   izeta = 2
                 rmatch =    3.998416
              splitnorm =    0.280000
                 energy =   -0.583081
                kinetic =    1.069570
    potential(screened) =   -1.652651
       potential(ionic) =   -4.235185

SPLIT: Orbitals with angular momentum L= 1

SPLIT: Basis orbitals for state 3p

SPLIT: PAO cut-off radius determined from an
SPLIT: energy shift=  0.002000 Ry

   izeta = 1
                 lambda =    1.000000
                     rc =    8.464845
                 energy =   -0.298236
                kinetic =    0.785360
    potential(screened) =   -1.083596
       potential(ionic) =   -3.273779

   izeta = 2
                 rmatch =    4.587816
              splitnorm =    0.280000
                 energy =   -0.131871
                kinetic =    1.403687
    potential(screened) =   -1.535557
       potential(ionic) =   -4.015310

POLgen: Perturbative polarization orbital with L=  2

POLgen: Polarization orbital for state 3p

   izeta = 1
                     rc =    8.464845
                 energy =    0.321949
                kinetic =    1.055677
    potential(screened) =   -0.733728
       potential(ionic) =   -2.672950
atom: Total number of Sankey-type orbitals: 13

atm_pop: Valence configuration (for local Pseudopot. screening):
 3s( 2.00)                                                            
 3p( 2.00)                                                            
Vna: chval, zval:    4.00000   4.00000

Vna:  Cut-off radius for the neutral-atom potential:   8.464845

atom: _________________________________________________________________________

<basis_specs>
===============================================================================
O                    Z=   8    Mass=  16.000        Charge= 0.17977+309
Lmxo=1 Lmxkb= 3    BasisType=split      Semic=F
L=0  Nsemic=0  Cnfigmx=2
          i=1  nzeta=2  polorb=0  (2s)
            splnorm:   0.28000    
               vcte:    0.0000    
               rinn:    0.0000    
               qcoe:    0.0000    
               qyuk:    0.0000    
               qwid:   0.10000E-01
                rcs:    0.0000      0.0000    
            lambdas:    1.0000      1.0000    
L=1  Nsemic=0  Cnfigmx=2
          i=1  nzeta=2  polorb=1  (2p)
            splnorm:   0.28000    
               vcte:    0.0000    
               rinn:    0.0000    
               qcoe:    0.0000    
               qyuk:    0.0000    
               qwid:   0.10000E-01
                rcs:    0.0000      0.0000    
            lambdas:    1.0000      1.0000    
-------------------------------------------------------------------------------
L=0  Nkbl=1  erefs: 0.17977+309
L=1  Nkbl=1  erefs: 0.17977+309
L=2  Nkbl=1  erefs: 0.17977+309
L=3  Nkbl=1  erefs: 0.17977+309
===============================================================================
</basis_specs>

atom: Called for O                     (Z =   8)

read_vps: Pseudopotential generation method:
read_vps: ATM4.2.7  Troullier-Martins                       
Valence charge for ps generation:    6.00000

xc_check: Exchange-correlation functional:
xc_check: GGA Perdew, Burke & Ernzerhof 1996
V l=0 = -2*Zval/r beyond r=  1.1000
V l=1 = -2*Zval/r beyond r=  1.1000
V l=2 = -2*Zval/r beyond r=  2.2154
V l=3 = -2*Zval/r beyond r=  1.1000
All V_l potentials equal beyond r=  2.2154
This should be close to max(r_c) in ps generation
All pots = -2*Zval/r beyond r=  2.2154

VLOCAL1: 99.0% of the norm of Vloc inside      8.845 Ry
VLOCAL1: 99.9% of the norm of Vloc inside     20.157 Ry
atom: Maximum radius for 4*pi*r*r*local-pseudopot. charge    2.67231
atom: Maximum radius for r*vlocal+2*Zval:    2.32897
GHOST: No ghost state for L =  0
GHOST: No ghost state for L =  1
GHOST: No ghost state for L =  2
GHOST: No ghost state for L =  3

KBgen: Kleinman-Bylander projectors: 
   l= 0   rc=  2.243238   el= -1.759686   Ekb=**********   kbcos= -0.171774
   l= 1   rc=  2.328968   el= -0.663873   Ekb=-14.506792   kbcos= -0.519897
   l= 2   rc=  2.573941   el=  0.002031   Ekb= -1.137373   kbcos= -0.019581
   l= 3   rc=  2.606321   el=  0.003153   Ekb= -1.013546   kbcos= -0.003122

KBgen: Total number of Kleinman-Bylander projectors:   16
atom: -------------------------------------------------------------------------

atom: SANKEY-TYPE ORBITALS:
atom: Selected multiple-zeta basis: split     

SPLIT: Orbitals with angular momentum L= 0

SPLIT: Basis orbitals for state 2s

SPLIT: PAO cut-off radius determined from an
SPLIT: energy shift=  0.002000 Ry

   izeta = 1
                 lambda =    1.000000
                     rc =    4.243912
                 energy =   -1.758270
                kinetic =    3.286084
    potential(screened) =   -5.044353
       potential(ionic) =  -12.921184

   izeta = 2
                 rmatch =    2.187845
              splitnorm =    0.280000
                 energy =   -0.885018
                kinetic =    8.134434
    potential(screened) =   -9.019452
       potential(ionic) =  -17.710645

SPLIT: Orbitals with angular momentum L= 1

SPLIT: Basis orbitals for state 2p

SPLIT: PAO cut-off radius determined from an
SPLIT: energy shift=  0.002000 Ry

   izeta = 1
                 lambda =    1.000000
                     rc =    5.314825
                 energy =   -0.661986
                kinetic =    4.917472
    potential(screened) =   -5.579458
       potential(ionic) =  -13.236259

   izeta = 2
                 rmatch =    2.160663
              splitnorm =    0.280000
                 energy =   -0.068760
                kinetic =    9.183374
    potential(screened) =   -9.252135
       potential(ionic) =  -18.274251

POLgen: Perturbative polarization orbital with L=  2

POLgen: Polarization orbital for state 2p

   izeta = 1
                     rc =    5.314825
                 energy =    1.970580
                kinetic =    3.886128
    potential(screened) =   -1.915547
       potential(ionic) =   -7.749584
atom: Total number of Sankey-type orbitals: 13

atm_pop: Valence configuration (for local Pseudopot. screening):
 2s( 2.00)                                                            
 2p( 4.00)                                                            
Vna: chval, zval:    6.00000   6.00000

Vna:  Cut-off radius for the neutral-atom potential:   5.314825

atom: _________________________________________________________________________

prinput: Basis input ----------------------------------------------------------

PAO.BasisType split     

%block ChemicalSpeciesLabel
    1    1 H                       # Species index, atomic number, species label
    2    7 N                       # Species index, atomic number, species label
    3   14 Si                      # Species index, atomic number, species label
    4    8 O                       # Species index, atomic number, species label
%endblock ChemicalSpeciesLabel

%block PAO.Basis                 # Define Basis set
H                     1                    # Species label, number of l-shells
 n=1   0   2 P   1                   # n, l, Nzeta, Polarization, NzetaPol
   6.518      2.141   
   1.000      1.000   
N                     2                    # Species label, number of l-shells
 n=2   0   2                         # n, l, Nzeta 
   4.730      2.532   
   1.000      1.000   
 n=2   1   2 P   1                   # n, l, Nzeta, Polarization, NzetaPol
   5.924      2.532   
   1.000      1.000   
Si                    2                    # Species label, number of l-shells
 n=3   0   2                         # n, l, Nzeta 
   6.430      3.998   
   1.000      1.000   
 n=3   1   2 P   1                   # n, l, Nzeta, Polarization, NzetaPol
   8.465      4.588   
   1.000      1.000   
O                     2                    # Species label, number of l-shells
 n=2   0   2                         # n, l, Nzeta 
   4.244      2.188   
   1.000      1.000   
 n=2   1   2 P   1                   # n, l, Nzeta, Polarization, NzetaPol
   5.315      2.161   
   1.000      1.000   
%endblock PAO.Basis

prinput: ----------------------------------------------------------------------

Dumping basis to NetCDF file H.ion.nc
Dumping basis to NetCDF file N.ion.nc
Dumping basis to NetCDF file Si.ion.nc
Dumping basis to NetCDF file O.ion.nc
coor:   Atomic-coordinates input format  =     Cartesian coordinates
coor:                                          (in Angstroms)

siesta: Atomic coordinates (Bohr) and species
siesta:      2.34735  10.74722   0.00000  1        1
siesta:      0.81726   9.47604   0.00000  2        2
siesta:     -1.78334  10.36402   0.00000  3        3
siesta:     -1.99728  12.44144   0.00000  1        4
siesta:     -3.82326   8.77084   0.00000  3        5
siesta:     -6.48232   9.73933   0.00000  3        6
siesta:     -7.03123  10.96550  -1.22284  1        7
siesta:     -7.74816   8.05820   0.59032  1        8
siesta:     -6.67007  10.85403   1.80958  1        9
siesta:     -3.45788   6.02522   0.00000  3       10
siesta:     -5.25252   4.46887   0.00000  4       11
siesta:     -0.82118   5.10906   0.00000  2       12
siesta:     -0.45359   2.99231   0.00000  1       13
siesta:      1.46305   6.70065   0.00000  3       14
siesta:      3.62261   5.88042   0.00000  4       15

siesta: System type = molecule  

initatomlists: Number of atoms, orbitals, and projectors:     15   147   198

siesta: ******************** Simulation parameters ****************************
siesta:
siesta: The following are some of the parameters of the simulation.
siesta: A complete list of the parameters used, including default values,
siesta: can be found in file out.fdf
siesta:
redata: Spin configuration                          = spin-orbit
redata: Number of spin components                   = 8
redata: Time-Reversal Symmetry                      = F
redata: Spin spiral                                 = F
############################################################
This spin-orbit implementation uses a local approximation.
From 4.2 and onwards the full non-local approximation is implemented
You are strongly advised to use >=4.2 versions!
############################################################
redata: Long output                                 =   F
redata: Number of Atomic Species                    =        4
redata: Charge density info will appear in .RHO file
redata: Write Mulliken Pop.                         = NO
redata: Matel table size (NRTAB)                    =     1024
redata: Mesh Cutoff                                 =   340.0000 Ry
redata: Net charge of the system                    =     0.0000 |e|
redata: Min. number of SCF Iter                     =        1
redata: Max. number of SCF Iter                     =      200
redata: SCF convergence failure will abort job
redata: SCF mix quantity                            = Hamiltonian
redata: Mix DM or H after convergence               =   F
redata: Recompute H after scf cycle                 =   F
redata: Mix DM in first SCF step                    =   T
redata: Write Pulay info on disk                    =   F
redata: New DM Occupancy tolerance                  = 0.000000000001
redata: No kicks to SCF
redata: DM Mixing Weight for Kicks                  =     0.5000
redata: Require Harris convergence for SCF          =   F
redata: Harris energy tolerance for SCF             =     0.000100 eV
redata: Require DM convergence for SCF              =   T
redata: DM tolerance for SCF                        =     0.000008
redata: Require EDM convergence for SCF             =   F
redata: EDM tolerance for SCF                       =     0.001000 eV
redata: Require H convergence for SCF               =   T
redata: Hamiltonian tolerance for SCF               =     0.000001 eV
redata: Require (free) Energy convergence for SCF   =   F
redata: (free) Energy tolerance for SCF             =     0.000100 eV
redata: Using Saved Data (generic)                  =   F
redata: Use continuation files for DM               =   T
redata: Neglect nonoverlap interactions             =   F
redata: Method of Calculation                       = Diagonalization
redata: Electronic Temperature                      =   299.9978 K
redata: Fix the spin of the system                  =   F
redata: Dynamics option                             = Verlet MD run
redata: Initial MD time step                        =        1
redata:   Final MD time step                        =      300
redata: Length of MD time step                      =     0.5000 fs
redata: Initial Temperature of MD run               =   100.0000 K
redata: Perform a MD quench                         =   T
mix.SCF: Pulay mixing                            = Pulay
mix.SCF:    Variant                              = stable
mix.SCF:    History steps                        = 6
mix.SCF:    Linear mixing weight                 =     0.250000
mix.SCF:    Mixing weight                        =     0.250000
mix.SCF:    SVD condition                        = 0.1000E-07
mix.SCF:    Restart steps                        = 24
mix.SCF:    Restart save steps                   = 3
mix.SCF: Spin-component mixing                   all
redata: Save all siesta data in one NC              =   F
redata: ***********************************************************************

%block SCF.Mixers
  Pulay
%endblock SCF.Mixers

%block SCF.Mixer.Pulay
  # Mixing method
  method pulay
  variant stable

  # Mixing options
  weight 0.2500
  weight.linear 0.2500
  history 6
  restart 24
  restart.save 3
%endblock SCF.Mixer.Pulay

Size of DM history Fstack: 3
Total number of electrons:    48.000000
Total ionic charge:    48.000000

* ProcessorY, Blocksize:    2  24


* Orbital distribution balance (max,min):    27    24


Time-reversal symmetry not used.

siesta: k-grid: Number of k-points =     1
siesta: k-grid: Cutoff (effective) =     5.112 Ang
siesta: k-grid: Supercell and displacements
siesta: k-grid:    1   0   0      0.000
siesta: k-grid:    0   1   0      0.000
siesta: k-grid:    0   0   1      0.000

diag: Algorithm                                     = ELPA-1stage
diag: Parallel over k                               =   F
diag: Use parallel 2D distribution                  =   T
diag: Parallel block-size                           = 24
diag: Parallel distribution                         =     2 x     3
diag: Used triangular part                          = Lower
diag: Absolute tolerance                            =  0.100E-15
diag: Orthogonalization factor                      =  0.100E-05
diag: Memory factor                                 =  1.0000


ts: **************************************************************
ts: Save H and S matrices                           =    F
ts: Save DM and EDM matrices                        =    F
ts: Only save the overlap matrix S                  =    F
ts: **************************************************************

************************ Begin: TS CHECKS AND WARNINGS ************************
************************ End: TS CHECKS AND WARNINGS **************************


                     ====================================
                        Begin MD quenched step =      1
                     ====================================

outcoor: Atomic coordinates (Ang):                          
    1.24216100    5.68718100    0.00000000   1       1  H
    0.43247700    5.01450000    0.00000000   2       2  N
   -0.94370000    5.48440100    0.00000000   3       3  Si
   -1.05691300    6.58372400    0.00000000   1       4  H
   -2.02318000    4.64132800    0.00000000   3       5  Si
   -3.43029600    5.15383000    0.00000000   3       6  Si
   -3.72076700    5.80269100   -0.64710000   1       7  H
   -4.10014900    4.26421500    0.31238500   1       8  H
   -3.52964700    5.74370200    0.95758900   1       9  H
   -1.82983300    3.18840700    0.00000000   3      10  Si
   -2.77951100    2.36482200    0.00000000   4      11  O
   -0.43455000    2.70359600    0.00000000   2      12  N
   -0.24003200    1.58346300    0.00000000   1      13  H
    0.77421100    3.54583100    0.00000000   3      14  Si
    1.91700000    3.11178400    0.00000000   4      15  O

outcell: Unit cell vectors (Ang):
       16.818328    0.000000    0.000000
        0.000000   14.230200    0.000000
        0.000000    0.000000   10.224979

outcell: Cell vector modules (Ang)   :   16.818328   14.230200   10.224979
outcell: Cell angles (23,13,12) (deg):     90.0000     90.0000     90.0000
outcell: Cell volume (Ang**3)        :   2447.1255
<dSpData1D:S at geom step 1
  <sparsity:sparsity for geom step 1
    nrows_g=147 nrows=27 sparsity=.1834 nnzs=3963, refcount: 8>
  <dData1D:(new from dSpData1D) n=3963, refcount: 1>
refcount: 1>
new_DM -- step:     1
Initializing Density Matrix...

Attempting to read DM from file... Failed...
DM filled with atomic data:
<dSpData2D:DM initialized from atoms
  <sparsity:sparsity for geom step 1
    nrows_g=147 nrows=27 sparsity=.1834 nnzs=3963, refcount: 9>
  <dData2D:DM n=3963 m=8, refcount: 1>
refcount: 1>
     spin moment: S , {S} =   26.00000   0.00000   0.00000  26.00000
No. of atoms with KB's overlaping orbs in proc 0. Max # of overlaps:      15     142

Initializing spin-orbit part of the Hamiltonian
  Adding spin-orbit effects for H 
  Adding spin-orbit effects for N 
  Adding spin-orbit effects for Si
  Adding spin-orbit effects for O 


New grid distribution:   1
           1       1:   96    1:   40    1:   20
           2       1:   96    1:   40   21:   40
           3       1:   96    1:   40   41:   60
           4       1:   96   41:   80    1:   20
           5       1:   96   41:   80   21:   40
           6       1:   96   41:   80   41:   60

InitMesh: MESH =   192 x   160 x   120 =     3686400
InitMesh: (bp) =    96 x    80 x    60 =      460800
InitMesh: Mesh cutoff (required, used) =   340.000   349.397 Ry
ExtMesh (bp) on 0 =   200 x   144 x   128 =     3686400
New grid distribution:   2
           1       1:   80    1:   20    1:   60
           2      81:   96   21:   80    1:   20
           3      81:   96    1:   20    1:   60
           4       1:   80   21:   80    1:   20
           5       1:   80   21:   80   21:   60
           6      81:   96   21:   80   21:   60
New grid distribution:   3
           1       1:   68    1:   20    1:   60
           2      69:   96   21:   80    1:   26
           3      69:   96    1:   20    1:   60
           4       1:   68   21:   80    1:   24
           5      69:   96   21:   80   27:   60
           6       1:   68   21:   80   25:   60
Setting up quadratic distribution...
ExtMesh (bp) on 0 =   184 x   124 x   168 =     3833088
PhiOnMesh: Number of (b)points on node 0 =                96000
PhiOnMesh: nlist on node 0 =              1019727

stepf: Fermi-Dirac step function

siesta: Program's energy decomposition (eV):
siesta: Ebs     =      -328.961091
siesta: Eions   =      1908.291957
siesta: Ena     =       231.642408
siesta: Ekin    =      1905.876643
siesta: Enl     =     -1573.332635
siesta: Eso     =        -0.008040
siesta: Edftu   =         0.000000
siesta: DEna    =       -12.558588
siesta: DUscf   =        56.138348
siesta: DUext   =         0.000000
siesta: Exc     =      -643.782595
siesta: eta*DQ  =         0.000000
siesta: Emadel  =         0.000000
siesta: Emeta   =         0.000000
siesta: Emolmec =         0.000000
siesta: Ekinion =         0.000000
siesta: Eharris =     -1861.735161
siesta: Etot    =     -1944.316416
siesta: FreeEng =     -1944.316416

        iscf     Eharris(eV)        E_KS(eV)     FreeEng(eV)     dDmax    Ef(eV) dHmax(eV)
   scf:    1    -1861.735161    -1944.316416    -1944.316416  0.939437 -8.373250 24.774183
     spin moment: S , {S} =    0.00009   0.00005   0.00006   0.00004
timer: Routine,Calls,Time,% = IterSCF        1       2.977  15.35
   scf:    2    -1974.857227    -1961.636737    -1961.636737  0.118620 -6.936270 10.454916
     spin moment: S , {S} =    0.00007   0.00004   0.00004   0.00004
   scf:    3    -1967.846931    -1966.325910    -1966.325910  0.148265 -5.147467  4.357492
     spin moment: S , {S} =    0.00005   0.00003   0.00002   0.00003
   scf:    4    -1966.572809    -1966.638061    -1966.638061  0.041696 -5.221921  2.556343
     spin moment: S , {S} =    0.00003   0.00002   0.00001   0.00001
   scf:    5    -1966.370948    -1966.653068    -1966.653068  0.048058 -4.640370  2.763693
     spin moment: S , {S} =    0.00002   0.00002   0.00001   0.00001
   scf:    6    -1966.918695    -1966.816980    -1966.816980  0.022812 -4.697507  0.673427
     spin moment: S , {S} =    0.00001   0.00001   0.00001   0.00000
   scf:    7    -1966.848996    -1966.832876    -1966.832876  0.010349 -4.627848  0.245761
     spin moment: S , {S} =    0.00001   0.00000   0.00000   0.00000
   scf:    8    -1966.838466    -1966.836131    -1966.836131  0.004517 -4.658399  0.105065
     spin moment: S , {S} =    0.00000   0.00000   0.00000   0.00000
   scf:    9    -1966.837100    -1966.836657    -1966.836657  0.001081 -4.651534  0.033690
     spin moment: S , {S} =    0.00000   0.00000   0.00000   0.00000
   scf:   10    -1966.837150    -1966.836892    -1966.836892  0.001119 -4.651855  0.020231
     spin moment: S , {S} =    0.00000   0.00000   0.00000   0.00000
   scf:   11    -1966.837166    -1966.837014    -1966.837014  0.001286 -4.651995  0.004045
     spin moment: S , {S} =    0.00000   0.00000   0.00000   0.00000
   scf:   12    -1966.837024    -1966.837018    -1966.837018  0.000212 -4.651326  0.001969
     spin moment: S , {S} =    0.00000   0.00000   0.00000   0.00000
   scf:   13    -1966.837020    -1966.837019    -1966.837019  0.000102 -4.650812  0.000926
     spin moment: S , {S} =    0.00000   0.00000   0.00000  -0.00000
   scf:   14    -1966.837019    -1966.837019    -1966.837019  0.000030 -4.650741  0.000721
     spin moment: S , {S} =    0.00000   0.00000   0.00000  -0.00000
   scf:   15    -1966.837019    -1966.837019    -1966.837019  0.000046 -4.650715  0.000306
     spin moment: S , {S} =    0.00000   0.00000   0.00000  -0.00000
   scf:   16    -1966.837019    -1966.837019    -1966.837019  0.000021 -4.650711  0.000083
     spin moment: S , {S} =    0.00000  -0.00000   0.00000  -0.00000
   scf:   17    -1966.837019    -1966.837019    -1966.837019  0.000005 -4.650719  0.000041
     spin moment: S , {S} =    0.00000  -0.00000   0.00000  -0.00000
   scf:   18    -1966.837019    -1966.837019    -1966.837019  0.000004 -4.650724  0.000024
     spin moment: S , {S} =    0.00000  -0.00000   0.00000   0.00000
   scf:   19    -1966.837019    -1966.837019    -1966.837019  0.000001 -4.650723  0.000015
     spin moment: S , {S} =    0.00000  -0.00000  -0.00000   0.00000
   scf:   20    -1966.837019    -1966.837019    -1966.837019  0.000001 -4.650722  0.000006
     spin moment: S , {S} =    0.00000  -0.00000  -0.00000  -0.00000
   scf:   21    -1966.837019    -1966.837019    -1966.837019  0.000001 -4.650721  0.000002
     spin moment: S , {S} =    0.00000  -0.00000  -0.00000  -0.00000
   scf:   22    -1966.837019    -1966.837019    -1966.837019  0.000000 -4.650721  0.000001
     spin moment: S , {S} =    0.00000   0.00000  -0.00000  -0.00000
   scf:   23    -1966.837019    -1966.837019    -1966.837019  0.000000 -4.650721  0.000001
     spin moment: S , {S} =    0.00000   0.00000  -0.00000  -0.00000

SCF Convergence by DM+H criterion
max |DM_out - DM_in|         :     0.0000000902
max |H_out - H_in|      (eV) :     0.0000006716
SCF cycle converged after 23 iterations

Using DM_out to compute the final energy and forces
No. of atoms with KB's overlaping orbs in proc 0. Max # of overlaps:      15     142

siesta: E_KS(eV) =            -1966.8370

siesta: E_KS - E_eggbox =     -1966.8370
     spin moment: S , {S} =    0.00000   0.00000  -0.00000  -0.00000

siesta: Atomic forces (eV/Ang):
     1    0.309975   -0.075654    0.026045
     2   12.718160    6.550209    0.029970
     3   39.172701   30.370954   -0.188368
     4   -0.230025   16.370158   -0.003592
     5  -18.228561   -6.519397   -0.122818
     6  -24.867261   -4.177927    8.576888
     7  -10.583732   21.887819  -22.992938
     8   -8.324378   -9.192673    2.590573
     9   -1.249122    7.824401   12.296317
    10   18.902558  -23.867599   -0.256868
    11  -29.335719  -21.168973    0.025396
    12    3.111163  -14.046725    0.038365
    13   -0.404656    2.227582    0.027649
    14  -24.102588   10.498952   -0.031241
    15   41.497141  -14.518329    0.003221
----------------------------------------
   Tot   -1.614345    2.162799    0.018600
----------------------------------------
   Max   41.497141
   Res   15.333336    sqrt( Sum f_i^2 / 3N )
----------------------------------------
   Max   41.497141    constrained

Stress tensor Voigt[x,y,z,yz,xz,xy] (kbar):     -172.20     -140.29      -18.37        6.25       -2.00       -3.82
(Free)E + p*V (eV/cell)    -1798.3885
Target enthalpy (eV/cell)    -1966.8370

siesta: Stress tensor (static) (eV/Ang**3):
        -0.107446   -0.002388   -0.001243
        -0.002388   -0.087515    0.003921
        -0.001243    0.003921   -0.011398

siesta: Pressure (static):        110.20904658  kBar

siesta: Stress tensor (total) (eV/Ang**3):
        -0.107480   -0.002386   -0.001251
        -0.002386   -0.087563    0.003900
        -0.001251    0.003900   -0.011463

siesta: Pressure (total):        110.28746167  kBar

siesta: Temp_ion =      72.358 K

                     ====================================
                        Begin MD quenched step =      2
                     ====================================

outcoor: Atomic coordinates (Ang):                          
    1.24771562    5.67833193    0.00236823   1       1  H
    0.43356397    5.01557804    0.00000256   2       2  N
   -0.94139909    5.48569561   -0.00086744   3       3  Si
   -1.05824790    6.60706491   -0.00000426   1       4  H
   -2.02442128    4.64105010   -0.00128302   3       5  Si
   -3.43204000    5.15365191    0.00267327   3       6  Si
   -3.73331427    5.83432102   -0.67435869   1       7  H
   -4.11413461    4.24900514    0.31545619   1       8  H
   -3.53112787    5.75297802    0.97216659   1       9  H
   -1.82814278    3.18738961   -0.00001095   3      10  Si
   -2.78170637    2.36323779    0.00008395   4      11  O
   -0.43285029    2.70164835    0.00114803   2      12  N
   -0.24127389    1.58765153    0.00025793   1      13  H
    0.77182592    3.54627853   -0.00123679   3      14  Si
    1.92010549    3.11012552    0.00028706   4      15  O

outcell: Unit cell vectors (Ang):
       16.818328    0.000000    0.000000
        0.000000   14.230200    0.000000
        0.000000    0.000000   10.224979

outcell: Cell vector modules (Ang)   :   16.818328   14.230200   10.224979
outcell: Cell angles (23,13,12) (deg):     90.0000     90.0000     90.0000
outcell: Cell volume (Ang**3)        :   2447.1255
<dSpData1D:S at geom step 2
  <sparsity:sparsity for geom step 2
    nrows_g=147 nrows=27 sparsity=.1834 nnzs=3963, refcount: 8>
  <dData1D:(new from dSpData1D) n=3963, refcount: 1>
refcount: 1>
new_DM -- step:     2
Re-using DM from previous geometries...
Number of DMs in history: 1
 DM extrapolation coefficients: 
1   1.00000
New DM after history re-use:
<dSpData2D:SpM extrapolated using coords
  <sparsity:sparsity for geom step 2
    nrows_g=147 nrows=27 sparsity=.1834 nnzs=3963, refcount: 10>
  <dData2D:(temp array for extrapolation) n=3963 m=8, refcount: 1>
refcount: 1>
     spin moment: S , {S} =    0.00000   0.00000  -0.00000   0.00000
Note: For starting DM, Qtot, Tr[D*S] =         48.00000000         48.06622708
No. of atoms with KB's overlaping orbs in proc 0. Max # of overlaps:      15     142
New grid distribution:   1
           1       1:   96    1:   40    1:   20
           2       1:   96    1:   40   21:   40
           3       1:   96    1:   40   41:   60
           4       1:   96   41:   80    1:   20
           5       1:   96   41:   80   21:   40
           6       1:   96   41:   80   41:   60

InitMesh: MESH =   192 x   160 x   120 =     3686400
InitMesh: (bp) =    96 x    80 x    60 =      460800
InitMesh: Mesh cutoff (required, used) =   340.000   349.397 Ry
ExtMesh (bp) on 0 =   200 x   144 x   128 =     3686400
New grid distribution:   2
           1       1:   80    1:   20    1:   60
           2      81:   96   21:   80    1:   21
           3      81:   96    1:   20    1:   60
           4       1:   80   21:   80    1:   20
           5       1:   80   21:   80   21:   60
           6      81:   96   21:   80   22:   60
New grid distribution:   3
           1       1:   68    1:   20    1:   60
           2      69:   96   21:   80    1:   26
           3      69:   96    1:   20    1:   60
           4       1:   68   21:   80    1:   24
           5      69:   96   21:   80   27:   60
           6       1:   68   21:   80   25:   60
Setting up quadratic distribution...
ExtMesh (bp) on 0 =   184 x   124 x   168 =     3833088
PhiOnMesh: Number of (b)points on node 0 =                96000
PhiOnMesh: nlist on node 0 =              1019971

        iscf     Eharris(eV)        E_KS(eV)     FreeEng(eV)     dDmax    Ef(eV) dHmax(eV)
   scf:    1    -1969.832852    -1969.597704    -1969.597704  0.036164 -4.779841  1.282453
     spin moment: S , {S} =    0.00000   0.00000  -0.00000  -0.00000
   scf:    2    -1969.091882    -1969.471801    -1969.471801  0.026952 -4.294844  1.545800
     spin moment: S , {S} =    0.00000  -0.00000  -0.00000  -0.00000
   scf:    3    -1969.696550    -1969.642176    -1969.642176  0.016773 -4.610582  0.181909
     spin moment: S , {S} =    0.00000   0.00000  -0.00000  -0.00000
   scf:    4    -1969.642811    -1969.642528    -1969.642528  0.001805 -4.607955  0.061676
     spin moment: S , {S} =    0.00000   0.00000  -0.00000  -0.00000
   scf:    5    -1969.642635    -1969.642589    -1969.642589  0.000901 -4.608774  0.013189
     spin moment: S , {S} =    0.00000   0.00000  -0.00000  -0.00000
   scf:    6    -1969.642599    -1969.642594    -1969.642594  0.000299 -4.608668  0.002293
     spin moment: S , {S} =    0.00000   0.00000  -0.00000  -0.00000
   scf:    7    -1969.642596    -1969.642595    -1969.642595  0.000126 -4.608451  0.000342
     spin moment: S , {S} =    0.00000   0.00000  -0.00000  -0.00000
   scf:    8    -1969.642595    -1969.642595    -1969.642595  0.000022 -4.608411  0.000190
     spin moment: S , {S} =    0.00000   0.00000  -0.00000  -0.00000
   scf:    9    -1969.642595    -1969.642595    -1969.642595  0.000011 -4.608377  0.000095
     spin moment: S , {S} =    0.00000   0.00000  -0.00000  -0.00000
   scf:   10    -1969.642595    -1969.642595    -1969.642595  0.000008 -4.608345  0.000020
     spin moment: S , {S} =    0.00000   0.00000  -0.00000  -0.00000
   scf:   11    -1969.642595    -1969.642595    -1969.642595  0.000003 -4.608337  0.000014
     spin moment: S , {S} =    0.00000   0.00000  -0.00000  -0.00000
   scf:   12    -1969.642595    -1969.642595    -1969.642595  0.000001 -4.608336  0.000007
     spin moment: S , {S} =    0.00000   0.00000  -0.00000  -0.00000
   scf:   13    -1969.642595    -1969.642595    -1969.642595  0.000001 -4.608336  0.000001
     spin moment: S , {S} =    0.00000   0.00000  -0.00000  -0.00000
   scf:   14    -1969.642595    -1969.642595    -1969.642595  0.000000 -4.608336  0.000000
     spin moment: S , {S} =    0.00000   0.00000  -0.00000  -0.00000

SCF Convergence by DM+H criterion
max |DM_out - DM_in|         :     0.0000001547
max |H_out - H_in|      (eV) :     0.0000003937
SCF cycle converged after 14 iterations

Using DM_out to compute the final energy and forces
No. of atoms with KB's overlaping orbs in proc 0. Max # of overlaps:      15     142

siesta: E_KS(eV) =            -1969.6426
     spin moment: S , {S} =    0.00000   0.00000  -0.00000  -0.00000

siesta: Atomic forces (eV/Ang):
     1    0.418632    0.028917    0.015326
     2   12.702519    6.449789    0.040511
     3   38.384827   31.616268   -0.177389
     4   -0.360488   14.602035    0.005781
     5  -17.756777   -6.194751   -0.323117
     6  -27.666528   -0.165309    5.446804
     7   -8.531538   17.561315  -18.474982
     8   -7.576152   -8.218573    2.260384
     9   -1.165101    7.277010   11.373396
    10   18.472829  -24.137263   -0.216908
    11  -28.838035  -21.076687    0.007128
    12    2.914537  -13.999783    0.055234
    13   -0.382364    2.087673    0.030384
    14  -22.532279    9.994497   -0.082742
    15   39.529222  -13.570746   -0.017751
----------------------------------------
   Tot   -2.386698    2.254392   -0.057942
----------------------------------------
   Max   39.529222
   Res   14.785670    sqrt( Sum f_i^2 / 3N )
----------------------------------------
   Max   39.529222    constrained

Stress tensor Voigt[x,y,z,yz,xz,xy] (kbar):     -170.17     -136.48      -16.23        4.88       -1.41       -4.16
(Free)E + p*V (eV/cell)    -1805.2586
Target enthalpy (eV/cell)    -1969.6426

siesta: Stress tensor (static) (eV/Ang**3):
        -0.106179   -0.002602   -0.000873
        -0.002602   -0.085156    0.003042
        -0.000873    0.003042   -0.010082

siesta: Pressure (static):        107.56952837  kBar

siesta: Stress tensor (total) (eV/Ang**3):
        -0.106210   -0.002594   -0.000880
        -0.002594   -0.085183    0.003048
        -0.000880    0.003048   -0.010130

siesta: Pressure (total):        107.62626772  kBar

siesta: Temp_ion =    1531.203 K

                     ====================================
                        Begin MD quenched step =      3
                     ====================================

outcoor: Atomic coordinates (Ang):                          
    1.25426284    5.67836621    0.00477279   1       1  H
    0.43682221    5.01775855    0.00001205   2       2  N
   -0.93582575    5.48968560   -0.00174999   3       3  Si
   -1.06043753    6.66502796    0.00000519   1       4  H
   -2.02717638    4.64024408   -0.00259358   3       5  Si
   -3.43614266    5.15345973    0.00581089   3       6  Si
   -3.76609025    5.90758978   -0.74542247   1       7  H
   -4.14608364    4.21430864    0.32388686   1       8  H
   -3.53537124    5.77950819    1.01371105   1       9  H
   -1.82487770    3.18431444   -0.00004039   3      10  Si
   -2.78821801    2.35849899    0.00016897   4      11  O
   -0.43065239    2.69730769    0.00230549   2      12  N
   -0.24342239    1.59679004    0.00058791   1      13  H
    0.76751990    3.54757813   -0.00248063   3      14  Si
    1.92912742    3.10643588    0.00028573   4      15  O

outcell: Unit cell vectors (Ang):
       16.818328    0.000000    0.000000
        0.000000   14.230200    0.000000
        0.000000    0.000000   10.224979

outcell: Cell vector modules (Ang)   :   16.818328   14.230200   10.224979
outcell: Cell angles (23,13,12) (deg):     90.0000     90.0000     90.0000
outcell: Cell volume (Ang**3)        :   2447.1255
<dSpData1D:S at geom step 3
  <sparsity:sparsity for geom step 3
    nrows_g=147 nrows=27 sparsity=.1834 nnzs=3963, refcount: 8>
  <dData1D:(new from dSpData1D) n=3963, refcount: 1>
refcount: 1>
new_DM -- step:     3
Re-using DM from previous geometries...
Number of DMs in history: 2
  Estimated Rank of xi*xj matrix:            2
 matrix rank:            3
Singular values: 
  1.5220      1.3148     0.60336E-02
 DM extrapolation coefficients: 
1  -2.39528
2   3.39528
New DM after history re-use:
<dSpData2D:SpM extrapolated using coords
  <sparsity:sparsity for geom step 3
    nrows_g=147 nrows=27 sparsity=.1834 nnzs=3963, refcount: 11>
  <dData2D:(temp array for extrapolation) n=3963 m=8, refcount: 1>
refcount: 1>
     spin moment: S , {S} =    0.00000   0.00000   0.00000  -0.00000
Note: For starting DM, Qtot, Tr[D*S] =         48.00000000         47.93905027
No. of atoms with KB's overlaping orbs in proc 0. Max # of overlaps:      15     142
New grid distribution:   1
           1       1:   96    1:   40    1:   20
           2       1:   96    1:   40   21:   40
           3       1:   96    1:   40   41:   60
           4       1:   96   41:   80    1:   20
           5       1:   96   41:   80   21:   40
           6       1:   96   41:   80   41:   60

InitMesh: MESH =   192 x   160 x   120 =     3686400
InitMesh: (bp) =    96 x    80 x    60 =      460800
InitMesh: Mesh cutoff (required, used) =   340.000   349.397 Ry
ExtMesh (bp) on 0 =   200 x   144 x   128 =     3686400
New grid distribution:   2
           1       1:   80    1:   20    1:   60
           2      81:   96   21:   80    1:   21
           3      81:   96    1:   20    1:   60
           4       1:   80   21:   80    1:   20
           5       1:   80   21:   80   21:   60
           6      81:   96   21:   80   22:   60
New grid distribution:   3
           1       1:   68    1:   20    1:   60
           2      69:   96   21:   80    1:   26
           3      69:   96    1:   20    1:   60
           4       1:   68   21:   80    1:   24
           5      69:   96   21:   80   27:   60
           6       1:   68   21:   80   25:   60
Setting up quadratic distribution...
ExtMesh (bp) on 0 =   184 x   124 x   168 =     3833088
PhiOnMesh: Number of (b)points on node 0 =                96000
PhiOnMesh: nlist on node 0 =              1020489

        iscf     Eharris(eV)        E_KS(eV)     FreeEng(eV)     dDmax    Ef(eV) dHmax(eV)
   scf:    1    -1974.963119    -1975.223393    -1975.223393  0.037360 -4.353853  0.818935
     spin moment: S , {S} =    0.00000   0.00000   0.00000   0.00000
   scf:    2    -1974.763892    -1975.106554    -1975.106554  0.027132 -4.886483  1.855110
     spin moment: S , {S} =    0.00000   0.00000  -0.00000  -0.00000
   scf:    3    -1975.308684    -1975.259646    -1975.259646  0.018719 -4.544412  0.096028
     spin moment: S , {S} =    0.00000   0.00000  -0.00000   0.00000
   scf:    4    -1975.259949    -1975.259813    -1975.259813  0.001136 -4.550777  0.041945
     spin moment: S , {S} =    0.00000   0.00000  -0.00000   0.00000
   scf:    5    -1975.259882    -1975.259855    -1975.259855  0.000947 -4.554621  0.002264
     spin moment: S , {S} =    0.00000   0.00000  -0.00000   0.00000
   scf:    6    -1975.259858    -1975.259857    -1975.259857  0.000112 -4.554754  0.001344
     spin moment: S , {S} =    0.00000   0.00000  -0.00000   0.00000
   scf:    7    -1975.259857    -1975.259857    -1975.259857  0.000085 -4.555034  0.000463
     spin moment: S , {S} =    0.00000   0.00000  -0.00000   0.00000
   scf:    8    -1975.259857    -1975.259857    -1975.259857  0.000030 -4.555115  0.000125
     spin moment: S , {S} =    0.00000   0.00000  -0.00000   0.00000
   scf:    9    -1975.259857    -1975.259857    -1975.259857  0.000010 -4.555140  0.000097
     spin moment: S , {S} =    0.00000   0.00000  -0.00000   0.00000
   scf:   10    -1975.259857    -1975.259857    -1975.259857  0.000007 -4.555152  0.000053
     spin moment: S , {S} =    0.00000   0.00000  -0.00000   0.00000
   scf:   11    -1975.259857    -1975.259857    -1975.259857  0.000002 -4.555151  0.000008
     spin moment: S , {S} =    0.00000   0.00000  -0.00000   0.00000
   scf:   12    -1975.259857    -1975.259857    -1975.259857  0.000001 -4.555149  0.000005
     spin moment: S , {S} =    0.00000   0.00000  -0.00000   0.00000
   scf:   13    -1975.259857    -1975.259857    -1975.259857  0.000001 -4.555148  0.000002
     spin moment: S , {S} =    0.00000   0.00000  -0.00000   0.00000
   scf:   14    -1975.259857    -1975.259857    -1975.259857  0.000000 -4.555148  0.000000
     spin moment: S , {S} =    0.00000   0.00000  -0.00000   0.00000

SCF Convergence by DM+H criterion
max |DM_out - DM_in|         :     0.0000002897
max |H_out - H_in|      (eV) :     0.0000003079
SCF cycle converged after 14 iterations

Using DM_out to compute the final energy and forces
No. of atoms with KB's overlaping orbs in proc 0. Max # of overlaps:      15     142

siesta: E_KS(eV) =            -1975.2599
     spin moment: S , {S} =    0.00000   0.00000  -0.00000   0.00000

siesta: Atomic forces (eV/Ang):
     1    0.401049   -0.031299    0.010023
     2   12.771970    6.496234    0.053359
     3   36.471302   33.961858   -0.162784
     4    0.072792   11.254194    0.009295
     5  -16.502700   -5.443863   -0.543195
     6  -32.604060    6.919809    1.105635
     7   -5.046141    9.995555  -10.853323
     8   -6.067360   -6.402340    1.586066
     9   -0.900833    5.729278    8.891449
    10   17.270251  -24.744517   -0.174344
    11  -27.043106  -21.024999   -0.014417
    12    2.726871  -13.810403    0.074077
    13   -0.337525    1.737933    0.031258
    14  -19.042032    8.769014   -0.120583
    15   34.333703  -11.502975    0.006157
----------------------------------------
   Tot   -3.495821    1.903479   -0.101327
----------------------------------------
   Max   36.471302
   Res   13.906211    sqrt( Sum f_i^2 / 3N )
----------------------------------------
   Max   36.471302    constrained

Stress tensor Voigt[x,y,z,yz,xz,xy] (kbar):     -166.24     -129.87      -12.78        3.14       -0.64       -4.18
(Free)E + p*V (eV/cell)    -1817.9990
Target enthalpy (eV/cell)    -1975.2599

siesta: Stress tensor (static) (eV/Ang**3):
        -0.103184   -0.002728   -0.000263
        -0.002728   -0.079998    0.001556
        -0.000263    0.001556   -0.007360

siesta: Pressure (static):        101.76189021  kBar

siesta: Stress tensor (total) (eV/Ang**3):
        -0.103758   -0.002606   -0.000399
        -0.002606   -0.081055    0.001960
        -0.000399    0.001960   -0.007978

siesta: Pressure (total):        102.96258443  kBar

siesta: Temp_ion =    4548.733 K

                     ====================================
                        Begin MD quenched step =      4
                     ====================================

outcoor: Atomic coordinates (Ang):                          
    1.26176097    5.67832629    0.00720112   1       1  H
    0.44226359    5.02104947    0.00003065   2       2  N
   -0.92714312    5.49657095   -0.00264643   3       3  Si
   -1.06035123    6.74967526    0.00003668   1       4  H
   -2.03133839    4.63897395   -0.00395046   3       5  Si
   -3.44302491    5.15385748    0.00904278   3       6  Si
   -3.81083086    6.00455849   -0.84222002   1       7  H
   -4.19241868    4.16443188    0.33607816   1       8  H
   -3.54175054    5.81962275    1.07633758   1       9  H
   -1.82014027    3.17912972   -0.00008470   3      10  Si
   -2.79877725    2.35061332    0.00016789   4      11  O
   -0.42798838    2.69060639    0.00347562   2      12  N
   -0.24637118    1.61004927    0.00099200   1      13  H
    0.76159048    3.54962531   -0.00373476   3      14  Si
    1.94328815    3.10102456    0.00028620   4      15  O

outcell: Unit cell vectors (Ang):
       16.818328    0.000000    0.000000
        0.000000   14.230200    0.000000
        0.000000    0.000000   10.224979

outcell: Cell vector modules (Ang)   :   16.818328   14.230200   10.224979
outcell: Cell angles (23,13,12) (deg):     90.0000     90.0000     90.0000
outcell: Cell volume (Ang**3)        :   2447.1255
<dSpData1D:S at geom step 4
  <sparsity:sparsity for geom step 4
    nrows_g=147 nrows=27 sparsity=.1834 nnzs=3963, refcount: 8>
  <dData1D:(new from dSpData1D) n=3963, refcount: 1>
refcount: 1>
new_DM -- step:     4
Re-using DM from previous geometries...
Number of DMs in history: 3
  Estimated Rank of xi*xj matrix:            3
 matrix rank:            4
Singular values: 
  2.3510      1.3084     0.73117E-01 0.12745E-03
 DM extrapolation coefficients: 
1   0.26954
2  -1.77642
3   2.50687
New DM after history re-use:
<dSpData2D:SpM extrapolated using coords
  <sparsity:sparsity for geom step 4
    nrows_g=147 nrows=27 sparsity=.1834 nnzs=3963, refcount: 12>
  <dData2D:(temp array for extrapolation) n=3963 m=8, refcount: 1>
refcount: 1>
     spin moment: S , {S} =    0.00000   0.00000   0.00000   0.00000
Note: For starting DM, Qtot, Tr[D*S] =         48.00000000         47.84515655
No. of atoms with KB's overlaping orbs in proc 0. Max # of overlaps:      15     142
New grid distribution:   1
           1       1:   96    1:   40    1:   20
           2       1:   96    1:   40   21:   40
           3       1:   96    1:   40   41:   60
           4       1:   96   41:   80    1:   20
           5       1:   96   41:   80   21:   40
           6       1:   96   41:   80   41:   60

InitMesh: MESH =   192 x   160 x   120 =     3686400
InitMesh: (bp) =    96 x    80 x    60 =      460800
InitMesh: Mesh cutoff (required, used) =   340.000   349.397 Ry
ExtMesh (bp) on 0 =   200 x   144 x   128 =     3686400
New grid distribution:   2
           1       1:   80    1:   20    1:   60
           2      81:   96   21:   80    1:   21
           3      81:   96    1:   20    1:   60
           4       1:   80   21:   80    1:   20
           5       1:   80   21:   80   21:   60
           6      81:   96   21:   80   22:   60
New grid distribution:   3
           1       1:   68    1:   20    1:   60
           2      69:   96   21:   80    1:   26
           3      69:   96    1:   20    1:   60
           4       1:   68   21:   80    1:   24
           5      69:   96   21:   80   27:   60
           6       1:   68   21:   80   25:   60
Setting up quadratic distribution...
ExtMesh (bp) on 0 =   184 x   124 x   168 =     3833088
PhiOnMesh: Number of (b)points on node 0 =                96000
PhiOnMesh: nlist on node 0 =              1021314

        iscf     Eharris(eV)        E_KS(eV)     FreeEng(eV)     dDmax    Ef(eV) dHmax(eV)
   scf:    1    -1979.476145    -1980.771408    -1980.771408  0.059634 -3.966032  2.707514
     spin moment: S , {S} =    0.00000   0.00000   0.00000   0.00000
   scf:    2    -1977.217058    -1979.886935    -1979.886935  0.073086 -5.433720  4.743228
     spin moment: S , {S} =    0.00000   0.00000   0.00000  -0.00000
   scf:    3    -1981.480691    -1981.077108    -1981.077108  0.050917 -4.482807  0.332608
     spin moment: S , {S} =    0.00000   0.00000   0.00000   0.00000
   scf:    4    -1981.080149    -1981.078912    -1981.078912  0.004056 -4.485004  0.150646
     spin moment: S , {S} =    0.00000   0.00000   0.00000   0.00000
   scf:    5    -1981.079438    -1981.079233    -1981.079233  0.002666 -4.492645  0.018600
     spin moment: S , {S} =    0.00000   0.00000   0.00000   0.00000
   scf:    6    -1981.079260    -1981.079250    -1981.079250  0.000492 -4.492630  0.005053
     spin moment: S , {S} =    0.00000   0.00000   0.00000   0.00000
   scf:    7    -1981.079257    -1981.079254    -1981.079254  0.000228 -4.493744  0.001940
     spin moment: S , {S} =    0.00000   0.00000   0.00000   0.00000
   scf:    8    -1981.079255    -1981.079255    -1981.079255  0.000048 -4.493820  0.000390
     spin moment: S , {S} =    0.00000   0.00000   0.00000   0.00000
   scf:    9    -1981.079255    -1981.079255    -1981.079255  0.000011 -4.493878  0.000245
     spin moment: S , {S} =    0.00000   0.00000   0.00000   0.00000
   scf:   10    -1981.079255    -1981.079255    -1981.079255  0.000013 -4.493929  0.000149
     spin moment: S , {S} =    0.00000   0.00000   0.00000   0.00000
   scf:   11    -1981.079255    -1981.079255    -1981.079255  0.000005 -4.493947  0.000025
     spin moment: S , {S} =    0.00000   0.00000   0.00000   0.00000
   scf:   12    -1981.079255    -1981.079255    -1981.079255  0.000001 -4.493950  0.000016
     spin moment: S , {S} =    0.00000   0.00000   0.00000   0.00000
   scf:   13    -1981.079255    -1981.079255    -1981.079255  0.000001 -4.493950  0.000003
     spin moment: S , {S} =    0.00000   0.00000   0.00000   0.00000
   scf:   14    -1981.079255    -1981.079255    -1981.079255  0.000000 -4.493949  0.000002
     spin moment: S , {S} =    0.00000   0.00000   0.00000   0.00000
   scf:   15    -1981.079255    -1981.079255    -1981.079255  0.000000 -4.493949  0.000001
     spin moment: S , {S} =    0.00000   0.00000   0.00000   0.00000
   scf:   16    -1981.079255    -1981.079255    -1981.079255  0.000000 -4.493949  0.000001
     spin moment: S , {S} =    0.00000   0.00000   0.00000   0.00000
   scf:   17    -1981.079255    -1981.079255    -1981.079255  0.000000 -4.493949  0.000000
     spin moment: S , {S} =    0.00000   0.00000   0.00000   0.00000

SCF Convergence by DM+H criterion
max |DM_out - DM_in|         :     0.0000002477
max |H_out - H_in|      (eV) :     0.0000003618
SCF cycle converged after 17 iterations

Using DM_out to compute the final energy and forces
No. of atoms with KB's overlaping orbs in proc 0. Max # of overlaps:      15     142

siesta: E_KS(eV) =            -1981.0793
     spin moment: S , {S} =    0.00000   0.00000   0.00000   0.00000

siesta: Atomic forces (eV/Ang):
     1    0.447392   -0.056091    0.007464
     2   12.776437    6.511562    0.067264
     3   33.661050   35.932202   -0.144145
     4    0.319228    7.372657    0.007227
     5  -14.630421   -4.281855   -0.768436
     6  -36.739623   12.104737   -0.870590
     7   -2.455364    4.361531   -4.984244
     8   -4.451024   -4.044198    0.901257
     9   -0.725382    3.880265    5.854865
    10   15.415558  -25.558897   -0.131950
    11  -22.902166  -20.816423   -0.016943
    12    2.545426  -13.436284    0.096501
    13   -0.209529    1.115974    0.031010
    14  -14.365992    7.069677   -0.149374
    15   27.757262   -8.715327    0.016151
----------------------------------------
   Tot   -3.557149    1.439531   -0.083943
----------------------------------------
   Max   36.739623
   Res   13.073445    sqrt( Sum f_i^2 / 3N )
----------------------------------------
   Max   36.739623    constrained

Stress tensor Voigt[x,y,z,yz,xz,xy] (kbar):     -161.40     -123.65      -10.15        2.27       -0.30       -3.46
(Free)E + p*V (eV/cell)    -1830.7850
Target enthalpy (eV/cell)    -1981.0793

siesta: Stress tensor (static) (eV/Ang**3):
        -0.098941   -0.002399    0.000199
        -0.002399   -0.074053    0.000378
         0.000199    0.000378   -0.004577

siesta: Pressure (static):         94.83449916  kBar

siesta: Stress tensor (total) (eV/Ang**3):
        -0.100738   -0.002162   -0.000189
        -0.002162   -0.077175    0.001416
        -0.000189    0.001416   -0.006337

siesta: Pressure (total):         98.40139251  kBar

siesta: Temp_ion =    7717.061 K

                     ====================================
                        Begin MD quenched step =      5
                     ====================================

outcoor: Atomic coordinates (Ang):                          
    1.27031988    5.67815336    0.00964714   1       1  H
    0.44988888    5.02545344    0.00006076   2       2  N
   -0.91559079    5.50651963   -0.00355515   3       3  Si
   -1.05950803    6.85180349    0.00008530   1       4  H
   -2.03674768    4.63733878   -0.00537284   3       5  Si
   -3.45303933    5.15528720    0.00900567   3       6  Si
   -3.86139327    6.11186861   -0.95083545   1       7  H
   -4.24930732    4.10496613    0.35040640   1       8  H
   -3.54984976    5.86893762    1.15284628   1       9  H
   -1.81408862    3.17176603   -0.00014025   3      10  Si
   -2.81276432    2.33961200    0.00016428   4      11  O
   -0.42488928    2.68160839    0.00466225   2      12  N
   -0.24981677    1.62595454    0.00146961   1      13  H
    0.75443632    3.55227521   -0.00500162   3      14  Si
    1.96160339    3.09430879    0.00028907   4      15  O

outcell: Unit cell vectors (Ang):
       16.818328    0.000000    0.000000
        0.000000   14.230200    0.000000
        0.000000    0.000000   10.224979

outcell: Cell vector modules (Ang)   :   16.818328   14.230200   10.224979
outcell: Cell angles (23,13,12) (deg):     90.0000     90.0000     90.0000
outcell: Cell volume (Ang**3)        :   2447.1255
<dSpData1D:S at geom step 5
  <sparsity:sparsity for geom step 5
    nrows_g=147 nrows=27 sparsity=.1833 nnzs=3962, refcount: 8>
  <dData1D:(new from dSpData1D) n=3962, refcount: 1>
refcount: 1>
new_DM -- step:     5
Re-using DM from previous geometries...
Number of DMs in history: 3
  Estimated Rank of xi*xj matrix:            3
 matrix rank:            4
Singular values: 
  2.9543      1.1306     0.18694     0.46774E-04
 DM extrapolation coefficients: 
1   1.38724
2  -3.53989
3   3.15266
New DM after history re-use:
<dSpData2D:SpM extrapolated using coords
  <sparsity:sparsity for geom step 5
    nrows_g=147 nrows=27 sparsity=.1833 nnzs=3962, refcount: 12>
  <dData2D:(temp array for extrapolation) n=3962 m=8, refcount: 1>
refcount: 1>
     spin moment: S , {S} =    0.00000  -0.00000   0.00000  -0.00000
No. of atoms with KB's overlaping orbs in proc 0. Max # of overlaps:      15     142
New grid distribution:   1
           1       1:   96    1:   40    1:   20
           2       1:   96    1:   40   21:   40
           3       1:   96    1:   40   41:   60
           4       1:   96   41:   80    1:   20
           5       1:   96   41:   80   21:   40
           6       1:   96   41:   80   41:   60

InitMesh: MESH =   192 x   160 x   120 =     3686400
InitMesh: (bp) =    96 x    80 x    60 =      460800
InitMesh: Mesh cutoff (required, used) =   340.000   349.397 Ry
ExtMesh (bp) on 0 =   200 x   144 x   128 =     3686400
New grid distribution:   2
           1       1:   80    1:   20    1:   60
           2      81:   96   21:   80    1:   21
           3      81:   96    1:   20    1:   60
           4       1:   80   21:   80    1:   20
           5       1:   80   21:   80   21:   60
           6      81:   96   21:   80   22:   60
New grid distribution:   3
           1       1:   68    1:   20    1:   60
           2      69:   96   21:   80    1:   26
           3      69:   96    1:   20    1:   60
           4       1:   68   21:   80    1:   25
           5      69:   96   21:   80   27:   60
           6       1:   68   21:   80   26:   60
Setting up quadratic distribution...
ExtMesh (bp) on 0 =   184 x   124 x   168 =     3833088
PhiOnMesh: Number of (b)points on node 0 =                96000
PhiOnMesh: nlist on node 0 =              1022608

        iscf     Eharris(eV)        E_KS(eV)     FreeEng(eV)     dDmax    Ef(eV) dHmax(eV)
   scf:    1    -1986.028449    -1986.061062    -1986.061062  0.047343 -4.356153  0.548945
     spin moment: S , {S} =    0.00000   0.00000  -0.00000   0.00000
   scf:    2    -1985.790676    -1985.992537    -1985.992537  0.022910 -4.620890  1.256704
     spin moment: S , {S} =    0.00000   0.00000  -0.00000   0.00000
   scf:    3    -1986.111303    -1986.082682    -1986.082682  0.014748 -4.443511  0.024506
     spin moment: S , {S} =    0.00000   0.00000  -0.00000   0.00000
   scf:    4    -1986.082752    -1986.082723    -1986.082723  0.000342 -4.441823  0.008844
     spin moment: S , {S} =    0.00000   0.00000  -0.00000   0.00000
   scf:    5    -1986.082734    -1986.082730    -1986.082730  0.000181 -4.440971  0.002932
     spin moment: S , {S} =    0.00000   0.00000  -0.00000   0.00000
   scf:    6    -1986.082731    -1986.082731    -1986.082731  0.000105 -4.441225  0.000839
     spin moment: S , {S} =    0.00000   0.00000  -0.00000   0.00000
   scf:    7    -1986.082731    -1986.082731    -1986.082731  0.000058 -4.441436  0.000323
     spin moment: S , {S} =    0.00000   0.00000  -0.00000   0.00000
   scf:    8    -1986.082731    -1986.082731    -1986.082731  0.000021 -4.441483  0.000135
     spin moment: S , {S} =    0.00000   0.00000  -0.00000   0.00000
   scf:    9    -1986.082731    -1986.082731    -1986.082731  0.000013 -4.441510  0.000068
     spin moment: S , {S} =    0.00000   0.00000  -0.00000   0.00000
   scf:   10    -1986.082731    -1986.082731    -1986.082731  0.000010 -4.441529  0.000023
     spin moment: S , {S} =    0.00000   0.00000  -0.00000   0.00000
   scf:   11    -1986.082731    -1986.082731    -1986.082731  0.000002 -4.441530  0.000008
     spin moment: S , {S} =    0.00000   0.00000  -0.00000   0.00000
   scf:   12    -1986.082731    -1986.082731    -1986.082731  0.000001 -4.441530  0.000004
     spin moment: S , {S} =    0.00000   0.00000  -0.00000   0.00000
   scf:   13    -1986.082731    -1986.082731    -1986.082731  0.000001 -4.441531  0.000001
     spin moment: S , {S} =    0.00000   0.00000  -0.00000   0.00000
   scf:   14    -1986.082731    -1986.082731    -1986.082731  0.000000 -4.441531  0.000000
     spin moment: S , {S} =    0.00000   0.00000  -0.00000   0.00000

SCF Convergence by DM+H criterion
max |DM_out - DM_in|         :     0.0000002424
max |H_out - H_in|      (eV) :     0.0000003166
SCF cycle converged after 14 iterations

Using DM_out to compute the final energy and forces
No. of atoms with KB's overlaping orbs in proc 0. Max # of overlaps:      15     142

siesta: E_KS(eV) =            -1986.0827
     spin moment: S , {S} =    0.00000   0.00000  -0.00000   0.00000

siesta: Atomic forces (eV/Ang):
     1    0.557169   -0.044526    0.005707
     2   12.713042    6.488095    0.082753
     3   30.186691   36.769638   -0.122625
     4    0.616823    3.864135   -0.000191
     5  -12.363378   -2.775289   -0.911971
     6  -39.286214   14.853264   -0.944211
     7   -0.908001    1.111018   -1.447206
     8   -2.765368   -2.142088    0.245236
     9   -0.550666    2.224529    3.113025
    10   13.103177  -26.379594   -0.094479
    11  -17.450040  -20.168126   -0.015023
    12    2.384684  -12.837268    0.123122
    13    0.021224    0.317905    0.035131
    14   -9.278651    5.179234   -0.169578
    15   23.727859   -5.494212    0.005870
----------------------------------------
   Tot    0.708352    0.966717   -0.094440
----------------------------------------
   Max   39.286214
   Res   12.379095    sqrt( Sum f_i^2 / 3N )
----------------------------------------
   Max   39.286214    constrained

Stress tensor Voigt[x,y,z,yz,xz,xy] (kbar):     -155.77     -117.95       -7.90        1.82       -0.39       -2.24
(Free)E + p*V (eV/cell)    -1842.7060
Target enthalpy (eV/cell)    -1986.0827

siesta: Stress tensor (static) (eV/Ang**3):
        -0.093834   -0.001581    0.000426
        -0.001581   -0.068363   -0.000311
         0.000426   -0.000311   -0.002242

siesta: Pressure (static):         87.82096681  kBar

siesta: Stress tensor (total) (eV/Ang**3):
        -0.097222   -0.001396   -0.000246
        -0.001396   -0.073618    0.001135
        -0.000246    0.001135   -0.004930

siesta: Pressure (total):         93.87230756  kBar

siesta: Temp_ion =   10494.124 K

                     ====================================
                        Begin MD quenched step =      6
                     ====================================

outcoor: Atomic coordinates (Ang):                          
    1.28019987    5.67787486    0.01210670   1       1  H
    0.45968723    5.03096642    0.00010501   2       2  N
   -0.90146494    5.51960303   -0.00447433   3       3  Si
   -1.05720231    6.96309377    0.00008508   1       4  H
   -2.04321100    4.63546701   -0.00687298   3       5  Si
   -3.46640302    5.15798320    0.00888806   3       6  Si
   -3.91410860    6.22181300   -1.06288228   1       7  H
   -4.31275278    4.04042138    0.36531610   1       8  H
   -3.55925463    5.92352695    1.23673611   1       9  H
   -1.80691988    3.16215339   -0.00020386   3      10  Si
   -2.82936318    2.32559207    0.00015841   4      11  O
   -0.42138256    2.67041609    0.00586992   2      12  N
   -0.24979161    1.64261357    0.00203052   1      13  H
    0.74649112    3.55536664   -0.00628293   3      14  Si
    1.98347003    3.08677069    0.00029283   4      15  O

outcell: Unit cell vectors (Ang):
       16.818328    0.000000    0.000000
        0.000000   14.230200    0.000000
        0.000000    0.000000   10.224979

outcell: Cell vector modules (Ang)   :   16.818328   14.230200   10.224979
outcell: Cell angles (23,13,12) (deg):     90.0000     90.0000     90.0000
outcell: Cell volume (Ang**3)        :   2447.1255
<dSpData1D:S at geom step 6
  <sparsity:sparsity for geom step 6
    nrows_g=147 nrows=27 sparsity=.1833 nnzs=3962, refcount: 8>
  <dData1D:(new from dSpData1D) n=3962, refcount: 1>
refcount: 1>
new_DM -- step:     6
Re-using DM from previous geometries...
Number of DMs in history: 3
  Estimated Rank of xi*xj matrix:            3
 matrix rank:            4
Singular values: 
  3.4472      1.0579     0.27110     0.68849E-04
 DM extrapolation coefficients: 
1   0.93480
2  -2.80282
3   2.86801
New DM after history re-use:
<dSpData2D:SpM extrapolated using coords
  <sparsity:sparsity for geom step 6
    nrows_g=147 nrows=27 sparsity=.1833 nnzs=3962, refcount: 12>
  <dData2D:(temp array for extrapolation) n=3962 m=8, refcount: 1>
refcount: 1>
     spin moment: S , {S} =    0.00000   0.00000  -0.00000  -0.00000
No. of atoms with KB's overlaping orbs in proc 0. Max # of overlaps:      15     142
New grid distribution:   1
           1       1:   96    1:   40    1:   20
           2       1:   96    1:   40   21:   40
           3       1:   96    1:   40   41:   60
           4       1:   96   41:   80    1:   20
           5       1:   96   41:   80   21:   40
           6       1:   96   41:   80   41:   60

InitMesh: MESH =   192 x   160 x   120 =     3686400
InitMesh: (bp) =    96 x    80 x    60 =      460800
InitMesh: Mesh cutoff (required, used) =   340.000   349.397 Ry
ExtMesh (bp) on 0 =   200 x   144 x   128 =     3686400
New grid distribution:   2
           1       1:   80    1:   20    1:   60
           2      81:   96   21:   80    1:   21
           3      81:   96    1:   20    1:   60
           4       1:   80   21:   80    1:   20
           5       1:   80   21:   80   21:   60
           6      81:   96   21:   80   22:   60
New grid distribution:   3
           1       1:   68    1:   20    1:   60
           2      69:   96   21:   80    1:   26
           3      69:   96    1:   20    1:   60
           4       1:   68   21:   80    1:   26
           5      69:   96   21:   80   27:   60
           6       1:   68   21:   80   27:   60
Setting up quadratic distribution...
ExtMesh (bp) on 0 =   184 x   124 x   168 =     3833088
PhiOnMesh: Number of (b)points on node 0 =                96000
PhiOnMesh: nlist on node 0 =              1024369

        iscf     Eharris(eV)        E_KS(eV)     FreeEng(eV)     dDmax    Ef(eV) dHmax(eV)
   scf:    1    -1990.350314    -1990.223009    -1990.223009  0.034971 -4.542376  1.007805
     spin moment: S , {S} =    0.00000   0.00000  -0.00000   0.00000
   scf:    2    -1989.955396    -1990.158820    -1990.158820  0.033378 -4.102173  1.216510
     spin moment: S , {S} =    0.00000  -0.00000  -0.00000  -0.00000
   scf:    3    -1990.280120    -1990.250266    -1990.250266  0.019242 -4.383639  0.124760
     spin moment: S , {S} =    0.00000   0.00000  -0.00000  -0.00000
   scf:    4    -1990.250626    -1990.250466    -1990.250466  0.001681 -4.380231  0.049114
     spin moment: S , {S} =    0.00000   0.00000  -0.00000  -0.00000
   scf:    5    -1990.250531    -1990.250508    -1990.250508  0.001157 -4.378630  0.004187
     spin moment: S , {S} =    0.00000   0.00000   0.00000  -0.00000
   scf:    6    -1990.250510    -1990.250509    -1990.250509  0.000041 -4.378669  0.001067
     spin moment: S , {S} =    0.00000   0.00000  -0.00000  -0.00000
   scf:    7    -1990.250509    -1990.250509    -1990.250509  0.000029 -4.378569  0.000224
     spin moment: S , {S} =    0.00000   0.00000  -0.00000  -0.00000
[...]
InitMesh: Mesh cutoff (required, used) =   340.000   349.397 Ry
ExtMesh (bp) on 0 =   200 x   144 x   128 =     3686400
New grid distribution:   2
           1       1:   76    1:   21    1:   60
           2      77:   96   21:   80    1:   20
           3      77:   96    1:   20    1:   60
           4       1:   76   22:   80    1:   23
           5      77:   96   21:   80   21:   60
           6       1:   76   22:   80   24:   60
New grid distribution:   3
           1       1:   65    1:   21    1:   60
           2      66:   96    1:   22    1:   60
           3      66:   96   23:   80   31:   60
           4       1:   65   22:   80    1:   24
           5      66:   96   23:   80    1:   30
           6       1:   65   22:   80   25:   60
Setting up quadratic distribution...
ExtMesh (bp) on 0 =   180 x   125 x   168 =     3780000
PhiOnMesh: Number of (b)points on node 0 =                95760
PhiOnMesh: nlist on node 0 =               951553

        iscf     Eharris(eV)        E_KS(eV)     FreeEng(eV)     dDmax    Ef(eV) dHmax(eV)
   scf:    1    -2039.288674    -2039.290099    -2039.290099  0.000466 -4.841667  0.015600
     spin moment: S , {S} =    0.00000  -0.00000  -0.00000   0.00000
   scf:    2    -2039.289983    -2039.290071    -2039.290071  0.000594 -4.848174  0.034129
     spin moment: S , {S} =    0.00000  -0.00000  -0.00000   0.00000
   scf:    3    -2039.290123    -2039.290111    -2039.290111  0.000400 -4.844106  0.001777
     spin moment: S , {S} =    0.00000  -0.00000  -0.00000   0.00000
   scf:    4    -2039.290111    -2039.290111    -2039.290111  0.000013 -4.844267  0.000609
     spin moment: S , {S} =    0.00000  -0.00000  -0.00000   0.00000
   scf:    5    -2039.290111    -2039.290111    -2039.290111  0.000004 -4.844331  0.000213
     spin moment: S , {S} =    0.00000  -0.00000  -0.00000   0.00000
   scf:    6    -2039.290111    -2039.290111    -2039.290111  0.000004 -4.844359  0.000078
     spin moment: S , {S} =    0.00000  -0.00000  -0.00000   0.00000
   scf:    7    -2039.290111    -2039.290111    -2039.290111  0.000002 -4.844378  0.000013
     spin moment: S , {S} =    0.00000  -0.00000  -0.00000   0.00000
   scf:    8    -2039.290111    -2039.290111    -2039.290111  0.000000 -4.844379  0.000003
     spin moment: S , {S} =    0.00000  -0.00000  -0.00000   0.00000
   scf:    9    -2039.290111    -2039.290111    -2039.290111  0.000000 -4.844379  0.000002
     spin moment: S , {S} =    0.00000  -0.00000  -0.00000   0.00000
   scf:   10    -2039.290111    -2039.290111    -2039.290111  0.000000 -4.844380  0.000001
     spin moment: S , {S} =    0.00000  -0.00000  -0.00000   0.00000

SCF Convergence by DM+H criterion
max |DM_out - DM_in|         :     0.0000001203
max |H_out - H_in|      (eV) :     0.0000006551
SCF cycle converged after 10 iterations

Using DM_out to compute the final energy and forces
No. of atoms with KB's overlaping orbs in proc 0. Max # of overlaps:      15     133

siesta: E_KS(eV) =            -2039.2901
     spin moment: S , {S} =    0.00000  -0.00000  -0.00000   0.00000

siesta: Atomic forces (eV/Ang):
     1   -0.022455   -0.005369   -0.007585
     2    0.002116    0.013643    0.027587
     3   -0.367303   -0.013259   -0.017809
     4    0.003393   -0.011500    0.000981
     5   -0.205630    0.096980    0.001576
     6   -0.114210    0.078159   -0.074425
     7   -0.038023   -0.076483    0.019801
     8    0.033010    0.003665    0.006232
     9   -0.001383   -0.000584   -0.002433
    10   -0.498874    0.382759   -0.177130
    11   -0.001451   -0.010177   -0.000152
    12   -0.009661    0.253832    0.116823
    13   -0.013709    0.014721    0.026372
    14   -0.003233    0.210657    0.029302
    15   -0.009395   -0.005895   -0.002775
----------------------------------------
   Tot   -1.246808    0.931148   -0.053635
----------------------------------------
   Max    0.498874
   Res    0.131134    sqrt( Sum f_i^2 / 3N )
----------------------------------------
   Max    0.498874    constrained

Stress tensor Voigt[x,y,z,yz,xz,xy] (kbar):       -5.04       -1.21       -0.41        0.04       -0.13        0.64
(Free)E + p*V (eV/cell)    -2035.8961
Target enthalpy (eV/cell)    -2039.2901

siesta: Stress tensor (static) (eV/Ang**3):
        -0.003122    0.000392   -0.000084
         0.000392   -0.000741    0.000027
        -0.000084    0.000027   -0.000254

siesta: Pressure (static):          2.19880574  kBar

siesta: Stress tensor (total) (eV/Ang**3):
        -0.003148    0.000402   -0.000084
         0.000402   -0.000755    0.000027
        -0.000084    0.000027   -0.000258

siesta: Pressure (total):          2.22213378  kBar

siesta: Temp_ion =      30.168 K

                     ====================================
                        Begin MD quenched step =    300
                     ====================================

outcoor: Atomic coordinates (Ang):                          
    1.75155444    5.87003157    0.08621017   1       1  H
    0.81380974    5.38740757    0.21475698   2       2  N
   -0.70454055    6.30566028    0.05604395   3       3  Si
   -0.34498182    7.77423694    0.09283891   1       4  H
   -2.38531542    5.19894973   -0.92504585   3       5  Si
   -4.56005948    5.53694667    0.01432463   3       6  Si
   -5.34105598    6.41929471   -0.94023751   1       7  H
   -5.24632772    4.18765125    0.08647610   1       8  H
   -4.55441589    6.22501402    1.36331907   1       9  H
   -1.98343140    3.09743822   -0.04333897   3      10  Si
   -3.15466882    2.04427810    0.00034787   4      11  O
   -0.34422549    2.59488785    0.38268730   2      12  N
   -0.10811590    1.56514990    0.43765492   1      13  H
    1.04319257    3.62422271    0.18439817   3      14  Si
    2.45928689    3.02256108   -0.00037130   4      15  O

outcell: Unit cell vectors (Ang):
       16.818328    0.000000    0.000000
        0.000000   14.230200    0.000000
        0.000000    0.000000   10.224979

outcell: Cell vector modules (Ang)   :   16.818328   14.230200   10.224979
outcell: Cell angles (23,13,12) (deg):     90.0000     90.0000     90.0000
outcell: Cell volume (Ang**3)        :   2447.1255
<dSpData1D:S at geom step 300
  <sparsity:sparsity for geom step 300
    nrows_g=147 nrows=27 sparsity=.1802 nnzs=3893, refcount: 8>
  <dData1D:(new from dSpData1D) n=3893, refcount: 1>
refcount: 1>
new_DM -- step:   300
Re-using DM from previous geometries...
Number of DMs in history: 3
  Estimated Rank of xi*xj matrix:            3
 matrix rank:            4
Singular values: 
  1.7337      1.7304     0.56632E-03 0.82643E-05
 DM extrapolation coefficients: 
1  -0.00992
2  -0.98842
3   1.99834
New DM after history re-use:
<dSpData2D:SpM extrapolated using coords
  <sparsity:sparsity for geom step 300
    nrows_g=147 nrows=27 sparsity=.1802 nnzs=3893, refcount: 12>
  <dData2D:(temp array for extrapolation) n=3893 m=8, refcount: 1>
refcount: 1>
     spin moment: S , {S} =    0.00000  -0.00000  -0.00000   0.00000
No. of atoms with KB's overlaping orbs in proc 0. Max # of overlaps:      15     133
New grid distribution:   1
           1       1:   96    1:   40    1:   20
           2       1:   96    1:   40   21:   40
           3       1:   96    1:   40   41:   60
           4       1:   96   41:   80    1:   20
           5       1:   96   41:   80   21:   40
           6       1:   96   41:   80   41:   60

InitMesh: MESH =   192 x   160 x   120 =     3686400
InitMesh: (bp) =    96 x    80 x    60 =      460800
InitMesh: Mesh cutoff (required, used) =   340.000   349.397 Ry
ExtMesh (bp) on 0 =   200 x   144 x   128 =     3686400
New grid distribution:   2
           1       1:   76    1:   21    1:   60
           2      77:   96   21:   80    1:   20
           3      77:   96    1:   20    1:   60
           4       1:   76   22:   80    1:   23
           5      77:   96   21:   80   21:   60
           6       1:   76   22:   80   24:   60
New grid distribution:   3
           1       1:   65    1:   21    1:   60
           2      66:   96    1:   22    1:   60
           3      66:   96   23:   80   31:   60
           4       1:   65   22:   80    1:   24
           5      66:   96   23:   80    1:   30
           6       1:   65   22:   80   25:   60
Setting up quadratic distribution...
ExtMesh (bp) on 0 =   180 x   125 x   168 =     3780000
PhiOnMesh: Number of (b)points on node 0 =                95760
PhiOnMesh: nlist on node 0 =               951426

        iscf     Eharris(eV)        E_KS(eV)     FreeEng(eV)     dDmax    Ef(eV) dHmax(eV)
   scf:    1    -2039.290707    -2039.291858    -2039.291858  0.000330 -4.823932  0.008054
     spin moment: S , {S} =    0.00000  -0.00000  -0.00000   0.00000
   scf:    2    -2039.291823    -2039.291849    -2039.291849  0.000220 -4.820972  0.017010
     spin moment: S , {S} =    0.00000  -0.00000  -0.00000   0.00000
   scf:    3    -2039.291864    -2039.291861    -2039.291861  0.000171 -4.823131  0.001999
     spin moment: S , {S} =    0.00000  -0.00000  -0.00000   0.00000
   scf:    4    -2039.291861    -2039.291861    -2039.291861  0.000011 -4.823056  0.000791
     spin moment: S , {S} =    0.00000  -0.00000  -0.00000   0.00000
   scf:    5    -2039.291861    -2039.291861    -2039.291861  0.000005 -4.823033  0.000181
     spin moment: S , {S} =    0.00000  -0.00000  -0.00000   0.00000
   scf:    6    -2039.291861    -2039.291861    -2039.291861  0.000001 -4.823023  0.000035
     spin moment: S , {S} =    0.00000  -0.00000  -0.00000   0.00000
   scf:    7    -2039.291861    -2039.291861    -2039.291861  0.000000 -4.823020  0.000025
     spin moment: S , {S} =    0.00000  -0.00000  -0.00000   0.00000
   scf:    8    -2039.291861    -2039.291861    -2039.291861  0.000000 -4.823015  0.000004
     spin moment: S , {S} =    0.00000  -0.00000  -0.00000   0.00000
   scf:    9    -2039.291861    -2039.291861    -2039.291861  0.000000 -4.823015  0.000002
     spin moment: S , {S} =    0.00000  -0.00000  -0.00000   0.00000
   scf:   10    -2039.291861    -2039.291861    -2039.291861  0.000000 -4.823015  0.000001
     spin moment: S , {S} =    0.00000  -0.00000  -0.00000   0.00000
   scf:   11    -2039.291861    -2039.291861    -2039.291861  0.000000 -4.823015  0.000000
     spin moment: S , {S} =    0.00000  -0.00000  -0.00000   0.00000

SCF Convergence by DM+H criterion
max |DM_out - DM_in|         :     0.0000000309
max |H_out - H_in|      (eV) :     0.0000003669
SCF cycle converged after 11 iterations

Using DM_out to compute the final energy and forces
No. of atoms with KB's overlaping orbs in proc 0. Max # of overlaps:      15     133

siesta: E_KS(eV) =            -2039.2919
     spin moment: S , {S} =    0.00000  -0.00000  -0.00000   0.00000

siesta: Atomic forces (eV/Ang):
     1    0.015540    0.000120   -0.002291
     2   -0.009609    0.014081    0.023490
     3   -0.367133   -0.016387   -0.019902
     4    0.001218   -0.013014    0.000554
     5   -0.196131    0.105509    0.000096
     6   -0.135110    0.099025   -0.089325
     7    0.029889   -0.116937    0.043899
     8    0.032765    0.000018    0.007459
     9   -0.001854    0.002579   -0.004178
    10   -0.514812    0.394441   -0.180469
    11   -0.002187   -0.008226   -0.000191
    12   -0.009006    0.319541    0.115320
    13    0.006889   -0.058805    0.031324
    14   -0.001525    0.215040    0.030894
    15   -0.016731   -0.004069   -0.002000
----------------------------------------
   Tot   -1.167797    0.932916   -0.045317
----------------------------------------
   Max    0.514812
   Res    0.138302    sqrt( Sum f_i^2 / 3N )
----------------------------------------
   Max    0.514812    constrained

Stress tensor Voigt[x,y,z,yz,xz,xy] (kbar):       -5.03       -1.28       -0.40        0.04       -0.12        0.64
(Free)E + p*V (eV/cell)    -2035.8765
Target enthalpy (eV/cell)    -2039.2919

siesta: Stress tensor (static) (eV/Ang**3):
        -0.003112    0.000390   -0.000073
         0.000390   -0.000784    0.000027
        -0.000073    0.000027   -0.000246

siesta: Pressure (static):          2.21246220  kBar

siesta: Stress tensor (total) (eV/Ang**3):
        -0.003137    0.000400   -0.000075
         0.000400   -0.000799    0.000028
        -0.000075    0.000028   -0.000251

siesta: Pressure (total):          2.23611861  kBar

siesta: Temp_ion =      23.241 K

outcoor: Final (unrelaxed) atomic coordinates (Ang):        
    1.75155444    5.87003157    0.08621017   1       1  H
    0.81380974    5.38740757    0.21475698   2       2  N
   -0.70454055    6.30566028    0.05604395   3       3  Si
   -0.34498182    7.77423694    0.09283891   1       4  H
   -2.38531542    5.19894973   -0.92504585   3       5  Si
   -4.56005948    5.53694667    0.01432463   3       6  Si
   -5.34105598    6.41929471   -0.94023751   1       7  H
   -5.24632772    4.18765125    0.08647610   1       8  H
   -4.55441589    6.22501402    1.36331907   1       9  H
   -1.98343140    3.09743822   -0.04333897   3      10  Si
   -3.15466882    2.04427810    0.00034787   4      11  O
   -0.34422549    2.59488785    0.38268730   2      12  N
   -0.10811590    1.56514990    0.43765492   1      13  H
    1.04319257    3.62422271    0.18439817   3      14  Si
    2.45928689    3.02256108   -0.00037130   4      15  O

siesta: Eigenvalues (eV):
ik =     1
  -23.1805  -23.1805  -22.5587  -22.5587  -22.0158  -22.0158  -21.6300  -21.6300  -15.0491  -15.0491
  -13.9694  -13.9694  -13.7608  -13.7608  -13.1423  -13.1423  -12.0245  -12.0245  -11.8249  -11.8249
  -10.7103  -10.7103   -9.5189   -9.5189   -9.3743   -9.3743   -8.9425   -8.9425   -8.7617   -8.7617
   -8.4881   -8.4881   -8.3086   -8.3086   -7.9496   -7.9496   -7.6100   -7.6100   -7.4212   -7.4212
   -6.9737   -6.9737   -6.8327   -6.8327   -6.3791   -6.3791   -6.1710   -6.1710   -4.0290   -4.0290
   -2.4457   -2.4457   -2.3807   -2.3807   -1.9988   -1.9988   -1.8916   -1.8916   -1.3709   -1.3709
   -1.0933   -1.0933   -0.5784   -0.5784    0.1904    0.1904    0.3512    0.3512    0.4744    0.4744
    0.6483    0.6483    0.8917    0.8917    1.1774    1.1774    1.3337    1.3337    1.6162    1.6162
    2.1491    2.1491    2.3602    2.3602    2.6613    2.6613    3.4736    3.4736    3.6512    3.6512
    3.7632    3.7632    3.9606    3.9606    4.2741    4.2741    4.5745    4.5745    4.7245    4.7245
    5.0757    5.0757    5.3710    5.3710    5.7145    5.7145    6.0886    6.0886    6.1801    6.1801
    6.6322    6.6322    6.7645    6.7645    7.1485    7.1485    7.6853    7.6853    7.8613    7.8613
    8.0077    8.0077    8.6440    8.6440    8.9518    8.9518    9.0634    9.0634    9.5467    9.5467
    9.9648    9.9648   10.0669   10.0669   10.5294   10.5294   10.8595   10.8595   11.4483   11.4483
   11.6013   11.6013   11.9834   11.9834   12.4173   12.4173   12.7543   12.7543   12.8818   12.8818
   13.5421   13.5421   13.8253   13.8253   14.2057   14.2057   14.5279   14.5279   14.9375   14.9375
   15.8821   15.8821   16.5161   16.5161   17.1140   17.1140   17.6089   17.6089   17.6521   17.6521
   18.0713   18.0713   19.2731   19.2731   19.5252   19.5252   20.4177   20.4177   21.0053   21.0053
   21.2865   21.2865   21.8663   21.8663   22.2993   22.2993   22.7935   22.7935   23.5652   23.5652
   24.3430   24.3430   25.2008   25.2008   25.9383   25.9383   26.4210   26.4210   27.0490   27.0490
   27.9879   27.9879   28.1953   28.1953   28.3600   28.3600   29.8185   29.8185   30.5900   30.5900
   33.4535   33.4535   33.9828   33.9828   34.1980   34.1980   34.6744   34.6744   35.2333   35.2333
   35.5620   35.5620   36.3795   36.3795   37.5984   37.5984   38.7471   38.7471   38.8630   38.8630
   39.2374   39.2374   41.6897   41.6897   41.7852   41.7852   43.1477   43.1477   43.5000   43.5000
   45.6330   45.6330   46.1900   46.1900   47.7179   47.7179   49.7342   49.7342   49.9917   49.9917
   50.6273   50.6273   51.0125   51.0125   51.4887   51.4887   52.5241   52.5241   53.9275   53.9275
   54.3748   54.3748   56.0959   56.0959   57.1596   57.1596   57.5606   57.5606   60.2195   60.2195
   61.7028   61.7028   63.2534   63.2534   65.9752   65.9752   69.4461   69.4461   69.7045   69.7045
   70.8518   70.8518   91.4512   91.4512   96.5182   96.5182   97.7186   97.7186  100.8611  100.8611
  118.2202  118.2202  134.3576  134.3576
siesta: Fermi energy =      -4.823015 eV

siesta: Program's energy decomposition (eV):
siesta: Ebs     =      -565.195024
siesta: Eions   =      1908.291957
siesta: Ena     =       162.740408
siesta: Ekin    =      1443.574050
siesta: Enl     =     -1207.933560
siesta: Eso     =        -0.002280
siesta: Edftu   =         0.000000
siesta: DEna    =         7.968246
siesta: DUscf   =         7.035239
siesta: DUext   =         0.000000
siesta: Exc     =      -544.382007
siesta: eta*DQ  =         0.000000
siesta: Emadel  =         0.000000
siesta: Emeta   =         0.000000
siesta: Emolmec =         0.000000
siesta: Ekinion =         0.042055
siesta: Eharris =     -2039.249805
siesta: Etot    =     -2039.249805
siesta: FreeEng =     -2039.249805

siesta: Final energy (eV):
siesta:  Band Struct. =    -565.195024
siesta:       Kinetic =    1443.574050
siesta:       Hartree =    3185.048952
siesta:       Edftu   =       0.000000
siesta:       Eso     =      -0.002280
siesta:    Ext. field =       0.000000
siesta:   Exch.-corr. =    -544.382007
siesta:  Ion-electron =   -7672.554142
siesta:       Ion-ion =    1549.023566
siesta:       Ekinion =       0.042055
siesta:         Total =   -2039.249805
siesta:         Fermi =      -4.823015

siesta: Atomic forces (eV/Ang):
siesta:      1    0.015540    0.000120   -0.002291
siesta:      2   -0.009609    0.014081    0.023490
siesta:      3   -0.367133   -0.016387   -0.019902
siesta:      4    0.001218   -0.013014    0.000554
siesta:      5   -0.196131    0.105509    0.000096
siesta:      6   -0.135110    0.099025   -0.089325
siesta:      7    0.029889   -0.116937    0.043899
siesta:      8    0.032765    0.000018    0.007459
siesta:      9   -0.001854    0.002579   -0.004178
siesta:     10   -0.514812    0.394441   -0.180469
siesta:     11   -0.002187   -0.008226   -0.000191
siesta:     12   -0.009006    0.319541    0.115320
siesta:     13    0.006889   -0.058805    0.031324
siesta:     14   -0.001525    0.215040    0.030894
siesta:     15   -0.016731   -0.004069   -0.002000
siesta: ----------------------------------------
siesta:    Tot   -1.167797    0.932916   -0.045317

siesta: Stress tensor (static) (eV/Ang**3):
siesta:    -0.003112    0.000390   -0.000073
siesta:     0.000390   -0.000784    0.000027
siesta:    -0.000073    0.000027   -0.000246

siesta: Cell volume =       2447.125524 Ang**3

siesta: Pressure (static):
siesta:                Solid            Molecule  Units
siesta:           0.00001504          0.00001659  Ry/Bohr**3
siesta:           0.00138090          0.00152342  eV/Ang**3
siesta:           2.21246220          2.44081024  kBar
(Free)E+ p_basis*V_orbitals  =       -2028.845646
(Free)Eharris+ p_basis*V_orbitals  =       -2028.845646
     spin moment: S , {S} =    0.00000  -0.00000  -0.00000   0.00000

siesta: Electric dipole (a.u.)  =    0.148750    2.233604    0.154878
siesta: Electric dipole (Debye) =    0.378085    5.677259    0.393660

cite: Please see "Thymine.bib" for an exhaustive BiBTeX file.
cite: Please clearly indicate Siesta version in published work: v4.1.5-1-g384057250
cite: This calculation has made use of the following articles
cite: which are encouraged to be cited in a published work.
        Primary SIESTA paper
          DOI: www.doi.org/10.1088/0953-8984/14/11/302
        Spin-orbit coupling (on-site approximation)
          DOI: www.doi.org/10.1088/0953-8984/19/19/489001


WARNING: alloc-realloc-dealloc name mismatch
         Name: atomlist isa
         Size:               -60. Bytes
         Node:     0
         Subsequent mismatches will not be reported
>> End of run:  14-OCT-2023  13:30:27
Job completed
