Siesta Version  : v4.1.5-1-g384057250
Architecture    : gcc
Compiler version: GNU Fortran (Ubuntu 11.3.0-1ubuntu1~22.04) 11.3.0
Compiler flags  : mpifort -O2 -fPIC -ftree-vectorize -fallow-argument-mismatch
PP flags        : -DFC_HAVE_ABORT -DMPI -DSIESTA__FLOOK -DSIESTA__METIS -DSIESTA__MUMPS -DCDF -DNCDF -DNCDF_4 -DNCDF_PARALLEL -DSIESTA__MRRR -DSIESTA__ELPA
Libraries       : libncdf.a libfdict.a  -lflookall -ldl -lnetcdff -lnetcdf -lhdf5_hl -lhdf5 -lhdf5_fortran -lz -lscalapack-openmpi -lopenblas -lmetis -lzmumps -lcmumps -ldmumps -lmumps_common -lpord -lsmumps -lesmumps -lscotch -lscotcherr -fopenmp -lelpa
PARALLEL version
NetCDF support
NetCDF-4 support
NetCDF-4 MPI-IO support
METIS ordering support
Lua support

* Running on 4 nodes in parallel
>> Start of run:  22-MAY-2023  17:15:12

                           ***********************       
                           *  WELCOME TO SIESTA  *       
                           ***********************       

reinit: Reading from standard input
reinit: Dumped input in INPUT_TMP.65588
************************** Dump of input data file ****************************
SystemLabel      GC
NumberOfAtoms    29
NumberOfSpecies  4
%block ChemicalSpeciesLabel
    1    8  O
    2    7  N
    3   14  Si
    4    1  H
%endblock ChemicalSpeciesLabel
# Single point calculation
MD.TypeOfRun                CG
MD.Steps                    0
SCF.MustConverge            F # In case it does not. There can be 2 very close atoms
AtomicCoordinatesFormat NotScaledCartesianAng
%block AtomicCoordinatesAndAtomicSpecies
0.854927710    3.902811360    0.000000000       1
-3.151486600   0.823854130    0.000000000       2
1.928518680    1.174000900    0.000000000       2
0.979899500    -1.830275890   0.000000000       2
-2.159258930   -2.028004800   0.000000000       2
3.785319770    -1.112700660   0.000000000       2
-1.345933810   0.976250250    0.000000000       3
-0.599439880   -1.096077170   0.000000000       3
0.453182890    2.350510230    0.000000000       3
2.133302030    -0.576510800   0.000000000       3
-3.516065660   -0.842056510   0.000000000       3
2.824527830    1.754723110    0.000000000       4
-4.877551690   -1.469214660   0.000000000       4
3.994952020    -2.143204000   0.000000000       4
4.620903610    -0.483666060   0.000000000       4
-2.279085180   -3.081514090   0.000000000       4
5.319114461    5.376185380    -0.000000000      3
7.188073951    6.635829010    -0.000000000      3
6.729141571    2.634447160    -0.000000000      3
8.796734291    5.141038380    -0.000000000      3
5.378644411    3.691232920    -0.000000000      2
3.689115261    6.006245610    -0.000000000      2
8.373030441    3.425537570    -0.000000000      2
7.468437651    8.106051530    -0.000000000      4
10.292145671   5.359890920    -0.000000000      4
3.444656271    7.024711560    -0.000000000      4
2.862374081    5.349397480    -0.000000000      4
6.788417331    1.052005130    -0.000000000      1
9.144686031    2.698570210    -0.000000000      4
%endblock AtomicCoordinatesAndAtomicSpecies
%include ../../../Defaults.fdf
************************** End of input data file *****************************

reinit: -----------------------------------------------------------------------
reinit: System Name: 
reinit: -----------------------------------------------------------------------
reinit: System Label: GC
reinit: -----------------------------------------------------------------------

initatom: Reading input for the pseudopotentials and atomic orbitals ----------
Species number:   1 Atomic number:    8 Label: O
Species number:   2 Atomic number:    7 Label: N
Species number:   3 Atomic number:   14 Label: Si
Species number:   4 Atomic number:    1 Label: H

Ground state valence configuration:   2s02  2p04
Reading pseudopotential information in formatted form from O.psf

Pseudopotential generated from a relativistic atomic calculation

Valence configuration for pseudopotential generation:
2s( 2.00) rc: 0.45
2p( 4.00) rc: 0.92
3d( 0.00) rc: 2.24
4f( 0.00) rc: 0.25
Ground state valence configuration:   2s02  2p03
Reading pseudopotential information in formatted form from N.psf

Pseudopotential generated from a relativistic atomic calculation

Valence configuration for pseudopotential generation:
2s( 2.00) rc: 0.94
2p( 3.00) rc: 0.59
3d( 0.00) rc: 3.46
4f( 0.00) rc: 2.47
Ground state valence configuration:   3s02  3p02
Reading pseudopotential information in formatted form from Si.psf

Pseudopotential generated from a relativistic atomic calculation

Valence configuration for pseudopotential generation:
3s( 2.00) rc: 1.67
3p( 2.00) rc: 2.04
3d( 0.00) rc: 2.89
4f( 0.00) rc: 2.49
Ground state valence configuration:   1s01
Reading pseudopotential information in formatted form from H.psf

Pseudopotential generated from a relativistic atomic calculation

Valence configuration for pseudopotential generation:
1s( 1.00) rc: 0.01
2p( 0.00) rc: 0.60
3d( 0.00) rc: 1.99
4f( 0.00) rc: 2.49
For O, standard SIESTA heuristics set lmxkb to 3
 (one more than the basis l, including polarization orbitals).
Use PS.lmax or PS.KBprojectors blocks to override.
For N, standard SIESTA heuristics set lmxkb to 3
 (one more than the basis l, including polarization orbitals).
Use PS.lmax or PS.KBprojectors blocks to override.
For Si, standard SIESTA heuristics set lmxkb to 3
 (one more than the basis l, including polarization orbitals).
Use PS.lmax or PS.KBprojectors blocks to override.
For H, standard SIESTA heuristics set lmxkb to 2
 (one more than the basis l, including polarization orbitals).
Use PS.lmax or PS.KBprojectors blocks to override.

<basis_specs>
===============================================================================
O                    Z=   8    Mass=  16.000        Charge= 0.17977+309
Lmxo=1 Lmxkb= 3    BasisType=split      Semic=F
L=0  Nsemic=0  Cnfigmx=2
          i=1  nzeta=2  polorb=0  (2s)
            splnorm:   0.28000    
               vcte:    0.0000    
               rinn:    0.0000    
               qcoe:    0.0000    
               qyuk:    0.0000    
               qwid:   0.10000E-01
                rcs:    0.0000      0.0000    
            lambdas:    1.0000      1.0000    
L=1  Nsemic=0  Cnfigmx=2
          i=1  nzeta=2  polorb=1  (2p)
            splnorm:   0.28000    
               vcte:    0.0000    
               rinn:    0.0000    
               qcoe:    0.0000    
               qyuk:    0.0000    
               qwid:   0.10000E-01
                rcs:    0.0000      0.0000    
            lambdas:    1.0000      1.0000    
-------------------------------------------------------------------------------
L=0  Nkbl=1  erefs: 0.17977+309
L=1  Nkbl=1  erefs: 0.17977+309
L=2  Nkbl=1  erefs: 0.17977+309
L=3  Nkbl=1  erefs: 0.17977+309
===============================================================================
</basis_specs>

atom: Called for O                     (Z =   8)

read_vps: Pseudopotential generation method:
read_vps: ATM4.2.7  Troullier-Martins                       
Valence charge for ps generation:    6.00000

xc_check: Exchange-correlation functional:
xc_check: GGA Perdew, Burke & Ernzerhof 1996
V l=0 = -2*Zval/r beyond r=  1.1000
V l=1 = -2*Zval/r beyond r=  1.1000
V l=2 = -2*Zval/r beyond r=  2.2154
V l=3 = -2*Zval/r beyond r=  1.1000
All V_l potentials equal beyond r=  2.2154
This should be close to max(r_c) in ps generation
All pots = -2*Zval/r beyond r=  2.2154

VLOCAL1: 99.0% of the norm of Vloc inside      8.845 Ry
VLOCAL1: 99.9% of the norm of Vloc inside     20.157 Ry
atom: Maximum radius for 4*pi*r*r*local-pseudopot. charge    2.67231
atom: Maximum radius for r*vlocal+2*Zval:    2.32897
GHOST: No ghost state for L =  0
GHOST: No ghost state for L =  1
GHOST: No ghost state for L =  2
GHOST: No ghost state for L =  3

KBgen: Kleinman-Bylander projectors: 
   l= 0   rc=  2.243238   el= -1.759686   Ekb=**********   kbcos= -0.171774
   l= 1   rc=  2.328968   el= -0.663873   Ekb=-14.506792   kbcos= -0.519897
   l= 2   rc=  2.573941   el=  0.002031   Ekb= -1.137373   kbcos= -0.019581
   l= 3   rc=  2.606321   el=  0.003153   Ekb= -1.013546   kbcos= -0.003122

KBgen: Total number of Kleinman-Bylander projectors:   16
atom: -------------------------------------------------------------------------

atom: SANKEY-TYPE ORBITALS:
atom: Selected multiple-zeta basis: split     

SPLIT: Orbitals with angular momentum L= 0

SPLIT: Basis orbitals for state 2s

SPLIT: PAO cut-off radius determined from an
SPLIT: energy shift=  0.002000 Ry

   izeta = 1
                 lambda =    1.000000
                     rc =    4.243912
                 energy =   -1.758270
                kinetic =    3.286084
    potential(screened) =   -5.044353
       potential(ionic) =  -12.921184

   izeta = 2
                 rmatch =    2.187845
              splitnorm =    0.280000
                 energy =   -0.885018
                kinetic =    8.134434
    potential(screened) =   -9.019452
       potential(ionic) =  -17.710645

SPLIT: Orbitals with angular momentum L= 1

SPLIT: Basis orbitals for state 2p

SPLIT: PAO cut-off radius determined from an
SPLIT: energy shift=  0.002000 Ry

   izeta = 1
                 lambda =    1.000000
                     rc =    5.314825
                 energy =   -0.661986
                kinetic =    4.917472
    potential(screened) =   -5.579458
       potential(ionic) =  -13.236259

   izeta = 2
                 rmatch =    2.160663
              splitnorm =    0.280000
                 energy =   -0.068760
                kinetic =    9.183374
    potential(screened) =   -9.252135
       potential(ionic) =  -18.274251

POLgen: Perturbative polarization orbital with L=  2

POLgen: Polarization orbital for state 2p

   izeta = 1
                     rc =    5.314825
                 energy =    1.970580
                kinetic =    3.886128
    potential(screened) =   -1.915547
       potential(ionic) =   -7.749584
atom: Total number of Sankey-type orbitals: 13

atm_pop: Valence configuration (for local Pseudopot. screening):
 2s( 2.00)                                                            
 2p( 4.00)                                                            
Vna: chval, zval:    6.00000   6.00000

Vna:  Cut-off radius for the neutral-atom potential:   5.314825

atom: _________________________________________________________________________

<basis_specs>
===============================================================================
N                    Z=   7    Mass=  14.010        Charge= 0.17977+309
Lmxo=1 Lmxkb= 3    BasisType=split      Semic=F
L=0  Nsemic=0  Cnfigmx=2
          i=1  nzeta=2  polorb=0  (2s)
            splnorm:   0.28000    
               vcte:    0.0000    
               rinn:    0.0000    
               qcoe:    0.0000    
               qyuk:    0.0000    
               qwid:   0.10000E-01
                rcs:    0.0000      0.0000    
            lambdas:    1.0000      1.0000    
L=1  Nsemic=0  Cnfigmx=2
          i=1  nzeta=2  polorb=1  (2p)
            splnorm:   0.28000    
               vcte:    0.0000    
               rinn:    0.0000    
               qcoe:    0.0000    
               qyuk:    0.0000    
               qwid:   0.10000E-01
                rcs:    0.0000      0.0000    
            lambdas:    1.0000      1.0000    
-------------------------------------------------------------------------------
L=0  Nkbl=1  erefs: 0.17977+309
L=1  Nkbl=1  erefs: 0.17977+309
L=2  Nkbl=1  erefs: 0.17977+309
L=3  Nkbl=1  erefs: 0.17977+309
===============================================================================
</basis_specs>

atom: Called for N                     (Z =   7)

read_vps: Pseudopotential generation method:
read_vps: ATM4.2.7  Troullier-Martins                       
Valence charge for ps generation:    5.00000

xc_check: Exchange-correlation functional:
xc_check: GGA Perdew, Burke & Ernzerhof 1996
V l=0 = -2*Zval/r beyond r=  1.2889
V l=1 = -2*Zval/r beyond r=  1.2889
V l=2 = -2*Zval/r beyond r=  3.4178
V l=3 = -2*Zval/r beyond r=  2.4084
All V_l potentials equal beyond r=  3.3753
This should be close to max(r_c) in ps generation
All pots = -2*Zval/r beyond r=  3.4178

VLOCAL1: 99.0% of the norm of Vloc inside      3.810 Ry
VLOCAL1: 99.9% of the norm of Vloc inside      8.683 Ry
atom: Maximum radius for 4*pi*r*r*local-pseudopot. charge    4.02088
atom: Maximum radius for r*vlocal+2*Zval:    3.54838
GHOST: No ghost state for L =  0
GHOST: No ghost state for L =  1
GHOST: No ghost state for L =  2
GHOST: No ghost state for L =  3

KBgen: Kleinman-Bylander projectors: 
   l= 0   rc=  3.417763   el= -1.365098   Ekb= -4.433130   kbcos= -0.707855
   l= 1   rc=  3.375302   el= -0.521201   Ekb=-13.264039   kbcos= -0.535594
   l= 2   rc=  3.872880   el=  0.001991   Ekb= -0.641094   kbcos= -0.062456
   l= 3   rc=  3.970931   el=  0.003093   Ekb= -0.474517   kbcos= -0.018236

KBgen: Total number of Kleinman-Bylander projectors:   16
atom: -------------------------------------------------------------------------

atom: SANKEY-TYPE ORBITALS:
atom: Selected multiple-zeta basis: split     

SPLIT: Orbitals with angular momentum L= 0

SPLIT: Basis orbitals for state 2s

SPLIT: PAO cut-off radius determined from an
SPLIT: energy shift=  0.002000 Ry

   izeta = 1
                 lambda =    1.000000
                     rc =    4.730425
                 energy =   -1.363399
                kinetic =    1.245246
    potential(screened) =   -2.608645
       potential(ionic) =   -8.121105

   izeta = 2
                 rmatch =    2.531849
              splitnorm =    0.280000
                 energy =   -0.959908
                kinetic =    2.409435
    potential(screened) =   -3.369343
       potential(ionic) =   -9.427975

SPLIT: Orbitals with angular momentum L= 1

SPLIT: Basis orbitals for state 2p

SPLIT: PAO cut-off radius determined from an
SPLIT: energy shift=  0.002000 Ry

   izeta = 1
                 lambda =    1.000000
                     rc =    5.924108
                 energy =   -0.519262
                kinetic =    3.672940
    potential(screened) =   -4.192202
       potential(ionic) =   -9.518354

   izeta = 2
                 rmatch =    2.531849
              splitnorm =    0.280000
                 energy =   -0.104258
                kinetic =    6.807538
    potential(screened) =   -6.911796
       potential(ionic) =  -13.149920

POLgen: Perturbative polarization orbital with L=  2

POLgen: Polarization orbital for state 2p

   izeta = 1
                     rc =    5.924108
                 energy =    1.427508
                kinetic =    2.872379
    potential(screened) =   -1.444871
       potential(ionic) =   -5.563644
atom: Total number of Sankey-type orbitals: 13

atm_pop: Valence configuration (for local Pseudopot. screening):
 2s( 2.00)                                                            
 2p( 3.00)                                                            
Vna: chval, zval:    5.00000   5.00000

Vna:  Cut-off radius for the neutral-atom potential:   5.924108

atom: _________________________________________________________________________

<basis_specs>
===============================================================================
Si                   Z=  14    Mass=  28.090        Charge= 0.17977+309
Lmxo=1 Lmxkb= 3    BasisType=split      Semic=F
L=0  Nsemic=0  Cnfigmx=3
          i=1  nzeta=2  polorb=0  (3s)
            splnorm:   0.28000    
               vcte:    0.0000    
               rinn:    0.0000    
               qcoe:    0.0000    
               qyuk:    0.0000    
               qwid:   0.10000E-01
                rcs:    0.0000      0.0000    
            lambdas:    1.0000      1.0000    
L=1  Nsemic=0  Cnfigmx=3
          i=1  nzeta=2  polorb=1  (3p)
            splnorm:   0.28000    
               vcte:    0.0000    
               rinn:    0.0000    
               qcoe:    0.0000    
               qyuk:    0.0000    
               qwid:   0.10000E-01
                rcs:    0.0000      0.0000    
            lambdas:    1.0000      1.0000    
-------------------------------------------------------------------------------
L=0  Nkbl=1  erefs: 0.17977+309
L=1  Nkbl=1  erefs: 0.17977+309
L=2  Nkbl=1  erefs: 0.17977+309
L=3  Nkbl=1  erefs: 0.17977+309
===============================================================================
</basis_specs>

atom: Called for Si                    (Z =  14)

read_vps: Pseudopotential generation method:
read_vps: ATM4.2.7  Troullier-Martins                       
Valence charge for ps generation:    4.00000

xc_check: Exchange-correlation functional:
xc_check: GGA Perdew, Burke & Ernzerhof 1996
V l=0 = -2*Zval/r beyond r=  2.7826
V l=1 = -2*Zval/r beyond r=  2.7826
V l=2 = -2*Zval/r beyond r=  2.9253
V l=3 = -2*Zval/r beyond r=  2.7826
All V_l potentials equal beyond r=  2.8530
This should be close to max(r_c) in ps generation
All pots = -2*Zval/r beyond r=  2.9253

VLOCAL1: 99.0% of the norm of Vloc inside      5.333 Ry
VLOCAL1: 99.9% of the norm of Vloc inside     12.154 Ry
atom: Maximum radius for 4*pi*r*r*local-pseudopot. charge    3.39869
atom: Maximum radius for r*vlocal+2*Zval:    2.96205
GHOST: No ghost state for L =  0
GHOST: No ghost state for L =  1
GHOST: No ghost state for L =  2
GHOST: No ghost state for L =  3

KBgen: Kleinman-Bylander projectors: 
   l= 0   rc=  3.075247   el= -0.794092   Ekb=  5.879390   kbcos=  0.167461
   l= 1   rc=  3.153101   el= -0.300068   Ekb=  2.642817   kbcos=  0.058301
   l= 2   rc=  3.273594   el=  0.001958   Ekb= -1.185135   kbcos= -0.104411
   l= 3   rc=  3.232927   el=  0.003046   Ekb= -0.497174   kbcos= -0.015889

KBgen: Total number of Kleinman-Bylander projectors:   16
atom: -------------------------------------------------------------------------

atom: SANKEY-TYPE ORBITALS:
atom: Selected multiple-zeta basis: split     

SPLIT: Orbitals with angular momentum L= 0

SPLIT: Basis orbitals for state 3s

SPLIT: PAO cut-off radius determined from an
SPLIT: energy shift=  0.002000 Ry

   izeta = 1
                 lambda =    1.000000
                     rc =    6.429618
                 energy =   -0.792283
                kinetic =    0.525293
    potential(screened) =   -1.317576
       potential(ionic) =   -3.744923

   izeta = 2
                 rmatch =    3.998416
              splitnorm =    0.280000
                 energy =   -0.583081
                kinetic =    1.069570
    potential(screened) =   -1.652651
       potential(ionic) =   -4.235185

SPLIT: Orbitals with angular momentum L= 1

SPLIT: Basis orbitals for state 3p

SPLIT: PAO cut-off radius determined from an
SPLIT: energy shift=  0.002000 Ry

   izeta = 1
                 lambda =    1.000000
                     rc =    8.464845
                 energy =   -0.298236
                kinetic =    0.785360
    potential(screened) =   -1.083596
       potential(ionic) =   -3.273779

   izeta = 2
                 rmatch =    4.587816
              splitnorm =    0.280000
                 energy =   -0.131871
                kinetic =    1.403687
    potential(screened) =   -1.535557
       potential(ionic) =   -4.015310

POLgen: Perturbative polarization orbital with L=  2

POLgen: Polarization orbital for state 3p

   izeta = 1
                     rc =    8.464845
                 energy =    0.321949
                kinetic =    1.055677
    potential(screened) =   -0.733728
       potential(ionic) =   -2.672950
atom: Total number of Sankey-type orbitals: 13

atm_pop: Valence configuration (for local Pseudopot. screening):
 3s( 2.00)                                                            
 3p( 2.00)                                                            
Vna: chval, zval:    4.00000   4.00000

Vna:  Cut-off radius for the neutral-atom potential:   8.464845

atom: _________________________________________________________________________

<basis_specs>
===============================================================================
H                    Z=   1    Mass=  1.0100        Charge= 0.17977+309
Lmxo=0 Lmxkb= 2    BasisType=split      Semic=F
L=0  Nsemic=0  Cnfigmx=1
          i=1  nzeta=2  polorb=1  (1s)
            splnorm:   0.62000    
               vcte:    0.0000    
               rinn:    0.0000    
               qcoe:    0.0000    
               qyuk:    0.0000    
               qwid:   0.10000E-01
                rcs:    0.0000      0.0000    
            lambdas:    1.0000      1.0000    
-------------------------------------------------------------------------------
L=0  Nkbl=1  erefs: 0.17977+309
L=1  Nkbl=1  erefs: 0.17977+309
L=2  Nkbl=1  erefs: 0.17977+309
===============================================================================
</basis_specs>

atom: Called for H                     (Z =   1)

read_vps: Pseudopotential generation method:
read_vps: ATM4.2.7  Troullier-Martins                       
Valence charge for ps generation:    1.00000

xc_check: Exchange-correlation functional:
xc_check: GGA Perdew, Burke & Ernzerhof 1996
V l=0 = -2*Zval/r beyond r=  0.0098
V l=1 = -2*Zval/r beyond r=  0.5817
V l=2 = -2*Zval/r beyond r=  1.9372
All V_l potentials equal beyond r=  1.9372
This should be close to max(r_c) in ps generation
All pots = -2*Zval/r beyond r=  1.9372

VLOCAL1: 99.0% of the norm of Vloc inside     11.567 Ry
VLOCAL1: 99.9% of the norm of Vloc inside     26.362 Ry
atom: Maximum radius for 4*pi*r*r*local-pseudopot. charge    2.25106
atom: Maximum radius for r*vlocal+2*Zval:    1.91306
GHOST: No ghost state for L =  0
GHOST: No ghost state for L =  1
GHOST: No ghost state for L =  2

KBgen: Kleinman-Bylander projectors: 
   l= 0   rc=  2.036604   el= -0.477180   Ekb= -6.081590   kbcos= -0.277285
   l= 1   rc=  2.195416   el=  0.001076   Ekb= -0.926943   kbcos= -0.034643
   l= 2   rc=  2.251056   el=  0.002010   Ekb= -0.130941   kbcos= -0.009788

KBgen: Total number of Kleinman-Bylander projectors:    9
atom: -------------------------------------------------------------------------

atom: SANKEY-TYPE ORBITALS:
atom: Selected multiple-zeta basis: split     

SPLIT: Orbitals with angular momentum L= 0

SPLIT: Basis orbitals for state 1s

SPLIT: PAO cut-off radius determined from an
SPLIT: energy shift=  0.002000 Ry

   izeta = 1
                 lambda =    1.000000
                     rc =    6.518340
                 energy =   -0.475305
                kinetic =    0.912139
    potential(screened) =   -1.387444
       potential(ionic) =   -1.907295

   izeta = 2
                 rmatch =    2.141150
              splitnorm =    0.620000
                 energy =    0.566467
                kinetic =    3.772856
    potential(screened) =   -3.206389
       potential(ionic) =   -3.759093

POLgen: Perturbative polarization orbital with L=  1

POLgen: Polarization orbital for state 1s

   izeta = 1
                     rc =    6.518340
                 energy =    0.533861
                kinetic =    1.121086
    potential(screened) =   -0.587225
       potential(ionic) =   -1.053027
atom: Total number of Sankey-type orbitals:  5

atm_pop: Valence configuration (for local Pseudopot. screening):
 1s( 1.00)                                                            
Vna: chval, zval:    1.00000   1.00000

Vna:  Cut-off radius for the neutral-atom potential:   6.518340

atom: _________________________________________________________________________

prinput: Basis input ----------------------------------------------------------

PAO.BasisType split     

%block ChemicalSpeciesLabel
    1    8 O                       # Species index, atomic number, species label
    2    7 N                       # Species index, atomic number, species label
    3   14 Si                      # Species index, atomic number, species label
    4    1 H                       # Species index, atomic number, species label
%endblock ChemicalSpeciesLabel

%block PAO.Basis                 # Define Basis set
O                     2                    # Species label, number of l-shells
 n=2   0   2                         # n, l, Nzeta 
   4.244      2.188   
   1.000      1.000   
 n=2   1   2 P   1                   # n, l, Nzeta, Polarization, NzetaPol
   5.315      2.161   
   1.000      1.000   
N                     2                    # Species label, number of l-shells
 n=2   0   2                         # n, l, Nzeta 
   4.730      2.532   
   1.000      1.000   
 n=2   1   2 P   1                   # n, l, Nzeta, Polarization, NzetaPol
   5.924      2.532   
   1.000      1.000   
Si                    2                    # Species label, number of l-shells
 n=3   0   2                         # n, l, Nzeta 
   6.430      3.998   
   1.000      1.000   
 n=3   1   2 P   1                   # n, l, Nzeta, Polarization, NzetaPol
   8.465      4.588   
   1.000      1.000   
H                     1                    # Species label, number of l-shells
 n=1   0   2 P   1                   # n, l, Nzeta, Polarization, NzetaPol
   6.518      2.141   
   1.000      1.000   
%endblock PAO.Basis

prinput: ----------------------------------------------------------------------

Dumping basis to NetCDF file O.ion.nc
Dumping basis to NetCDF file N.ion.nc
Dumping basis to NetCDF file Si.ion.nc
Dumping basis to NetCDF file H.ion.nc
coor:   Atomic-coordinates input format  =     Cartesian coordinates
coor:                                          (in Angstroms)

siesta: Atomic coordinates (Bohr) and species
siesta:      1.61558   7.37525   0.00000  1        1
siesta:     -5.95545   1.55686   0.00000  2        2
siesta:      3.64437   2.21854   0.00000  2        3
siesta:      1.85174  -3.45872   0.00000  2        4
siesta:     -4.08041  -3.83238   0.00000  2        5
siesta:      7.15322  -2.10270   0.00000  2        6
siesta:     -2.54345   1.84485   0.00000  3        7
siesta:     -1.13278  -2.07129   0.00000  3        8
siesta:      0.85639   4.44182   0.00000  3        9
siesta:      4.03136  -1.08945   0.00000  3       10
siesta:     -6.64440  -1.59126   0.00000  3       11
siesta:      5.33759   3.31595   0.00000  4       12
siesta:     -9.21724  -2.77641   0.00000  4       13
siesta:      7.54937  -4.05007   0.00000  4       14
siesta:      8.73225  -0.91400   0.00000  4       15
siesta:     -4.30685  -5.82322   0.00000  4       16
siesta:     10.05167  10.15952  -0.00000  3       17
siesta:     13.58350  12.53990  -0.00000  3       18
siesta:     12.71624   4.97839  -0.00000  3       19
siesta:     16.62343   9.71516  -0.00000  3       20
siesta:     10.16417   6.97542  -0.00000  2       21
siesta:      6.97142  11.35016  -0.00000  2       22
siesta:     15.82274   6.47333  -0.00000  2       23
siesta:     14.11331  15.31822  -0.00000  4       24
siesta:     19.44934  10.12873  -0.00000  4       25
siesta:      6.50946  13.27479  -0.00000  4       26
siesta:      5.40911  10.10890  -0.00000  4       27
siesta:     12.82825   1.98800  -0.00000  1       28
siesta:     17.28096   5.09956  -0.00000  4       29

siesta: Automatic unit cell vectors (Ang):
siesta:   24.275250    0.000000    0.000000
siesta:    0.000000   19.894905    0.000000
siesta:    0.000000    0.000000    9.854683

siesta: System type = molecule  

initatomlists: Number of atoms, orbitals, and projectors:     29   297   394

siesta: ******************** Simulation parameters ****************************
siesta:
siesta: The following are some of the parameters of the simulation.
siesta: A complete list of the parameters used, including default values,
siesta: can be found in file out.fdf
siesta:
redata: Spin configuration                          = spin-orbit
redata: Number of spin components                   = 8
redata: Time-Reversal Symmetry                      = F
redata: Spin spiral                                 = F
############################################################
This spin-orbit implementation uses a local approximation.
From 4.2 and onwards the full non-local approximation is implemented
You are strongly advised to use >=4.2 versions!
############################################################
redata: Long output                                 =   F
redata: Number of Atomic Species                    =        4
redata: Charge density info will appear in .RHO file
redata: Write Mulliken Pop.                         = Atomic and Orbital charges
redata: Matel table size (NRTAB)                    =     1024
redata: Mesh Cutoff                                 =   340.0000 Ry
redata: Net charge of the system                    =     0.0000 |e|
redata: Min. number of SCF Iter                     =        1
redata: Max. number of SCF Iter                     =      200
redata: SCF mix quantity                            = Hamiltonian
redata: Mix DM or H after convergence               =   F
redata: Recompute H after scf cycle                 =   F
redata: Mix DM in first SCF step                    =   T
redata: Write Pulay info on disk                    =   F
redata: New DM Occupancy tolerance                  = 0.000000000001
redata: No kicks to SCF
redata: DM Mixing Weight for Kicks                  =     0.5000
redata: Require Harris convergence for SCF          =   F
redata: Harris energy tolerance for SCF             =     0.000100 eV
redata: Require DM convergence for SCF              =   T
redata: DM tolerance for SCF                        =     0.000008
redata: Require EDM convergence for SCF             =   F
redata: EDM tolerance for SCF                       =     0.001000 eV
redata: Require H convergence for SCF               =   T
redata: Hamiltonian tolerance for SCF               =     0.000001 eV
redata: Require (free) Energy convergence for SCF   =   F
redata: (free) Energy tolerance for SCF             =     0.000100 eV
redata: Using Saved Data (generic)                  =   F
redata: Use continuation files for DM               =   F
redata: Neglect nonoverlap interactions             =   F
redata: Method of Calculation                       = Diagonalization
redata: Electronic Temperature                      =   299.9978 K
redata: Fix the spin of the system                  =   F
redata: Dynamics option                             = Single-point calculation
mix.SCF: Pulay mixing                            = Pulay
mix.SCF:    Variant                              = stable
mix.SCF:    History steps                        = 6
mix.SCF:    Linear mixing weight                 =     0.250000
mix.SCF:    Mixing weight                        =     0.250000
mix.SCF:    SVD condition                        = 0.1000E-07
mix.SCF:    Restart steps                        = 24
mix.SCF:    Restart save steps                   = 3
mix.SCF: Spin-component mixing                   all
redata: Save all siesta data in one NC              =   F
redata: ***********************************************************************

%block SCF.Mixers
  Pulay
%endblock SCF.Mixers

%block SCF.Mixer.Pulay
  # Mixing method
  method pulay
  variant stable

  # Mixing options
  weight 0.2500
  weight.linear 0.2500
  history 6
  restart 24
  restart.save 3
%endblock SCF.Mixer.Pulay

DM_history_depth set to one: no extrapolation allowed by default for geometry relaxation
Size of DM history Fstack: 1
Total number of electrons:    98.000000
Total ionic charge:    98.000000

* ProcessorY, Blocksize:    2  24


* Orbital distribution balance (max,min):    81    72


Time-reversal symmetry not used.

siesta: k-grid: Number of k-points =     1
siesta: k-grid: Cutoff (effective) =     4.927 Ang
siesta: k-grid: Supercell and displacements
siesta: k-grid:    1   0   0      0.000
siesta: k-grid:    0   1   0      0.000
siesta: k-grid:    0   0   1      0.000

diag: Algorithm                                     = ELPA-1stage
diag: Parallel over k                               =   F
diag: Use parallel 2D distribution                  =   T
diag: Parallel block-size                           = 24
diag: Parallel distribution                         =     2 x     2
diag: Used triangular part                          = Lower
diag: Absolute tolerance                            =  0.100E-15
diag: Orthogonalization factor                      =  0.100E-05
diag: Memory factor                                 =  1.0000


ts: **************************************************************
ts: Save H and S matrices                           =    F
ts: Save DM and EDM matrices                        =    F
ts: Only save the overlap matrix S                  =    F
ts: **************************************************************

************************ Begin: TS CHECKS AND WARNINGS ************************
************************ End: TS CHECKS AND WARNINGS **************************


                     ====================================
                        Single-point calculation
                     ====================================

outcoor: Atomic coordinates (Ang):                          
    0.85492771    3.90281136    0.00000000   1       1  O
   -3.15148660    0.82385413    0.00000000   2       2  N
    1.92851868    1.17400090    0.00000000   2       3  N
    0.97989950   -1.83027589    0.00000000   2       4  N
   -2.15925893   -2.02800480    0.00000000   2       5  N
    3.78531977   -1.11270066    0.00000000   2       6  N
   -1.34593381    0.97625025    0.00000000   3       7  Si
   -0.59943988   -1.09607717    0.00000000   3       8  Si
    0.45318289    2.35051023    0.00000000   3       9  Si
    2.13330203   -0.57651080    0.00000000   3      10  Si
   -3.51606566   -0.84205651    0.00000000   3      11  Si
    2.82452783    1.75472311    0.00000000   4      12  H
   -4.87755169   -1.46921466    0.00000000   4      13  H
    3.99495202   -2.14320400    0.00000000   4      14  H
    4.62090361   -0.48366606    0.00000000   4      15  H
   -2.27908518   -3.08151409    0.00000000   4      16  H
    5.31911446    5.37618538    0.00000000   3      17  Si
    7.18807395    6.63582901    0.00000000   3      18  Si
    6.72914157    2.63444716    0.00000000   3      19  Si
    8.79673429    5.14103838    0.00000000   3      20  Si
    5.37864441    3.69123292    0.00000000   2      21  N
    3.68911526    6.00624561    0.00000000   2      22  N
    8.37303044    3.42553757    0.00000000   2      23  N
    7.46843765    8.10605153    0.00000000   4      24  H
   10.29214567    5.35989092    0.00000000   4      25  H
    3.44465627    7.02471156    0.00000000   4      26  H
    2.86237408    5.34939748    0.00000000   4      27  H
    6.78841733    1.05200513    0.00000000   1      28  O
    9.14468603    2.69857021    0.00000000   4      29  H

outcell: Unit cell vectors (Ang):
       24.275250    0.000000    0.000000
        0.000000   19.894905    0.000000
        0.000000    0.000000    9.854683

outcell: Cell vector modules (Ang)   :   24.275250   19.894905    9.854683
outcell: Cell angles (23,13,12) (deg):     90.0000     90.0000     90.0000
outcell: Cell volume (Ang**3)        :   4759.3566
<dSpData1D:S at geom step 0
  <sparsity:sparsity for geom step 0
    nrows_g=297 nrows=81 sparsity=.2115 nnzs=18655, refcount: 8>
  <dData1D:(new from dSpData1D) n=18655, refcount: 1>
refcount: 1>
new_DM -- step:     1
Initializing Density Matrix...
DM filled with atomic data:
<dSpData2D:DM initialized from atoms
  <sparsity:sparsity for geom step 0
    nrows_g=297 nrows=81 sparsity=.2115 nnzs=18655, refcount: 9>
  <dData2D:DM n=18655 m=8, refcount: 1>
refcount: 1>
     spin moment: S , {S} =   56.00000   0.00000   0.00000  56.00000
No. of atoms with KB's overlaping orbs in proc 0. Max # of overlaps:      29     189

Initializing spin-orbit part of the Hamiltonian
  Adding spin-orbit effects for O 
  Adding spin-orbit effects for N 
  Adding spin-orbit effects for Si
  Adding spin-orbit effects for H 


New grid distribution:   1
           1       1:  135    1:   60    1:   30
           2       1:  135    1:   60   31:   60
           3       1:  135   61:  120    1:   30
           4       1:  135   61:  120   31:   60

InitMesh: MESH =   270 x   240 x   120 =     7776000
InitMesh: (bp) =   135 x   120 x    60 =      972000
InitMesh: Mesh cutoff (required, used) =   340.000   341.902 Ry
ExtMesh (bp) on 0 =   235 x   172 x   142 =     5739640
New grid distribution:   2
           1      36:  135    1:   30    1:   60
           2       1:   35    1:   28    1:   60
           3      36:  135   31:  120    1:   60
           4       1:   35   29:  120    1:   60
New grid distribution:   3
           1      45:  135    1:   36    1:   60
           2       1:   44    1:   40    1:   60
           3      45:  135   37:  120    1:   60
           4       1:   44   41:  120    1:   60
Setting up quadratic distribution...
ExtMesh (bp) on 0 =   200 x   142 x   172 =     4884800
PhiOnMesh: Number of (b)points on node 0 =               180000
PhiOnMesh: nlist on node 0 =              2683597

stepf: Fermi-Dirac step function

siesta: Program's energy decomposition (eV):
siesta: Ebs     =      -611.612873
siesta: Eions   =      3585.165840
siesta: Ena     =       384.890527
siesta: Ekin    =      3372.040561
siesta: Enl     =     -3304.356748
siesta: Eso     =        -0.003391
siesta: Edftu   =         0.000000
siesta: DEna    =       154.469511
siesta: DUscf   =        80.487835
siesta: DUext   =         0.000000
siesta: Exc     =     -1204.386183
siesta: eta*DQ  =         0.000000
siesta: Emadel  =         0.000000
siesta: Emeta   =         0.000000
siesta: Emolmec =         0.000000
siesta: Ekinion =         0.000000
siesta: Eharris =     -4024.972270
siesta: Etot    =     -4102.023727
siesta: FreeEng =     -4102.025201

        iscf     Eharris(eV)        E_KS(eV)     FreeEng(eV)     dDmax    Ef(eV) dHmax(eV)
   scf:    1    -4024.972270    -4102.023727    -4102.025201  0.961569 -4.889850 21.127445
     spin moment: S , {S} =    2.00777  -0.00000   0.00000   2.00777
timer: Routine,Calls,Time,% = IterSCF        1      12.514  17.11
   scf:    2    -4149.818591    -4137.662939    -4137.667456  0.464135 -4.214476 11.331592
     spin moment: S , {S} =    1.96624  -0.00000  -0.00000   1.96624
   scf:    3    -4112.147206    -4135.352028    -4135.375292  0.435228 -4.307807 11.262243
     spin moment: S , {S} =    2.00227  -0.00000  -0.00000   2.00227
   scf:    4    -4150.332052    -4145.806504    -4145.806505  0.287146 -3.938805  5.850124
     spin moment: S , {S} =    0.00010  -0.00000   0.00000   0.00010
   scf:    5    -4146.995072    -4146.497370    -4146.497370  0.037734 -3.738368  4.149573
     spin moment: S , {S} =    0.00006   0.00000  -0.00000   0.00006
   scf:    6    -4147.232966    -4146.869877    -4146.869877  0.024759 -3.760834  2.081514
     spin moment: S , {S} =    0.00003   0.00000   0.00000   0.00003
   scf:    7    -4147.220516    -4147.043426    -4147.043426  0.022162 -3.607492  0.888213
     spin moment: S , {S} =    0.00001   0.00000   0.00000   0.00001
   scf:    8    -4147.162504    -4147.101266    -4147.101266  0.012474 -3.729722  0.487123
     spin moment: S , {S} =    0.00000  -0.00000   0.00000   0.00000
   scf:    9    -4147.142128    -4147.120987    -4147.120987  0.007073 -3.764392  0.327954
     spin moment: S , {S} =    0.00000  -0.00000  -0.00000   0.00000
   scf:   10    -4147.171217    -4147.141391    -4147.141391  0.018837 -3.812157  0.172956
     spin moment: S , {S} =    0.00000   0.00000   0.00000  -0.00000
   scf:   11    -4147.144508    -4147.142884    -4147.142884  0.005258 -3.802758  0.046565
     spin moment: S , {S} =    0.00000   0.00000   0.00000  -0.00000
   scf:   12    -4147.143635    -4147.143269    -4147.143269  0.001484 -3.798015  0.027902
     spin moment: S , {S} =    0.00000   0.00000   0.00000   0.00000
   scf:   13    -4147.143686    -4147.143468    -4147.143468  0.001682 -3.794855  0.021369
     spin moment: S , {S} =    0.00000   0.00000   0.00000   0.00000
   scf:   14    -4147.143767    -4147.143607    -4147.143607  0.001665 -3.795432  0.016496
     spin moment: S , {S} =    0.00000   0.00000   0.00000   0.00000
   scf:   15    -4147.143814    -4147.143699    -4147.143699  0.001678 -3.794803  0.011564
     spin moment: S , {S} =    0.00000   0.00000   0.00000   0.00000
   scf:   16    -4147.143833    -4147.143754    -4147.143754  0.001697 -3.794520  0.006341
     spin moment: S , {S} =    0.00000   0.00000   0.00000   0.00000
   scf:   17    -4147.143787    -4147.143767    -4147.143767  0.000846 -3.794661  0.003672
     spin moment: S , {S} =    0.00000  -0.00000   0.00000   0.00000
   scf:   18    -4147.143777    -4147.143771    -4147.143771  0.000472 -3.794704  0.001516
     spin moment: S , {S} =    0.00000  -0.00000   0.00000   0.00000
   scf:   19    -4147.143774    -4147.143772    -4147.143772  0.000218 -3.794709  0.000818
     spin moment: S , {S} =    0.00000  -0.00000   0.00000   0.00000
   scf:   20    -4147.143773    -4147.143773    -4147.143773  0.000074 -3.794708  0.000522
     spin moment: S , {S} =    0.00000  -0.00000   0.00000   0.00000
   scf:   21    -4147.143773    -4147.143773    -4147.143773  0.000066 -3.794714  0.000222
     spin moment: S , {S} =    0.00000  -0.00000   0.00000   0.00000
   scf:   22    -4147.143773    -4147.143773    -4147.143773  0.000033 -3.794721  0.000104
     spin moment: S , {S} =    0.00000  -0.00000   0.00000  -0.00000
   scf:   23    -4147.143773    -4147.143773    -4147.143773  0.000003 -3.794722  0.000102
     spin moment: S , {S} =    0.00000  -0.00000   0.00000  -0.00000
   scf:   24    -4147.143773    -4147.143773    -4147.143773  0.000006 -3.794721  0.000098
     spin moment: S , {S} =    0.00000  -0.00000   0.00000  -0.00000
mix: Pulay -- resetting history
   scf:   25    -4147.143773    -4147.143773    -4147.143773  0.000008 -3.794717  0.000062
     spin moment: S , {S} =    0.00000  -0.00000   0.00000  -0.00000
   scf:   26    -4147.143773    -4147.143773    -4147.143773  0.000006 -3.794714  0.000040
     spin moment: S , {S} =    0.00000  -0.00000   0.00000  -0.00000
   scf:   27    -4147.143773    -4147.143773    -4147.143773  0.000004 -3.794712  0.000026
     spin moment: S , {S} =    0.00000  -0.00000   0.00000  -0.00000
   scf:   28    -4147.143773    -4147.143773    -4147.143773  0.000004 -3.794711  0.000011
     spin moment: S , {S} =    0.00000  -0.00000   0.00000   0.00000
   scf:   29    -4147.143773    -4147.143773    -4147.143773  0.000001 -3.794711  0.000006
     spin moment: S , {S} =    0.00000  -0.00000   0.00000   0.00000
   scf:   30    -4147.143773    -4147.143773    -4147.143773  0.000001 -3.794712  0.000002
     spin moment: S , {S} =    0.00000  -0.00000   0.00000   0.00000
   scf:   31    -4147.143773    -4147.143773    -4147.143773  0.000000 -3.794712  0.000001
     spin moment: S , {S} =    0.00000  -0.00000   0.00000   0.00000
   scf:   32    -4147.143773    -4147.143773    -4147.143773  0.000000 -3.794712  0.000001
     spin moment: S , {S} =    0.00000  -0.00000   0.00000   0.00000

SCF Convergence by DM+H criterion
max |DM_out - DM_in|         :     0.0000001628
max |H_out - H_in|      (eV) :     0.0000008254
SCF cycle converged after 32 iterations

Using DM_out to compute the final energy and forces
No. of atoms with KB's overlaping orbs in proc 0. Max # of overlaps:      29     189

siesta: E_KS(eV) =            -4147.1438

siesta: E_KS - E_eggbox =     -4147.1438
     spin moment: S , {S} =    0.00000  -0.00000   0.00000   0.00000

siesta: Atomic forces (eV/Ang):
     1    0.301782   -1.723518   -0.000000
     2   -0.026019   -0.083913    0.000000
     3   -0.260698    0.192492   -0.000000
     4   -0.349015   -0.057711   -0.000000
     5   -0.024185    0.010977   -0.000000
     6   -0.306147   -0.006452    0.000000
     7   -0.023426    0.078564   -0.000000
     8    0.185530   -0.059156    0.000000
     9    0.186416   -0.387849    0.000000
    10    0.522874   -0.023567    0.000000
    11   -0.020812    0.033101    0.000000
    12   -0.013268   -0.059802    0.000000
    13    0.067354    0.056244   -0.000000
    14   -0.038650    0.002172   -0.000000
    15    0.439897    0.292847    0.000000
    16    0.091029    0.177103   -0.000000
    17   -0.469686    0.305043   -0.000000
    18    0.080680   -0.066120    0.000000
    19    0.024015    0.499316   -0.000000
    20   -0.024602    0.141689   -0.000000
    21    0.136417   -0.429453    0.000000
    22    0.415368   -0.020309   -0.000000
    23   -0.075342   -0.217015    0.000000
    24   -0.079104    0.186480    0.000000
    25   -0.104773    0.006159   -0.000000
    26   -0.066193    0.185144    0.000000
    27   -0.283902   -0.209287    0.000000
    28   -0.109193    2.365927    0.000000
    29    0.105921    0.055133    0.000000
----------------------------------------
   Tot    0.282267    1.244238    0.000000
----------------------------------------
   Max    2.365927
   Res    0.357094    sqrt( Sum f_i^2 / 3N )
----------------------------------------
   Max    2.365927    constrained

Stress tensor Voigt[x,y,z,yz,xz,xy] (kbar):        1.08        0.15       -0.08        0.00       -0.00        0.52
(Free)E + p*V (eV/cell)    -4148.2837
Target enthalpy (eV/cell)    -4147.1438

mulliken: Atomic and Orbital Populations:

Species: O                   

Atom      Orb        Charge      Spin       Svec
----------------------------------------------------------------
    1  1 2s         1.74912   0.00000      0.000   0.000   0.000
    1  2 2s         0.06162   0.00000     -0.000  -0.000   0.000
    1  3 2py        1.43012   0.00000     -0.000   0.000   0.000
    1  4 2pz        1.56575   0.00000      0.000   0.000   0.000
    1  5 2px        1.62653   0.00000      0.000   0.000   0.000
    1  6 2py        0.04351   0.00000      0.000   0.000   0.000
    1  7 2pz       -0.00823   0.00000     -0.000   0.000   0.000
    1  8 2px        0.00265   0.00000     -0.000  -0.000   0.000
    1  9 3Pdxy      0.00690   0.00000     -0.000   0.000   0.000
    1 10 3Pdyz      0.00886   0.00000      0.000  -0.000  -0.000
    1 11 3Pdz2      0.00150   0.00000     -0.000  -0.000   0.000
    1 12 3Pdxz      0.00032   0.00000      0.000  -0.000   0.000
    1 13 3Pdx2-y2   0.00670   0.00000      0.000   0.000  -0.000
    1     Total     6.49534   0.00000      0.000   0.000   0.000

   28  1 2s         1.74169   0.00000     -0.000  -0.000   0.000
   28  2 2s         0.06376   0.00000      0.000   0.000   0.000
   28  3 2py        1.42328   0.00000     -0.000  -0.000   0.000
   28  4 2pz        1.55766   0.00000     -0.000   0.000   0.000
   28  5 2px        1.63839   0.00000      0.000  -0.000   0.000
   28  6 2py        0.04609   0.00000      0.000   0.000   0.000
   28  7 2pz       -0.00586   0.00000      0.000  -0.000   0.000
   28  8 2px        0.01011   0.00000     -0.000   0.000   0.000
   28  9 3Pdxy      0.00686   0.00000     -0.000  -0.000   0.000
   28 10 3Pdyz      0.00996   0.00000     -0.000  -0.000  -0.000
   28 11 3Pdz2      0.00113   0.00000      0.000  -0.000  -0.000
   28 12 3Pdxz     -0.00015   0.00000     -0.000  -0.000  -0.000
   28 13 3Pdx2-y2   0.00753   0.00000      0.000   0.000  -0.000
   28     Total     6.50045   0.00000     -0.000  -0.000   0.000

----------------------------------------------------------------
Total              12.99579   0.00000      0.000  -0.000   0.000


Species: N                   

Atom      Orb        Charge      Spin       Svec
----------------------------------------------------------------
    2  1 2s         1.54854   0.00000     -0.000  -0.000  -0.000
    2  2 2s         0.08471   0.00000      0.000   0.000   0.000
    2  3 2py        1.03202   0.00000     -0.000  -0.000  -0.000
    2  4 2pz        1.22411   0.00000     -0.000  -0.000  -0.000
    2  5 2px        1.00700   0.00000     -0.000  -0.000  -0.000
    2  6 2py        0.19266   0.00000      0.000   0.000   0.000
    2  7 2pz        0.05444   0.00000     -0.000  -0.000   0.000
    2  8 2px        0.19051   0.00000      0.000   0.000   0.000
    2  9 3Pdxy      0.00840   0.00000      0.000  -0.000   0.000
    2 10 3Pdyz      0.01081   0.00000      0.000   0.000   0.000
    2 11 3Pdz2      0.00194   0.00000      0.000   0.000   0.000
    2 12 3Pdxz      0.00754   0.00000      0.000  -0.000   0.000
    2 13 3Pdx2-y2   0.00891   0.00000      0.000   0.000  -0.000
    2     Total     5.37158   0.00000     -0.000  -0.000  -0.000

    3  1 2s         1.39925   0.00000      0.000  -0.000   0.000
    3  2 2s         0.11798   0.00000      0.000   0.000   0.000
    3  3 2py        0.93891   0.00000     -0.000   0.000   0.000
    3  4 2pz        1.53929   0.00000     -0.000  -0.000   0.000
    3  5 2px        1.09884   0.00000     -0.000  -0.000   0.000
    3  6 2py        0.24963   0.00000      0.000  -0.000   0.000
    3  7 2pz        0.00736   0.00000     -0.000   0.000   0.000
    3  8 2px        0.16971   0.00000     -0.000  -0.000   0.000
    3  9 3Pdxy      0.00416   0.00000      0.000   0.000   0.000
    3 10 3Pdyz      0.00404   0.00000     -0.000   0.000  -0.000
    3 11 3Pdz2      0.00076   0.00000      0.000   0.000  -0.000
    3 12 3Pdxz      0.00260   0.00000      0.000   0.000  -0.000
    3 13 3Pdx2-y2   0.00286   0.00000     -0.000  -0.000  -0.000
    3     Total     5.53538   0.00000     -0.000  -0.000   0.000

    4  1 2s         1.46956   0.00000     -0.000   0.000   0.000
    4  2 2s         0.11667   0.00000      0.000  -0.000   0.000
    4  3 2py        1.10384   0.00000     -0.000   0.000   0.000
    4  4 2pz        1.29269   0.00000     -0.000  -0.000   0.000
    4  5 2px        0.84132   0.00000     -0.000  -0.000   0.000
    4  6 2py        0.15615   0.00000      0.000  -0.000   0.000
    4  7 2pz        0.05330   0.00000      0.000   0.000   0.000
    4  8 2px        0.28674   0.00000      0.000   0.000   0.000
    4  9 3Pdxy      0.00857   0.00000     -0.000  -0.000   0.000
    4 10 3Pdyz      0.01078   0.00000      0.000   0.000  -0.000
    4 11 3Pdz2      0.00132   0.00000      0.000  -0.000   0.000
    4 12 3Pdxz      0.00488   0.00000      0.000  -0.000   0.000
    4 13 3Pdx2-y2   0.00853   0.00000      0.000  -0.000  -0.000
    4     Total     5.35433   0.00000     -0.000  -0.000   0.000

    5  1 2s         1.37351   0.00000     -0.000  -0.000  -0.000
    5  2 2s         0.12900   0.00000      0.000  -0.000   0.000
    5  3 2py        1.02717   0.00000     -0.000  -0.000  -0.000
    5  4 2pz        1.50111   0.00000     -0.000  -0.000  -0.000
    5  5 2px        1.05897   0.00000     -0.000   0.000  -0.000
    5  6 2py        0.20327   0.00000      0.000   0.000   0.000
    5  7 2pz        0.01348   0.00000      0.000  -0.000   0.000
    5  8 2px        0.20263   0.00000      0.000  -0.000   0.000
    5  9 3Pdxy      0.00368   0.00000      0.000   0.000  -0.000
    5 10 3Pdyz      0.00250   0.00000      0.000  -0.000   0.000
    5 11 3Pdz2      0.00138   0.00000      0.000   0.000   0.000
    5 12 3Pdxz      0.00677   0.00000      0.000   0.000   0.000
    5 13 3Pdx2-y2   0.00572   0.00000      0.000   0.000   0.000
    5     Total     5.52919   0.00000     -0.000  -0.000  -0.000

    6  1 2s         1.26271   0.00000      0.000  -0.000  -0.000
    6  2 2s         0.18188   0.00000     -0.000   0.000   0.000
    6  3 2py        1.08142   0.00000     -0.000  -0.000  -0.000
    6  4 2pz        1.56366   0.00000     -0.000   0.000  -0.000
    6  5 2px        0.97794   0.00000     -0.000   0.000  -0.000
    6  6 2py        0.18887   0.00000     -0.000   0.000   0.000
    6  7 2pz        0.02951   0.00000      0.000  -0.000   0.000
    6  8 2px        0.25222   0.00000      0.000  -0.000   0.000
    6  9 3Pdxy      0.00231   0.00000      0.000   0.000   0.000
    6 10 3Pdyz      0.00008   0.00000      0.000  -0.000  -0.000
    6 11 3Pdz2      0.00153   0.00000     -0.000   0.000   0.000
    6 12 3Pdxz      0.00300   0.00000     -0.000   0.000  -0.000
    6 13 3Pdx2-y2   0.00311   0.00000      0.000  -0.000   0.000
    6     Total     5.54824   0.00000     -0.000   0.000  -0.000

   21  1 2s         1.40485   0.00000      0.000  -0.000   0.000
   21  2 2s         0.13475   0.00000     -0.000  -0.000   0.000
   21  3 2py        0.87325   0.00000      0.000  -0.000   0.000
   21  4 2pz        1.30239   0.00000     -0.000  -0.000   0.000
   21  5 2px        1.16250   0.00000      0.000  -0.000   0.000
   21  6 2py        0.28095   0.00000     -0.000   0.000   0.000
   21  7 2pz        0.04838   0.00000      0.000   0.000   0.000
   21  8 2px        0.16190   0.00000     -0.000  -0.000   0.000
   21  9 3Pdxy      0.00625   0.00000      0.000   0.000   0.000
   21 10 3Pdyz      0.00497   0.00000     -0.000  -0.000  -0.000
   21 11 3Pdz2     -0.00013   0.00000      0.000  -0.000   0.000
   21 12 3Pdxz      0.00586   0.00000      0.000  -0.000  -0.000
   21 13 3Pdx2-y2   0.00572   0.00000     -0.000   0.000  -0.000
   21     Total     5.39164   0.00000      0.000  -0.000   0.000

   22  1 2s         1.28108   0.00000      0.000  -0.000   0.000
   22  2 2s         0.17399   0.00000     -0.000   0.000  -0.000
   22  3 2py        1.07517   0.00000      0.000  -0.000  -0.000
   22  4 2pz        1.54065   0.00000      0.000   0.000  -0.000
   22  5 2px        1.01150   0.00000      0.000  -0.000  -0.000
   22  6 2py        0.19374   0.00000     -0.000   0.000   0.000
   22  7 2pz        0.02820   0.00000      0.000  -0.000   0.000
   22  8 2px        0.23123   0.00000     -0.000   0.000   0.000
   22  9 3Pdxy      0.00331   0.00000     -0.000   0.000  -0.000
   22 10 3Pdyz      0.00009   0.00000     -0.000   0.000  -0.000
   22 11 3Pdz2      0.00243   0.00000     -0.000   0.000   0.000
   22 12 3Pdxz      0.00300   0.00000     -0.000   0.000   0.000
   22 13 3Pdx2-y2   0.00338   0.00000      0.000   0.000   0.000
   22     Total     5.54778   0.00000      0.000   0.000  -0.000

   23  1 2s         1.38917   0.00000     -0.000  -0.000   0.000
   23  2 2s         0.12155   0.00000      0.000  -0.000  -0.000
   23  3 2py        0.99635   0.00000      0.000  -0.000  -0.000
   23  4 2pz        1.52406   0.00000      0.000  -0.000  -0.000
   23  5 2px        1.07214   0.00000     -0.000   0.000   0.000
   23  6 2py        0.22218   0.00000     -0.000   0.000   0.000
   23  7 2pz        0.00506   0.00000     -0.000  -0.000   0.000
   23  8 2px        0.19276   0.00000      0.000  -0.000   0.000
   23  9 3Pdxy      0.00529   0.00000      0.000  -0.000  -0.000
   23 10 3Pdyz      0.00453   0.00000     -0.000   0.000  -0.000
   23 11 3Pdz2      0.00064   0.00000     -0.000   0.000  -0.000
   23 12 3Pdxz      0.00230   0.00000      0.000   0.000  -0.000
   23 13 3Pdx2-y2   0.00122   0.00000     -0.000  -0.000  -0.000
   23     Total     5.53726   0.00000     -0.000  -0.000   0.000

----------------------------------------------------------------
Total              56.81118   0.00000      0.000  -0.000   0.000


Species: Si                  

Atom      Orb        Charge      Spin       Svec
----------------------------------------------------------------
    7  1 3s         0.68816   0.00000     -0.000  -0.000   0.000
    7  2 3s         0.35790   0.00000      0.000   0.000   0.000
    7  3 3py        0.46533   0.00000     -0.000   0.000   0.000
    7  4 3pz        0.70478   0.00000     -0.000  -0.000   0.000
    7  5 3px        0.13400   0.00000      0.000   0.000   0.000
    7  6 3py        0.27758   0.00000      0.000  -0.000   0.000
    7  7 3pz        0.25828   0.00000      0.000   0.000   0.000
    7  8 3px        0.42339   0.00000     -0.000  -0.000   0.000
    7  9 3Pdxy      0.24275   0.00000     -0.000  -0.000   0.000
    7 10 3Pdyz      0.03007   0.00000     -0.000   0.000  -0.000
    7 11 3Pdz2      0.01194   0.00000      0.000   0.000  -0.000
    7 12 3Pdxz      0.13860   0.00000     -0.000   0.000  -0.000
    7 13 3Pdx2-y2   0.11348   0.00000     -0.000  -0.000  -0.000
    7     Total     3.84627   0.00000     -0.000  -0.000   0.000

    8  1 3s         0.64789   0.00000      0.000  -0.000  -0.000
    8  2 3s         0.37118   0.00000     -0.000   0.000   0.000
    8  3 3py        0.38850   0.00000      0.000  -0.000  -0.000
    8  4 3pz        0.51801   0.00000     -0.000  -0.000   0.000
    8  5 3px       -0.02903   0.00000     -0.000  -0.000  -0.000
    8  6 3py        0.30365   0.00000     -0.000   0.000  -0.000
    8  7 3pz        0.20373   0.00000     -0.000  -0.000   0.000
    8  8 3px        0.52033   0.00000      0.000   0.000  -0.000
    8  9 3Pdxy      0.26004   0.00000      0.000  -0.000  -0.000
    8 10 3Pdyz      0.11037   0.00000     -0.000  -0.000   0.000
    8 11 3Pdz2      0.01300   0.00000     -0.000  -0.000   0.000
    8 12 3Pdxz      0.15721   0.00000     -0.000  -0.000  -0.000
    8 13 3Pdx2-y2   0.18856   0.00000      0.000  -0.000  -0.000
    8     Total     3.65343   0.00000     -0.000  -0.000  -0.000

    9  1 3s         0.62772   0.00000      0.000   0.000  -0.000
    9  2 3s         0.35801   0.00000     -0.000  -0.000  -0.000
    9  3 3py        0.09781   0.00000     -0.000   0.000  -0.000
    9  4 3pz        0.48150   0.00000      0.000   0.000  -0.000
    9  5 3px        0.36564   0.00000     -0.000  -0.000  -0.000
    9  6 3py        0.42675   0.00000      0.000  -0.000  -0.000
    9  7 3pz        0.18383   0.00000     -0.000   0.000  -0.000
    9  8 3px        0.27126   0.00000      0.000  -0.000  -0.000
    9  9 3Pdxy      0.30670   0.00000      0.000   0.000  -0.000
    9 10 3Pdyz      0.19281   0.00000      0.000   0.000  -0.000
    9 11 3Pdz2      0.01443   0.00000     -0.000  -0.000  -0.000
    9 12 3Pdxz      0.09126   0.00000      0.000   0.000  -0.000
    9 13 3Pdx2-y2   0.15709   0.00000      0.000   0.000  -0.000
    9     Total     3.57481   0.00000      0.000   0.000  -0.000

   10  1 3s         0.48105   0.00000     -0.000  -0.000  -0.000
   10  2 3s         0.38075   0.00000      0.000   0.000   0.000
   10  3 3py        0.23749   0.00000      0.000   0.000  -0.000
   10  4 3pz        0.40948   0.00000      0.000  -0.000  -0.000
   10  5 3px        0.10250   0.00000     -0.000   0.000  -0.000
   10  6 3py        0.33519   0.00000     -0.000  -0.000   0.000
   10  7 3pz        0.22051   0.00000      0.000   0.000  -0.000
   10  8 3px        0.42584   0.00000     -0.000  -0.000  -0.000
   10  9 3Pdxy      0.16399   0.00000     -0.000  -0.000  -0.000
   10 10 3Pdyz      0.14606   0.00000      0.000   0.000  -0.000
   10 11 3Pdz2      0.01102   0.00000      0.000  -0.000  -0.000
   10 12 3Pdxz      0.17187   0.00000      0.000   0.000  -0.000
   10 13 3Pdx2-y2   0.32040   0.00000      0.000  -0.000  -0.000
   10     Total     3.40616   0.00000      0.000   0.000  -0.000

   11  1 3s         0.55879   0.00000      0.000   0.000   0.000
   11  2 3s         0.38184   0.00000      0.000   0.000   0.000
   11  3 3py        0.30511   0.00000      0.000  -0.000   0.000
   11  4 3pz        0.54440   0.00000      0.000   0.000   0.000
   11  5 3px        0.13970   0.00000      0.000   0.000   0.000
   11  6 3py        0.30258   0.00000     -0.000   0.000   0.000
   11  7 3pz        0.17657   0.00000      0.000   0.000   0.000
   11  8 3px        0.43132   0.00000      0.000   0.000   0.000
   11  9 3Pdxy      0.24412   0.00000      0.000   0.000   0.000
   11 10 3Pdyz      0.12505   0.00000     -0.000  -0.000   0.000
   11 11 3Pdz2      0.00941   0.00000      0.000  -0.000   0.000
   11 12 3Pdxz      0.05290   0.00000      0.000   0.000   0.000
   11 13 3Pdx2-y2   0.18405   0.00000     -0.000  -0.000   0.000
   11     Total     3.45583   0.00000      0.000   0.000   0.000

   17  1 3s         0.64567   0.00000      0.000   0.000   0.000
   17  2 3s         0.35869   0.00000     -0.000  -0.000   0.000
   17  3 3py        0.24594   0.00000      0.000   0.000  -0.000
   17  4 3pz        0.42377   0.00000      0.000   0.000  -0.000
   17  5 3px        0.22634   0.00000     -0.000  -0.000  -0.000
   17  6 3py        0.36807   0.00000     -0.000  -0.000  -0.000
   17  7 3pz        0.21424   0.00000     -0.000  -0.000   0.000
   17  8 3px        0.38169   0.00000      0.000  -0.000  -0.000
   17  9 3Pdxy      0.29228   0.00000      0.000   0.000  -0.000
   17 10 3Pdyz      0.13782   0.00000     -0.000   0.000   0.000
   17 11 3Pdz2      0.00939   0.00000      0.000   0.000  -0.000
   17 12 3Pdxz      0.14856   0.00000     -0.000   0.000   0.000
   17 13 3Pdx2-y2   0.17106   0.00000     -0.000   0.000  -0.000
   17     Total     3.62353   0.00000     -0.000   0.000  -0.000

   18  1 3s         0.74505   0.00000     -0.000   0.000   0.000
   18  2 3s         0.33950   0.00000      0.000  -0.000   0.000
   18  3 3py        0.08373   0.00000     -0.000   0.000   0.000
   18  4 3pz        0.82366   0.00000     -0.000   0.000   0.000
   18  5 3px        0.54509   0.00000     -0.000   0.000   0.000
   18  6 3py        0.51684   0.00000     -0.000  -0.000   0.000
   18  7 3pz        0.19783   0.00000      0.000   0.000   0.000
   18  8 3px        0.25373   0.00000      0.000  -0.000   0.000
   18  9 3Pdxy      0.10831   0.00000      0.000   0.000  -0.000
   18 10 3Pdyz      0.02786   0.00000     -0.000   0.000  -0.000
   18 11 3Pdz2      0.00923   0.00000     -0.000  -0.000  -0.000
   18 12 3Pdxz      0.02967   0.00000     -0.000   0.000  -0.000
   18 13 3Pdx2-y2   0.10513   0.00000     -0.000   0.000  -0.000
   18     Total     3.78561   0.00000     -0.000   0.000   0.000

   19  1 3s         0.45709   0.00000      0.000   0.000  -0.000
   19  2 3s         0.36411   0.00000     -0.000  -0.000  -0.000
   19  3 3py        0.08194   0.00000     -0.000  -0.000  -0.000
   19  4 3pz        0.41627   0.00000     -0.000  -0.000  -0.000
   19  5 3px        0.33232   0.00000     -0.000  -0.000  -0.000
   19  6 3py        0.46556   0.00000      0.000   0.000  -0.000
   19  7 3pz        0.18768   0.00000      0.000   0.000  -0.000
   19  8 3px        0.25385   0.00000      0.000   0.000  -0.000
   19  9 3Pdxy      0.34724   0.00000     -0.000   0.000  -0.000
   19 10 3Pdyz      0.19100   0.00000      0.000   0.000  -0.000
   19 11 3Pdz2      0.01477   0.00000     -0.000   0.000  -0.000
   19 12 3Pdxz      0.08848   0.00000      0.000   0.000  -0.000
   19 13 3Pdx2-y2   0.23343   0.00000      0.000   0.000  -0.000
   19     Total     3.43372   0.00000     -0.000   0.000  -0.000

   20  1 3s         0.67410   0.00000     -0.000  -0.000   0.000
   20  2 3s         0.37942   0.00000      0.000  -0.000  -0.000
   20  3 3py        0.33859   0.00000     -0.000   0.000  -0.000
   20  4 3pz        0.58597   0.00000      0.000  -0.000  -0.000
   20  5 3px        0.13927   0.00000      0.000   0.000   0.000
   20  6 3py        0.28855   0.00000      0.000  -0.000   0.000
   20  7 3pz        0.16293   0.00000     -0.000   0.000  -0.000
   20  8 3px        0.49921   0.00000     -0.000  -0.000   0.000
   20  9 3Pdxy      0.10253   0.00000     -0.000   0.000  -0.000
   20 10 3Pdyz      0.13406   0.00000      0.000   0.000  -0.000
   20 11 3Pdz2      0.00742   0.00000     -0.000   0.000   0.000
   20 12 3Pdxz      0.02673   0.00000      0.000   0.000  -0.000
   20 13 3Pdx2-y2   0.17209   0.00000      0.000   0.000   0.000
   20     Total     3.51086   0.00000      0.000  -0.000  -0.000

----------------------------------------------------------------
Total              89.10140   0.00000     -0.000  -0.000   0.000


Species: H                   

Atom      Orb        Charge      Spin       Svec
----------------------------------------------------------------
   12  1 1s         0.48232   0.00000      0.000   0.000  -0.000
   12  2 1s         0.18668   0.00000     -0.000  -0.000   0.000
   12  3 2Ppy       0.02936   0.00000     -0.000   0.000  -0.000
   12  4 2Ppz       0.03321   0.00000     -0.000   0.000  -0.000
   12  5 2Ppx       0.02538   0.00000      0.000  -0.000  -0.000
   12     Total     0.75696   0.00000      0.000   0.000  -0.000

   13  1 1s         1.02098   0.00000      0.000  -0.000  -0.000
   13  2 1s         0.09458   0.00000     -0.000  -0.000   0.000
   13  3 2Ppy       0.01982   0.00000     -0.000   0.000   0.000
   13  4 2Ppz       0.02019   0.00000      0.000   0.000   0.000
   13  5 2Ppx       0.03316   0.00000     -0.000  -0.000   0.000
   13     Total     1.18873   0.00000      0.000   0.000  -0.000

   14  1 1s         0.47032   0.00000     -0.000   0.000  -0.000
   14  2 1s         0.19891   0.00000      0.000  -0.000   0.000
   14  3 2Ppy       0.01884   0.00000      0.000  -0.000  -0.000
   14  4 2Ppz       0.04756   0.00000      0.000   0.000  -0.000
   14  5 2Ppx       0.01789   0.00000     -0.000  -0.000  -0.000
   14     Total     0.75352   0.00000      0.000  -0.000  -0.000

   15  1 1s         0.45153   0.00000      0.000  -0.000   0.000
   15  2 1s         0.20024   0.00000     -0.000   0.000   0.000
   15  3 2Ppy       0.00790   0.00000     -0.000  -0.000   0.000
   15  4 2Ppz       0.04289   0.00000      0.000  -0.000  -0.000
   15  5 2Ppx       0.03737   0.00000     -0.000  -0.000  -0.000
   15     Total     0.73993   0.00000      0.000  -0.000   0.000

   16  1 1s         0.50747   0.00000     -0.000  -0.000  -0.000
   16  2 1s         0.18757   0.00000     -0.000  -0.000   0.000
   16  3 2Ppy       0.03003   0.00000     -0.000  -0.000  -0.000
   16  4 2Ppz       0.03943   0.00000      0.000  -0.000  -0.000
   16  5 2Ppx       0.02317   0.00000     -0.000  -0.000   0.000
   16     Total     0.78767   0.00000      0.000  -0.000  -0.000

   24  1 1s         1.05701   0.00000     -0.000   0.000  -0.000
   24  2 1s         0.07624   0.00000      0.000   0.000   0.000
   24  3 2Ppy       0.03155   0.00000     -0.000   0.000   0.000
   24  4 2Ppz       0.03114   0.00000      0.000   0.000  -0.000
   24  5 2Ppx       0.01760   0.00000      0.000  -0.000  -0.000
   24     Total     1.21355   0.00000      0.000   0.000  -0.000

   25  1 1s         1.04752   0.00000     -0.000   0.000  -0.000
   25  2 1s         0.08401   0.00000      0.000   0.000   0.000
   25  3 2Ppy       0.01170   0.00000     -0.000   0.000  -0.000
   25  4 2Ppz       0.01805   0.00000      0.000  -0.000  -0.000
   25  5 2Ppx       0.03641   0.00000      0.000   0.000   0.000
   25     Total     1.19769   0.00000     -0.000   0.000  -0.000

   26  1 1s         0.47920   0.00000      0.000  -0.000  -0.000
   26  2 1s         0.19847   0.00000      0.000   0.000   0.000
   26  3 2Ppy       0.01953   0.00000      0.000   0.000   0.000
   26  4 2Ppz       0.05086   0.00000      0.000  -0.000  -0.000
   26  5 2Ppx       0.01658   0.00000      0.000  -0.000  -0.000
   26     Total     0.76464   0.00000      0.000  -0.000  -0.000

   27  1 1s         0.44861   0.00000      0.000   0.000   0.000
   27  2 1s         0.19799   0.00000     -0.000  -0.000   0.000
   27  3 2Ppy       0.01105   0.00000     -0.000   0.000  -0.000
   27  4 2Ppz       0.03853   0.00000      0.000   0.000  -0.000
   27  5 2Ppx       0.04125   0.00000      0.000   0.000   0.000
   27     Total     0.73743   0.00000      0.000   0.000   0.000

   29  1 1s         0.48581   0.00000     -0.000   0.000  -0.000
   29  2 1s         0.18810   0.00000      0.000  -0.000   0.000
   29  3 2Ppy       0.02517   0.00000      0.000  -0.000  -0.000
   29  4 2Ppz       0.03455   0.00000      0.000  -0.000  -0.000
   29  5 2Ppx       0.02485   0.00000      0.000   0.000  -0.000
   29     Total     0.75848   0.00000      0.000  -0.000  -0.000

----------------------------------------------------------------
Total              98.00000   0.00000     -0.000   0.000   0.000


siesta: Eigenvalues (eV):
ik =     1
  -22.3069  -22.3069  -22.0089  -22.0089  -21.4012  -21.4012  -21.2655  -21.2655  -21.2480  -21.2480
  -21.1791  -21.1791  -20.5893  -20.5893  -19.7237  -19.7237  -19.5657  -19.5657  -19.3574  -19.3574
  -14.7472  -14.7472  -13.8320  -13.8320  -13.2759  -13.2759  -13.1397  -13.1397  -12.8927  -12.8927
  -12.7752  -12.7752  -12.5956  -12.5956  -12.1701  -12.1701  -12.1169  -12.1169  -11.9692  -11.9692
  -11.2260  -11.2260  -10.7882  -10.7882  -10.6664  -10.6664  -10.5412  -10.5412  -10.1230  -10.1230
   -9.6166   -9.6166   -9.0693   -9.0693   -8.9561   -8.9561   -8.7721   -8.7721   -8.6239   -8.6239
   -8.5067   -8.5067   -8.4920   -8.4920   -8.0800   -8.0800   -8.0314   -8.0314   -7.8534   -7.8534
   -7.6215   -7.6215   -7.4327   -7.4327   -7.1787   -7.1787   -6.9159   -6.9159   -6.6850   -6.6850
   -6.6528   -6.6528   -6.4670   -6.4670   -6.3059   -6.3059   -6.2961   -6.2961   -6.2310   -6.2310
   -6.2202   -6.2202   -5.9871   -5.9871   -5.5082   -5.5082   -4.3567   -4.3567   -3.2341   -3.2341
   -2.3924   -2.3924   -2.2770   -2.2770   -2.2510   -2.2510   -1.9546   -1.9546   -1.8984   -1.8984
   -1.8075   -1.8075   -1.7744   -1.7744   -1.6364   -1.6364   -1.3274   -1.3274   -1.2469   -1.2469
   -1.0639   -1.0639   -0.6750   -0.6750   -0.4181   -0.4181   -0.3024   -0.3024    0.2915    0.2915
    0.3631    0.3631    0.4766    0.4766    0.6991    0.6991    0.7655    0.7655    1.1606    1.1606
    1.2783    1.2783    1.3292    1.3292    1.4253    1.4253    1.4264    1.4264    1.7076    1.7076
    1.9794    1.9794    2.0063    2.0063    2.5425    2.5425    2.6761    2.6761    2.7198    2.7198
    2.7307    2.7307    2.9524    2.9524    3.0059    3.0059    3.3636    3.3636    3.3980    3.3980
    3.7610    3.7610    3.9106    3.9106    4.0925    4.0925    4.1026    4.1026    4.3342    4.3342
    4.4856    4.4856    4.6561    4.6561    4.7191    4.7191    4.7266    4.7266    4.9031    4.9031
    5.1140    5.1140    5.1197    5.1197    5.2683    5.2683    5.5766    5.5766    5.5959    5.5959
    5.9189    5.9189    5.9292    5.9292    6.0060    6.0060    6.3035    6.3035    6.3209    6.3209
    6.4297    6.4297    6.5503    6.5503    6.5681    6.5681    6.6914    6.6914    7.0105    7.0105
    7.0635    7.0635    7.1974    7.1974    7.4405    7.4405    7.7358    7.7358    7.8629    7.8629
    7.9814    7.9814    8.0674    8.0674    8.1137    8.1137    8.2851    8.2851    8.6161    8.6161
    8.7364    8.7364    8.8341    8.8341    8.9192    8.9192    8.9728    8.9728    9.2633    9.2633
    9.3320    9.3320    9.6536    9.6536    9.7741    9.7741    9.7820    9.7820    9.9698    9.9698
   10.0571   10.0571   10.3121   10.3121   10.4496   10.4496   10.9264   10.9264   10.9954   10.9954
   11.1755   11.1755   11.2384   11.2384   11.8191   11.8191   12.0088   12.0088   12.1600   12.1600
   12.2200   12.2200   12.2689   12.2689   12.3362   12.3362   12.5863   12.5863   12.7323   12.7323
   12.8858   12.8858   13.0411   13.0411   13.5314   13.5314   13.5973   13.5973   13.9361   13.9361
   14.0125   14.0125   14.0780   14.0780   14.2871   14.2871   14.4779   14.4779   14.7375   14.7375
   15.1526   15.1526   15.5712   15.5712   15.9882   15.9882   16.5466   16.5466   16.7330   16.7330
   17.0099   17.0099   17.4454   17.4454   17.7912   17.7912   18.4950   18.4950   18.6290   18.6290
   19.2508   19.2508   19.5782   19.5782   19.8978   19.8978   20.1869   20.1869   20.3586   20.3586
   21.1996   21.1996   21.4320   21.4320   21.9574   21.9574   22.4406   22.4406   22.6987   22.6987
   23.1632   23.1632   23.5566   23.5566   23.7001   23.7001   23.9796   23.9796   24.5227   24.5227
   24.9035   24.9035   24.9897   24.9897   26.3544   26.3544   27.2254   27.2254   28.4274   28.4274
   28.8550   28.8550   29.2518   29.2518   29.4829   29.4829   29.9520   29.9520   30.1097   30.1097
   30.3342   30.3342   30.7023   30.7023   30.7596   30.7596   30.9357   30.9357   31.1455   31.1455
   31.4567   31.4567   31.6961   31.6961   32.1891   32.1891   32.7960   32.7960   33.3525   33.3525
   34.2388   34.2388   34.3585   34.3585   34.4000   34.4000   34.4328   34.4328   34.6041   34.6041
   35.2236   35.2236   35.5369   35.5369   35.7356   35.7356   36.1828   36.1828   36.7464   36.7464
   36.9958   36.9958   37.9870   37.9870   38.1300   38.1300   38.1955   38.1955   38.5313   38.5313
   38.7309   38.7309   39.3707   39.3707   40.1016   40.1016   40.2497   40.2497   40.7008   40.7008
   40.7823   40.7823   40.9368   40.9368   41.2900   41.2900   41.4522   41.4522   41.7592   41.7592
   42.6625   42.6625   42.9486   42.9486   43.3456   43.3456   43.3765   43.3765   43.7725   43.7725
   43.9773   43.9773   44.4239   44.4239   44.5229   44.5229   44.8559   44.8559   45.0490   45.0490
   45.1378   45.1378   45.9963   45.9963   46.5326   46.5326   47.1802   47.1802   47.5479   47.5479
   47.7219   47.7219   48.7834   48.7834   49.1706   49.1706   49.4203   49.4203   50.0198   50.0198
   50.7139   50.7139   50.8994   50.8994   51.0850   51.0850   51.2263   51.2263   51.5486   51.5486
   51.8263   51.8263   52.4638   52.4638   53.4323   53.4323   54.8410   54.8410   54.9402   54.9402
   55.3822   55.3822   55.5401   55.5401   56.1785   56.1785   56.1813   56.1813   57.0154   57.0154
   57.0876   57.0876   57.9933   57.9933   58.1358   58.1358   59.6729   59.6729   60.1131   60.1131
   60.7009   60.7009   61.0606   61.0606   61.7292   61.7292   62.1569   62.1569   62.8852   62.8852
   64.1771   64.1771   64.1988   64.1988   65.0638   65.0638   65.6566   65.6566   67.0749   67.0749
   67.6034   67.6034   68.1938   68.1938   69.0721   69.0721   70.5668   70.5668   70.8721   70.8721
   74.4426   74.4426   84.9138   84.9138   90.7519   90.7519   91.7911   91.7911   93.8386   93.8386
   98.5348   98.5348   99.9807   99.9807  102.7627  102.7627  103.5493  103.5493  104.6036  104.6036
  111.9991  111.9991  113.6656  113.6656  124.1934  124.1934  126.6468  126.6468  132.8534  132.8534
  142.6219  142.6219  143.0429  143.0429
siesta: Fermi energy =      -3.794712 eV

siesta: Program's energy decomposition (eV):
siesta: Ebs     =     -1134.730495
siesta: Eions   =      3585.165840
siesta: Ena     =       384.890527
siesta: Ekin    =      2907.597389
siesta: Enl     =     -2795.469945
siesta: Eso     =        -0.004265
siesta: Edftu   =         0.000000
siesta: DEna    =        47.736362
siesta: DUscf   =        14.074754
siesta: DUext   =         0.000000
siesta: Exc     =     -1120.802754
siesta: eta*DQ  =         0.000000
siesta: Emadel  =         0.000000
siesta: Emeta   =         0.000000
siesta: Emolmec =         0.000000
siesta: Ekinion =         0.000000
siesta: Eharris =     -4147.143773
siesta: Etot    =     -4147.143773
siesta: FreeEng =     -4147.143773

siesta: Final energy (eV):
siesta:  Band Struct. =   -1134.730495
siesta:       Kinetic =    2907.597389
siesta:       Hartree =    8657.576963
siesta:       Edftu   =       0.000000
siesta:       Eso     =      -0.004265
siesta:    Ext. field =       0.000000
siesta:   Exch.-corr. =   -1120.802754
siesta:  Ion-electron =  -19902.541961
siesta:       Ion-ion =    5311.030856
siesta:       Ekinion =       0.000000
siesta:         Total =   -4147.143773
siesta:         Fermi =      -3.794712

siesta: Atomic forces (eV/Ang):
siesta:      1    0.301782   -1.723518   -0.000000
siesta:      2   -0.026019   -0.083913    0.000000
siesta:      3   -0.260698    0.192492   -0.000000
siesta:      4   -0.349015   -0.057711   -0.000000
siesta:      5   -0.024185    0.010977   -0.000000
siesta:      6   -0.306147   -0.006452    0.000000
siesta:      7   -0.023426    0.078564   -0.000000
siesta:      8    0.185530   -0.059156    0.000000
siesta:      9    0.186416   -0.387849    0.000000
siesta:     10    0.522874   -0.023567    0.000000
siesta:     11   -0.020812    0.033101    0.000000
siesta:     12   -0.013268   -0.059802    0.000000
siesta:     13    0.067354    0.056244   -0.000000
siesta:     14   -0.038650    0.002172   -0.000000
siesta:     15    0.439897    0.292847    0.000000
siesta:     16    0.091029    0.177103   -0.000000
siesta:     17   -0.469686    0.305043   -0.000000
siesta:     18    0.080680   -0.066120    0.000000
siesta:     19    0.024015    0.499316   -0.000000
siesta:     20   -0.024602    0.141689   -0.000000
siesta:     21    0.136417   -0.429453    0.000000
siesta:     22    0.415368   -0.020309   -0.000000
siesta:     23   -0.075342   -0.217015    0.000000
siesta:     24   -0.079104    0.186480    0.000000
siesta:     25   -0.104773    0.006159   -0.000000
siesta:     26   -0.066193    0.185144    0.000000
siesta:     27   -0.283902   -0.209287    0.000000
siesta:     28   -0.109193    2.365927    0.000000
siesta:     29    0.105921    0.055133    0.000000
siesta: ----------------------------------------
siesta:    Tot    0.282267    1.244238    0.000000

siesta: Stress tensor (static) (eV/Ang**3):
siesta:     0.000674    0.000322   -0.000000
siesta:     0.000322    0.000096   -0.000000
siesta:    -0.000000    0.000000   -0.000051

siesta: Cell volume =       4759.356638 Ang**3

siesta: Pressure (static):
siesta:                Solid            Molecule  Units
siesta:          -0.00000261          0.00000373  Ry/Bohr**3
siesta:          -0.00023952          0.00034248  eV/Ang**3
siesta:          -0.38375550          0.54872735  kBar
(Free)E+ p_basis*V_orbitals  =       -4127.293355
(Free)Eharris+ p_basis*V_orbitals  =       -4127.293355
     spin moment: S , {S} =    0.00000  -0.00000   0.00000   0.00000

siesta: Electric dipole (a.u.)  =    1.476750    0.080591   -0.000000
siesta: Electric dipole (Debye) =    3.753528    0.204842   -0.000000

cite: Please see "GC.bib" for an exhaustive BiBTeX file.
cite: Please clearly indicate Siesta version in published work: v4.1.5-1-g384057250
cite: This calculation has made use of the following articles
cite: which are encouraged to be cited in a published work.
        Primary SIESTA paper
          DOI: www.doi.org/10.1088/0953-8984/14/11/302
        Spin-orbit coupling (on-site approximation)
          DOI: www.doi.org/10.1088/0953-8984/19/19/489001


WARNING: alloc-realloc-dealloc name mismatch
         Name: atomlist isa
         Size:              -116. Bytes
         Node:     0
         Subsequent mismatches will not be reported
>> End of run:  22-MAY-2023  17:20:03
Job completed
