Siesta Version  : v4.1.5-1-g384057250
Architecture    : gcc
Compiler version: GNU Fortran (Ubuntu 11.4.0-1ubuntu1~22.04) 11.4.0
Compiler flags  : mpifort -O2 -fPIC -ftree-vectorize -fallow-argument-mismatch
PP flags        : -DFC_HAVE_ABORT -DMPI -DSIESTA__FLOOK -DSIESTA__METIS -DSIESTA__MUMPS -DCDF -DNCDF -DNCDF_4 -DNCDF_PARALLEL -DSIESTA__MRRR -DSIESTA__ELPA
Libraries       : libncdf.a libfdict.a  -lflookall -ldl -lnetcdff -lnetcdf -lhdf5_hl -lhdf5 -lhdf5_fortran -lz -lscalapack-openmpi -lopenblas -lmetis -lzmumps -lcmumps -ldmumps -lmumps_common -lpord -lsmumps -lesmumps -lscotch -lscotcherr -fopenmp -lelpa
PARALLEL version
NetCDF support
NetCDF-4 support
NetCDF-4 MPI-IO support
METIS ordering support
Lua support

* Running on 8 nodes in parallel
>> Start of run:   1-FEB-2024  21:23:03

                           ***********************       
                           *  WELCOME TO SIESTA  *       
                           ***********************       

reinit: Reading from standard input
reinit: Dumped input in INPUT_TMP.54536
************************** Dump of input data file ****************************
# mpirun -np 4 siesta-4.1.5 < AT.fdf > AT.out &
SystemLabel      AT
NumberOfAtoms    30
NumberOfSpecies  4
%block ChemicalSpeciesLabel
    1    1  H
    2    7  N
    3   14  Si
    4    8  O
%endblock ChemicalSpeciesLabel
############################################
# This overrides Defaults.fdf configuration
############################################
MD.TypeOfRun                Verlet # CG, Verlet
MD.Steps                    0
MaxSCFIterations            200
SCF.MustConverge            F
AtomicCoordinatesFormat NotScaledCartesianAng
%block AtomicCoordinatesAndAtomicSpecies
    2.28494382 -5.19529124 0.0  1  1  H
    1.37433094 -4.6647107 0.0  2  2  N
    -0.21830245 -5.49458215 0.0  3  3  Si
    -0.17484108 -6.98516892 0.0  1  4  H
    -1.66171682 -4.58600741 0.0  2  5  N
    -1.09026419 -2.87456374 0.0  3  6  Si
    -1.53038332 -0.70765692 0.0  3  7  Si
    -3.14415959 -0.09186471 0.0  2  8  N
    -3.40268075 0.95848335 0.0  1  9  H
    -3.95073599 -0.76720972 0.0  1  10  H
    -0.17836637 0.41349951 0.0  2  11  N
    1.49520211 -0.0473996 0.0  3  12  Si
    2.45603905 1.10727302 0.0  1  13  H
    2.30451743 -1.58574382 0.0  2  14  N
    1.10725559 -2.84610319 0.0  3  15  Si
    -0.054063812557990865 12.024635001228454 0.0  1  16  H
    -0.8627744925579909 11.332429121228454 0.0  2  17  N
    -2.519364332557991 12.045549221228454 0.0  3  18  Si
    -2.422499162557991 13.556274431228452 0.0  1  19  H
    -4.2455206825579905 10.702501091228452 0.0  3  20  Si
    -6.599974932557991 10.694514161228454 0.0  3  21  Si
    -7.1623930525579915 11.429003811228453 -1.20183078  1  22  H
    -6.8997886825579915 9.215423031228454 -0.08618332  1  23  H
    -7.162505512557991 11.259346621228453 1.28814761  1  24  H
    -3.316130042557991 8.631929861228453 0.0  3  25  Si
    -4.265598402557991 7.343393731228453 0.0  4  26  O
    -1.525185172557991 8.458194391228453 0.0  2  27  N
    -1.194193812557991 7.4258374112284535 0.0  1  28  H
    -0.2167269525579909 9.652740811228453 0.0  3  29  Si
    1.349209977442009 9.385493961228454 0.0  4  30  O
%endblock AtomicCoordinatesAndAtomicSpecies
#############
# Unit Cell
#############
LatticeConstant 1.0 Ang
%block LatticeVectors
    30.00000    0.000000    0.000000
    0.000000    45.00000    0.000000
    0.000000    0.000000    10.00000
%endblock LatticeVectors
%include ../../../../Defaults.fdf
************************** End of input data file *****************************

reinit: -----------------------------------------------------------------------
reinit: System Name: 
reinit: -----------------------------------------------------------------------
reinit: System Label: AT
reinit: -----------------------------------------------------------------------

initatom: Reading input for the pseudopotentials and atomic orbitals ----------
Species number:   1 Atomic number:    1 Label: H
Species number:   2 Atomic number:    7 Label: N
Species number:   3 Atomic number:   14 Label: Si
Species number:   4 Atomic number:    8 Label: O

Ground state valence configuration:   1s01
Reading pseudopotential information in formatted form from H.psf

Pseudopotential generated from a relativistic atomic calculation

Valence configuration for pseudopotential generation:
1s( 1.00) rc: 0.01
2p( 0.00) rc: 0.60
3d( 0.00) rc: 1.99
4f( 0.00) rc: 2.49
Ground state valence configuration:   2s02  2p03
Reading pseudopotential information in formatted form from N.psf

Pseudopotential generated from a relativistic atomic calculation

Valence configuration for pseudopotential generation:
2s( 2.00) rc: 0.94
2p( 3.00) rc: 0.59
3d( 0.00) rc: 3.46
4f( 0.00) rc: 2.47
Ground state valence configuration:   3s02  3p02
Reading pseudopotential information in formatted form from Si.psf

Pseudopotential generated from a relativistic atomic calculation

Valence configuration for pseudopotential generation:
3s( 2.00) rc: 1.67
3p( 2.00) rc: 2.04
3d( 0.00) rc: 2.89
4f( 0.00) rc: 2.49
Ground state valence configuration:   2s02  2p04
Reading pseudopotential information in formatted form from O.psf

Pseudopotential generated from a relativistic atomic calculation

Valence configuration for pseudopotential generation:
2s( 2.00) rc: 0.45
2p( 4.00) rc: 0.92
3d( 0.00) rc: 2.24
4f( 0.00) rc: 0.25
For H, standard SIESTA heuristics set lmxkb to 2
 (one more than the basis l, including polarization orbitals).
Use PS.lmax or PS.KBprojectors blocks to override.
For N, standard SIESTA heuristics set lmxkb to 3
 (one more than the basis l, including polarization orbitals).
Use PS.lmax or PS.KBprojectors blocks to override.
For Si, standard SIESTA heuristics set lmxkb to 3
 (one more than the basis l, including polarization orbitals).
Use PS.lmax or PS.KBprojectors blocks to override.
For O, standard SIESTA heuristics set lmxkb to 3
 (one more than the basis l, including polarization orbitals).
Use PS.lmax or PS.KBprojectors blocks to override.

<basis_specs>
===============================================================================
H                    Z=   1    Mass=  1.0100        Charge= 0.17977+309
Lmxo=0 Lmxkb= 2    BasisType=split      Semic=F
L=0  Nsemic=0  Cnfigmx=1
          i=1  nzeta=2  polorb=1  (1s)
            splnorm:   0.62000    
               vcte:    0.0000    
               rinn:    0.0000    
               qcoe:    0.0000    
               qyuk:    0.0000    
               qwid:   0.10000E-01
                rcs:    0.0000      0.0000    
            lambdas:    1.0000      1.0000    
-------------------------------------------------------------------------------
L=0  Nkbl=1  erefs: 0.17977+309
L=1  Nkbl=1  erefs: 0.17977+309
L=2  Nkbl=1  erefs: 0.17977+309
===============================================================================
</basis_specs>

atom: Called for H                     (Z =   1)

read_vps: Pseudopotential generation method:
read_vps: ATM4.2.7  Troullier-Martins                       
Valence charge for ps generation:    1.00000

xc_check: Exchange-correlation functional:
xc_check: GGA Perdew, Burke & Ernzerhof 1996
V l=0 = -2*Zval/r beyond r=  0.0098
V l=1 = -2*Zval/r beyond r=  0.5817
V l=2 = -2*Zval/r beyond r=  1.9372
All V_l potentials equal beyond r=  1.9372
This should be close to max(r_c) in ps generation
All pots = -2*Zval/r beyond r=  1.9372

VLOCAL1: 99.0% of the norm of Vloc inside     11.567 Ry
VLOCAL1: 99.9% of the norm of Vloc inside     26.362 Ry
atom: Maximum radius for 4*pi*r*r*local-pseudopot. charge    2.25106
atom: Maximum radius for r*vlocal+2*Zval:    1.91306
GHOST: No ghost state for L =  0
GHOST: No ghost state for L =  1
GHOST: No ghost state for L =  2

KBgen: Kleinman-Bylander projectors: 
   l= 0   rc=  2.036604   el= -0.477180   Ekb= -6.081590   kbcos= -0.277285
   l= 1   rc=  2.195416   el=  0.001076   Ekb= -0.926943   kbcos= -0.034643
   l= 2   rc=  2.251056   el=  0.002010   Ekb= -0.130941   kbcos= -0.009788

KBgen: Total number of Kleinman-Bylander projectors:    9
atom: -------------------------------------------------------------------------

atom: SANKEY-TYPE ORBITALS:
atom: Selected multiple-zeta basis: split     

SPLIT: Orbitals with angular momentum L= 0

SPLIT: Basis orbitals for state 1s

SPLIT: PAO cut-off radius determined from an
SPLIT: energy shift=  0.002000 Ry

   izeta = 1
                 lambda =    1.000000
                     rc =    6.518340
                 energy =   -0.475305
                kinetic =    0.912139
    potential(screened) =   -1.387444
       potential(ionic) =   -1.907295

   izeta = 2
                 rmatch =    2.141150
              splitnorm =    0.620000
                 energy =    0.566467
                kinetic =    3.772856
    potential(screened) =   -3.206389
       potential(ionic) =   -3.759093

POLgen: Perturbative polarization orbital with L=  1

POLgen: Polarization orbital for state 1s

   izeta = 1
                     rc =    6.518340
                 energy =    0.533861
                kinetic =    1.121086
    potential(screened) =   -0.587225
       potential(ionic) =   -1.053027
atom: Total number of Sankey-type orbitals:  5

atm_pop: Valence configuration (for local Pseudopot. screening):
 1s( 1.00)                                                            
Vna: chval, zval:    1.00000   1.00000

Vna:  Cut-off radius for the neutral-atom potential:   6.518340

atom: _________________________________________________________________________

<basis_specs>
===============================================================================
N                    Z=   7    Mass=  14.010        Charge= 0.17977+309
Lmxo=1 Lmxkb= 3    BasisType=split      Semic=F
L=0  Nsemic=0  Cnfigmx=2
          i=1  nzeta=2  polorb=0  (2s)
            splnorm:   0.28000    
               vcte:    0.0000    
               rinn:    0.0000    
               qcoe:    0.0000    
               qyuk:    0.0000    
               qwid:   0.10000E-01
                rcs:    0.0000      0.0000    
            lambdas:    1.0000      1.0000    
L=1  Nsemic=0  Cnfigmx=2
          i=1  nzeta=2  polorb=1  (2p)
            splnorm:   0.28000    
               vcte:    0.0000    
               rinn:    0.0000    
               qcoe:    0.0000    
               qyuk:    0.0000    
               qwid:   0.10000E-01
                rcs:    0.0000      0.0000    
            lambdas:    1.0000      1.0000    
-------------------------------------------------------------------------------
L=0  Nkbl=1  erefs: 0.17977+309
L=1  Nkbl=1  erefs: 0.17977+309
L=2  Nkbl=1  erefs: 0.17977+309
L=3  Nkbl=1  erefs: 0.17977+309
===============================================================================
</basis_specs>

atom: Called for N                     (Z =   7)

read_vps: Pseudopotential generation method:
read_vps: ATM4.2.7  Troullier-Martins                       
Valence charge for ps generation:    5.00000

xc_check: Exchange-correlation functional:
xc_check: GGA Perdew, Burke & Ernzerhof 1996
V l=0 = -2*Zval/r beyond r=  1.2889
V l=1 = -2*Zval/r beyond r=  1.2889
V l=2 = -2*Zval/r beyond r=  3.4178
V l=3 = -2*Zval/r beyond r=  2.4084
All V_l potentials equal beyond r=  3.3753
This should be close to max(r_c) in ps generation
All pots = -2*Zval/r beyond r=  3.4178

VLOCAL1: 99.0% of the norm of Vloc inside      3.810 Ry
VLOCAL1: 99.9% of the norm of Vloc inside      8.683 Ry
atom: Maximum radius for 4*pi*r*r*local-pseudopot. charge    4.02088
atom: Maximum radius for r*vlocal+2*Zval:    3.54838
GHOST: No ghost state for L =  0
GHOST: No ghost state for L =  1
GHOST: No ghost state for L =  2
GHOST: No ghost state for L =  3

KBgen: Kleinman-Bylander projectors: 
   l= 0   rc=  3.417763   el= -1.365098   Ekb= -4.433130   kbcos= -0.707855
   l= 1   rc=  3.375302   el= -0.521201   Ekb=-13.264039   kbcos= -0.535594
   l= 2   rc=  3.872880   el=  0.001991   Ekb= -0.641094   kbcos= -0.062456
   l= 3   rc=  3.970931   el=  0.003093   Ekb= -0.474517   kbcos= -0.018236

KBgen: Total number of Kleinman-Bylander projectors:   16
atom: -------------------------------------------------------------------------

atom: SANKEY-TYPE ORBITALS:
atom: Selected multiple-zeta basis: split     

SPLIT: Orbitals with angular momentum L= 0

SPLIT: Basis orbitals for state 2s

SPLIT: PAO cut-off radius determined from an
SPLIT: energy shift=  0.002000 Ry

   izeta = 1
                 lambda =    1.000000
                     rc =    4.730425
                 energy =   -1.363399
                kinetic =    1.245246
    potential(screened) =   -2.608645
       potential(ionic) =   -8.121105

   izeta = 2
                 rmatch =    2.531849
              splitnorm =    0.280000
                 energy =   -0.959908
                kinetic =    2.409435
    potential(screened) =   -3.369343
       potential(ionic) =   -9.427975

SPLIT: Orbitals with angular momentum L= 1

SPLIT: Basis orbitals for state 2p

SPLIT: PAO cut-off radius determined from an
SPLIT: energy shift=  0.002000 Ry

   izeta = 1
                 lambda =    1.000000
                     rc =    5.924108
                 energy =   -0.519262
                kinetic =    3.672940
    potential(screened) =   -4.192202
       potential(ionic) =   -9.518354

   izeta = 2
                 rmatch =    2.531849
              splitnorm =    0.280000
                 energy =   -0.104258
                kinetic =    6.807538
    potential(screened) =   -6.911796
       potential(ionic) =  -13.149920

POLgen: Perturbative polarization orbital with L=  2

POLgen: Polarization orbital for state 2p

   izeta = 1
                     rc =    5.924108
                 energy =    1.427508
                kinetic =    2.872379
    potential(screened) =   -1.444871
       potential(ionic) =   -5.563644
atom: Total number of Sankey-type orbitals: 13

atm_pop: Valence configuration (for local Pseudopot. screening):
 2s( 2.00)                                                            
 2p( 3.00)                                                            
Vna: chval, zval:    5.00000   5.00000

Vna:  Cut-off radius for the neutral-atom potential:   5.924108

atom: _________________________________________________________________________

<basis_specs>
===============================================================================
Si                   Z=  14    Mass=  28.090        Charge= 0.17977+309
Lmxo=1 Lmxkb= 3    BasisType=split      Semic=F
L=0  Nsemic=0  Cnfigmx=3
          i=1  nzeta=2  polorb=0  (3s)
            splnorm:   0.28000    
               vcte:    0.0000    
               rinn:    0.0000    
               qcoe:    0.0000    
               qyuk:    0.0000    
               qwid:   0.10000E-01
                rcs:    0.0000      0.0000    
            lambdas:    1.0000      1.0000    
L=1  Nsemic=0  Cnfigmx=3
          i=1  nzeta=2  polorb=1  (3p)
            splnorm:   0.28000    
               vcte:    0.0000    
               rinn:    0.0000    
               qcoe:    0.0000    
               qyuk:    0.0000    
               qwid:   0.10000E-01
                rcs:    0.0000      0.0000    
            lambdas:    1.0000      1.0000    
-------------------------------------------------------------------------------
L=0  Nkbl=1  erefs: 0.17977+309
L=1  Nkbl=1  erefs: 0.17977+309
L=2  Nkbl=1  erefs: 0.17977+309
L=3  Nkbl=1  erefs: 0.17977+309
===============================================================================
</basis_specs>

atom: Called for Si                    (Z =  14)

read_vps: Pseudopotential generation method:
read_vps: ATM4.2.7  Troullier-Martins                       
Valence charge for ps generation:    4.00000

xc_check: Exchange-correlation functional:
xc_check: GGA Perdew, Burke & Ernzerhof 1996
V l=0 = -2*Zval/r beyond r=  2.7826
V l=1 = -2*Zval/r beyond r=  2.7826
V l=2 = -2*Zval/r beyond r=  2.9253
V l=3 = -2*Zval/r beyond r=  2.7826
All V_l potentials equal beyond r=  2.8530
This should be close to max(r_c) in ps generation
All pots = -2*Zval/r beyond r=  2.9253

VLOCAL1: 99.0% of the norm of Vloc inside      5.333 Ry
VLOCAL1: 99.9% of the norm of Vloc inside     12.154 Ry
atom: Maximum radius for 4*pi*r*r*local-pseudopot. charge    3.39869
atom: Maximum radius for r*vlocal+2*Zval:    2.96205
GHOST: No ghost state for L =  0
GHOST: No ghost state for L =  1
GHOST: No ghost state for L =  2
GHOST: No ghost state for L =  3

KBgen: Kleinman-Bylander projectors: 
   l= 0   rc=  3.075247   el= -0.794092   Ekb=  5.879390   kbcos=  0.167461
   l= 1   rc=  3.153101   el= -0.300068   Ekb=  2.642817   kbcos=  0.058301
   l= 2   rc=  3.273594   el=  0.001958   Ekb= -1.185135   kbcos= -0.104411
   l= 3   rc=  3.232927   el=  0.003046   Ekb= -0.497174   kbcos= -0.015889

KBgen: Total number of Kleinman-Bylander projectors:   16
atom: -------------------------------------------------------------------------

atom: SANKEY-TYPE ORBITALS:
atom: Selected multiple-zeta basis: split     

SPLIT: Orbitals with angular momentum L= 0

SPLIT: Basis orbitals for state 3s

SPLIT: PAO cut-off radius determined from an
SPLIT: energy shift=  0.002000 Ry

   izeta = 1
                 lambda =    1.000000
                     rc =    6.429618
                 energy =   -0.792283
                kinetic =    0.525293
    potential(screened) =   -1.317576
       potential(ionic) =   -3.744923

   izeta = 2
                 rmatch =    3.998416
              splitnorm =    0.280000
                 energy =   -0.583081
                kinetic =    1.069570
    potential(screened) =   -1.652651
       potential(ionic) =   -4.235185

SPLIT: Orbitals with angular momentum L= 1

SPLIT: Basis orbitals for state 3p

SPLIT: PAO cut-off radius determined from an
SPLIT: energy shift=  0.002000 Ry

   izeta = 1
                 lambda =    1.000000
                     rc =    8.464845
                 energy =   -0.298236
                kinetic =    0.785360
    potential(screened) =   -1.083596
       potential(ionic) =   -3.273779

   izeta = 2
                 rmatch =    4.587816
              splitnorm =    0.280000
                 energy =   -0.131871
                kinetic =    1.403687
    potential(screened) =   -1.535557
       potential(ionic) =   -4.015310

POLgen: Perturbative polarization orbital with L=  2

POLgen: Polarization orbital for state 3p

   izeta = 1
                     rc =    8.464845
                 energy =    0.321949
                kinetic =    1.055677
    potential(screened) =   -0.733728
       potential(ionic) =   -2.672950
atom: Total number of Sankey-type orbitals: 13

atm_pop: Valence configuration (for local Pseudopot. screening):
 3s( 2.00)                                                            
 3p( 2.00)                                                            
Vna: chval, zval:    4.00000   4.00000

Vna:  Cut-off radius for the neutral-atom potential:   8.464845

atom: _________________________________________________________________________

<basis_specs>
===============================================================================
O                    Z=   8    Mass=  16.000        Charge= 0.17977+309
Lmxo=1 Lmxkb= 3    BasisType=split      Semic=F
L=0  Nsemic=0  Cnfigmx=2
          i=1  nzeta=2  polorb=0  (2s)
            splnorm:   0.28000    
               vcte:    0.0000    
               rinn:    0.0000    
               qcoe:    0.0000    
               qyuk:    0.0000    
               qwid:   0.10000E-01
                rcs:    0.0000      0.0000    
            lambdas:    1.0000      1.0000    
L=1  Nsemic=0  Cnfigmx=2
          i=1  nzeta=2  polorb=1  (2p)
            splnorm:   0.28000    
               vcte:    0.0000    
               rinn:    0.0000    
               qcoe:    0.0000    
               qyuk:    0.0000    
               qwid:   0.10000E-01
                rcs:    0.0000      0.0000    
            lambdas:    1.0000      1.0000    
-------------------------------------------------------------------------------
L=0  Nkbl=1  erefs: 0.17977+309
L=1  Nkbl=1  erefs: 0.17977+309
L=2  Nkbl=1  erefs: 0.17977+309
L=3  Nkbl=1  erefs: 0.17977+309
===============================================================================
</basis_specs>

atom: Called for O                     (Z =   8)

read_vps: Pseudopotential generation method:
read_vps: ATM4.2.7  Troullier-Martins                       
Valence charge for ps generation:    6.00000

xc_check: Exchange-correlation functional:
xc_check: GGA Perdew, Burke & Ernzerhof 1996
V l=0 = -2*Zval/r beyond r=  1.1000
V l=1 = -2*Zval/r beyond r=  1.1000
V l=2 = -2*Zval/r beyond r=  2.2154
V l=3 = -2*Zval/r beyond r=  1.1000
All V_l potentials equal beyond r=  2.2154
This should be close to max(r_c) in ps generation
All pots = -2*Zval/r beyond r=  2.2154

VLOCAL1: 99.0% of the norm of Vloc inside      8.845 Ry
VLOCAL1: 99.9% of the norm of Vloc inside     20.157 Ry
atom: Maximum radius for 4*pi*r*r*local-pseudopot. charge    2.67231
atom: Maximum radius for r*vlocal+2*Zval:    2.32897
GHOST: No ghost state for L =  0
GHOST: No ghost state for L =  1
GHOST: No ghost state for L =  2
GHOST: No ghost state for L =  3

KBgen: Kleinman-Bylander projectors: 
   l= 0   rc=  2.243238   el= -1.759686   Ekb=**********   kbcos= -0.171774
   l= 1   rc=  2.328968   el= -0.663873   Ekb=-14.506792   kbcos= -0.519897
   l= 2   rc=  2.573941   el=  0.002031   Ekb= -1.137373   kbcos= -0.019581
   l= 3   rc=  2.606321   el=  0.003153   Ekb= -1.013546   kbcos= -0.003122

KBgen: Total number of Kleinman-Bylander projectors:   16
atom: -------------------------------------------------------------------------

atom: SANKEY-TYPE ORBITALS:
atom: Selected multiple-zeta basis: split     

SPLIT: Orbitals with angular momentum L= 0

SPLIT: Basis orbitals for state 2s

SPLIT: PAO cut-off radius determined from an
SPLIT: energy shift=  0.002000 Ry

   izeta = 1
                 lambda =    1.000000
                     rc =    4.243912
                 energy =   -1.758270
                kinetic =    3.286084
    potential(screened) =   -5.044353
       potential(ionic) =  -12.921184

   izeta = 2
                 rmatch =    2.187845
              splitnorm =    0.280000
                 energy =   -0.885018
                kinetic =    8.134434
    potential(screened) =   -9.019452
       potential(ionic) =  -17.710645

SPLIT: Orbitals with angular momentum L= 1

SPLIT: Basis orbitals for state 2p

SPLIT: PAO cut-off radius determined from an
SPLIT: energy shift=  0.002000 Ry

   izeta = 1
                 lambda =    1.000000
                     rc =    5.314825
                 energy =   -0.661986
                kinetic =    4.917472
    potential(screened) =   -5.579458
       potential(ionic) =  -13.236259

   izeta = 2
                 rmatch =    2.160663
              splitnorm =    0.280000
                 energy =   -0.068760
                kinetic =    9.183374
    potential(screened) =   -9.252135
       potential(ionic) =  -18.274251

POLgen: Perturbative polarization orbital with L=  2

POLgen: Polarization orbital for state 2p

   izeta = 1
                     rc =    5.314825
                 energy =    1.970580
                kinetic =    3.886128
    potential(screened) =   -1.915547
       potential(ionic) =   -7.749584
atom: Total number of Sankey-type orbitals: 13

atm_pop: Valence configuration (for local Pseudopot. screening):
 2s( 2.00)                                                            
 2p( 4.00)                                                            
Vna: chval, zval:    6.00000   6.00000

Vna:  Cut-off radius for the neutral-atom potential:   5.314825

atom: _________________________________________________________________________

prinput: Basis input ----------------------------------------------------------

PAO.BasisType split     

%block ChemicalSpeciesLabel
    1    1 H                       # Species index, atomic number, species label
    2    7 N                       # Species index, atomic number, species label
    3   14 Si                      # Species index, atomic number, species label
    4    8 O                       # Species index, atomic number, species label
%endblock ChemicalSpeciesLabel

%block PAO.Basis                 # Define Basis set
H                     1                    # Species label, number of l-shells
 n=1   0   2 P   1                   # n, l, Nzeta, Polarization, NzetaPol
   6.518      2.141   
   1.000      1.000   
N                     2                    # Species label, number of l-shells
 n=2   0   2                         # n, l, Nzeta 
   4.730      2.532   
   1.000      1.000   
 n=2   1   2 P   1                   # n, l, Nzeta, Polarization, NzetaPol
   5.924      2.532   
   1.000      1.000   
Si                    2                    # Species label, number of l-shells
 n=3   0   2                         # n, l, Nzeta 
   6.430      3.998   
   1.000      1.000   
 n=3   1   2 P   1                   # n, l, Nzeta, Polarization, NzetaPol
   8.465      4.588   
   1.000      1.000   
O                     2                    # Species label, number of l-shells
 n=2   0   2                         # n, l, Nzeta 
   4.244      2.188   
   1.000      1.000   
 n=2   1   2 P   1                   # n, l, Nzeta, Polarization, NzetaPol
   5.315      2.161   
   1.000      1.000   
%endblock PAO.Basis

prinput: ----------------------------------------------------------------------

Dumping basis to NetCDF file H.ion.nc
Dumping basis to NetCDF file N.ion.nc
Dumping basis to NetCDF file Si.ion.nc
Dumping basis to NetCDF file O.ion.nc
coor:   Atomic-coordinates input format  =     Cartesian coordinates
coor:                                          (in Angstroms)

siesta: Atomic coordinates (Bohr) and species
siesta:      4.31792  -9.81768   0.00000  1        1
siesta:      2.59711  -8.81503   0.00000  2        2
siesta:     -0.41253 -10.38326   0.00000  3        3
siesta:     -0.33040 -13.20006   0.00000  1        4
siesta:     -3.14019  -8.66630   0.00000  2        5
siesta:     -2.06030  -5.43214   0.00000  3        6
siesta:     -2.89201  -1.33728   0.00000  3        7
siesta:     -5.94160  -0.17360   0.00000  2        8
siesta:     -6.43014   1.81127   0.00000  1        9
siesta:     -7.46581  -1.44982   0.00000  1       10
siesta:     -0.33706   0.78140   0.00000  2       11
siesta:      2.82552  -0.08957   0.00000  3       12
siesta:      4.64124   2.09244   0.00000  1       13
siesta:      4.35491  -2.99662   0.00000  2       14
siesta:      2.09241  -5.37836   0.00000  3       15
siesta:     -0.10217  22.72328   0.00000  1       16
siesta:     -1.63041  21.41520   0.00000  2       17
siesta:     -4.76091  22.76280   0.00000  3       18
siesta:     -4.57786  25.61766   0.00000  1       19
siesta:     -8.02287  20.22480   0.00000  3       20
siesta:    -12.47215  20.20971   0.00000  3       21
siesta:    -13.53497  21.59770  -2.27113  1       22
siesta:    -13.03872  17.41463  -0.16286  1       23
siesta:    -13.53518  21.27709   2.43425  1       24
siesta:     -6.26658  16.31199   0.00000  3       25
siesta:     -8.06082  13.87701   0.00000  4       26
siesta:     -2.88218  15.98368   0.00000  2       27
siesta:     -2.25670  14.03280   0.00000  1       28
siesta:     -0.40955  18.24104   0.00000  3       29
siesta:      2.54964  17.73602   0.00000  4       30

siesta: System type = molecule  

initatomlists: Number of atoms, orbitals, and projectors:     30   302   403

siesta: ******************** Simulation parameters ****************************
siesta:
siesta: The following are some of the parameters of the simulation.
siesta: A complete list of the parameters used, including default values,
siesta: can be found in file out.fdf
siesta:
redata: Spin configuration                          = spin-orbit
redata: Number of spin components                   = 8
redata: Time-Reversal Symmetry                      = F
redata: Spin spiral                                 = F
############################################################
This spin-orbit implementation uses a local approximation.
From 4.2 and onwards the full non-local approximation is implemented
You are strongly advised to use >=4.2 versions!
############################################################
redata: Long output                                 =   F
redata: Number of Atomic Species                    =        4
redata: Charge density info will appear in .RHO file
redata: Write Mulliken Pop.                         = NO
redata: Matel table size (NRTAB)                    =     1024
redata: Mesh Cutoff                                 =   340.0000 Ry
redata: Net charge of the system                    =     0.0000 |e|
redata: Min. number of SCF Iter                     =        1
redata: Max. number of SCF Iter                     =      200
redata: SCF mix quantity                            = Hamiltonian
redata: Mix DM or H after convergence               =   F
redata: Recompute H after scf cycle                 =   F
redata: Mix DM in first SCF step                    =   T
redata: Write Pulay info on disk                    =   F
redata: New DM Occupancy tolerance                  = 0.000000000001
redata: No kicks to SCF
redata: DM Mixing Weight for Kicks                  =     0.5000
redata: Require Harris convergence for SCF          =   F
redata: Harris energy tolerance for SCF             =     0.000100 eV
redata: Require DM convergence for SCF              =   T
redata: DM tolerance for SCF                        =     0.000008
redata: Require EDM convergence for SCF             =   F
redata: EDM tolerance for SCF                       =     0.001000 eV
redata: Require H convergence for SCF               =   T
redata: Hamiltonian tolerance for SCF               =     0.000001 eV
redata: Require (free) Energy convergence for SCF   =   F
redata: (free) Energy tolerance for SCF             =     0.000100 eV
redata: Using Saved Data (generic)                  =   F
redata: Use continuation files for DM               =   T
redata: Neglect nonoverlap interactions             =   F
redata: Method of Calculation                       = Diagonalization
redata: Electronic Temperature                      =   299.9978 K
redata: Fix the spin of the system                  =   F
redata: Dynamics option                             = Verlet MD run
redata: Initial MD time step                        =        1
redata:   Final MD time step                        =        1
redata: Length of MD time step                      =     0.5000 fs
redata: Initial Temperature of MD run               =     0.0000 K
redata: Perform a MD quench                         =   F
mix.SCF: Pulay mixing                            = Pulay
mix.SCF:    Variant                              = stable
mix.SCF:    History steps                        = 6
mix.SCF:    Linear mixing weight                 =     0.250000
mix.SCF:    Mixing weight                        =     0.250000
mix.SCF:    SVD condition                        = 0.1000E-07
mix.SCF:    Restart steps                        = 24
mix.SCF:    Restart save steps                   = 3
mix.SCF: Spin-component mixing                   all
redata: Save all siesta data in one NC              =   F
redata: ***********************************************************************

%block SCF.Mixers
  Pulay
%endblock SCF.Mixers

%block SCF.Mixer.Pulay
  # Mixing method
  method pulay
  variant stable

  # Mixing options
  weight 0.2500
  weight.linear 0.2500
  history 6
  restart 24
  restart.save 3
%endblock SCF.Mixer.Pulay

Size of DM history Fstack: 3
Total number of electrons:    98.000000
Total ionic charge:    98.000000

* ProcessorY, Blocksize:    2  24


* Orbital distribution balance (max,min):    48    24


Time-reversal symmetry not used.

siesta: k-grid: Number of k-points =     1
siesta: k-grid: Cutoff (effective) =     5.000 Ang
siesta: k-grid: Supercell and displacements
siesta: k-grid:    1   0   0      0.000
siesta: k-grid:    0   1   0      0.000
siesta: k-grid:    0   0   1      0.000

diag: Algorithm                                     = ELPA-1stage
diag: Parallel over k                               =   F
diag: Use parallel 2D distribution                  =   T
diag: Parallel block-size                           = 24
diag: Parallel distribution                         =     2 x     4
diag: Used triangular part                          = Lower
diag: Absolute tolerance                            =  0.100E-15
diag: Orthogonalization factor                      =  0.100E-05
diag: Memory factor                                 =  1.0000


ts: **************************************************************
ts: Save H and S matrices                           =    F
ts: Save DM and EDM matrices                        =    F
ts: Only save the overlap matrix S                  =    F
ts: **************************************************************

************************ Begin: TS CHECKS AND WARNINGS ************************
************************ End: TS CHECKS AND WARNINGS **************************


                     ====================================
                        Begin MD step =      1
                     ====================================

outcoor: Atomic coordinates (Ang):                          
    2.28494382   -5.19529124    0.00000000   1       1  H
    1.37433094   -4.66471070    0.00000000   2       2  N
   -0.21830245   -5.49458215    0.00000000   3       3  Si
   -0.17484108   -6.98516892    0.00000000   1       4  H
   -1.66171682   -4.58600741    0.00000000   2       5  N
   -1.09026419   -2.87456374    0.00000000   3       6  Si
   -1.53038332   -0.70765692    0.00000000   3       7  Si
   -3.14415959   -0.09186471    0.00000000   2       8  N
   -3.40268075    0.95848335    0.00000000   1       9  H
   -3.95073599   -0.76720972    0.00000000   1      10  H
   -0.17836637    0.41349951    0.00000000   2      11  N
    1.49520211   -0.04739960    0.00000000   3      12  Si
    2.45603905    1.10727302    0.00000000   1      13  H
    2.30451743   -1.58574382    0.00000000   2      14  N
    1.10725559   -2.84610319    0.00000000   3      15  Si
   -0.05406381   12.02463500    0.00000000   1      16  H
   -0.86277449   11.33242912    0.00000000   2      17  N
   -2.51936433   12.04554922    0.00000000   3      18  Si
   -2.42249916   13.55627443    0.00000000   1      19  H
   -4.24552068   10.70250109    0.00000000   3      20  Si
   -6.59997493   10.69451416    0.00000000   3      21  Si
   -7.16239305   11.42900381   -1.20183078   1      22  H
   -6.89978868    9.21542303   -0.08618332   1      23  H
   -7.16250551   11.25934662    1.28814761   1      24  H
   -3.31613004    8.63192986    0.00000000   3      25  Si
   -4.26559840    7.34339373    0.00000000   4      26  O
   -1.52518517    8.45819439    0.00000000   2      27  N
   -1.19419381    7.42583741    0.00000000   1      28  H
   -0.21672695    9.65274081    0.00000000   3      29  Si
    1.34920998    9.38549396    0.00000000   4      30  O

outcell: Unit cell vectors (Ang):
       30.000000    0.000000    0.000000
        0.000000   45.000000    0.000000
        0.000000    0.000000   10.000000

outcell: Cell vector modules (Ang)   :   30.000000   45.000000   10.000000
outcell: Cell angles (23,13,12) (deg):     90.0000     90.0000     90.0000
outcell: Cell volume (Ang**3)        :  13500.0000
<dSpData1D:S at geom step 1
  <sparsity:sparsity for geom step 1
    nrows_g=302 nrows=48 sparsity=.0767 nnzs=6994, refcount: 8>
  <dData1D:(new from dSpData1D) n=6994, refcount: 1>
refcount: 1>
new_DM -- step:     1
Initializing Density Matrix...

Attempting to read DM from file... Failed...
DM filled with atomic data:
<dSpData2D:DM initialized from atoms
  <sparsity:sparsity for geom step 1
    nrows_g=302 nrows=48 sparsity=.0767 nnzs=6994, refcount: 9>
  <dData2D:DM n=6994 m=8, refcount: 1>
refcount: 1>
     spin moment: S , {S} =   56.00000   0.00000   0.00000  56.00000
No. of atoms with KB's overlaping orbs in proc 0. Max # of overlaps:      27     134

Initializing spin-orbit part of the Hamiltonian
  Adding spin-orbit effects for H 
  Adding spin-orbit effects for N 
  Adding spin-orbit effects for Si
  Adding spin-orbit effects for O 


New grid distribution:   1
           1       1:  180    1:  125    1:   15
           2       1:  180    1:  125   16:   30
           3       1:  180    1:  125   31:   45
           4       1:  180    1:  125   46:   60
           5       1:  180  126:  250    1:   15
           6       1:  180  126:  250   16:   30
           7       1:  180  126:  250   31:   45
           8       1:  180  126:  250   46:   60

InitMesh: MESH =   360 x   500 x   120 =    21600000
InitMesh: (bp) =   180 x   250 x    60 =     2700000
InitMesh: Mesh cutoff (required, used) =   340.000   341.206 Ry
ExtMesh (bp) on 0 =   288 x   225 x   123 =     7970400
New grid distribution:   2
           1       1:  158    1:   51    1:   60
           2       1:  151  233:  250    1:   60
           3       1:  158   52:   68    1:   60
           4     159:  180   52:   68    1:   60
           5       1:  151   69:  232    1:   60
           6     152:  180   69:  231    1:   60
           7     159:  180    1:   51    1:   60
           8     152:  180  232:  250    1:   60
New grid distribution:   3
           1       1:  144    1:   45    1:   60
           2       1:  146  220:  250    1:   60
           3       1:  144   46:   67    1:   60
           4     145:  180   41:   67    1:   60
           5       1:  146   68:  219    1:   60
           6     147:  180   68:  216    1:   60
           7     145:  180    1:   40    1:   60
           8     147:  180  217:  250    1:   60
Setting up quadratic distribution...
ExtMesh (bp) on 0 =   266 x   151 x   168 =     6747888
PhiOnMesh: Number of (b)points on node 0 =               483480
PhiOnMesh: nlist on node 0 =              1737234

stepf: Fermi-Dirac step function

siesta: Program's energy decomposition (eV):
siesta: Ebs     =      -630.096863
siesta: Eions   =      3553.971015
siesta: Ena     =       374.984508
siesta: Ekin    =      3171.012715
siesta: Enl     =     -2984.431318
siesta: Eso     =        -0.003884
siesta: Edftu   =         0.000000
siesta: DEna    =       129.719877
siesta: DUscf   =        75.693294
siesta: DUext   =         0.000000
siesta: Exc     =     -1168.579956
siesta: eta*DQ  =         0.000000
siesta: Emadel  =         0.000000
siesta: Emeta   =         0.000000
siesta: Emolmec =         0.000000
siesta: Ekinion =         0.000000
siesta: Eharris =     -3884.444241
siesta: Etot    =     -3955.575778
siesta: FreeEng =     -3955.579093

        iscf     Eharris(eV)        E_KS(eV)     FreeEng(eV)     dDmax    Ef(eV) dHmax(eV)
   scf:    1    -3884.444241    -3955.575778    -3955.579093  0.970495 -4.935273 21.610380
     spin moment: S , {S} =    2.02355  -0.00000  -0.00000   2.02355
timer: Routine,Calls,Time,% = IterSCF        1      16.044  28.59
   scf:    2    -3994.616862    -3988.157454    -3988.157463  0.465972 -4.260339 12.203516
     spin moment: S , {S} =    2.00008   0.00000  -0.00000   2.00008
   scf:    3    -3955.442969    -3984.844370    -3984.874075  0.421681 -4.227450 12.645737
     spin moment: S , {S} =    1.99857  -0.00000  -0.00000   1.99857
   scf:    4    -4002.350403    -3997.212233    -3997.212234  0.219849 -3.870676  6.210641
     spin moment: S , {S} =    0.00010  -0.00000   0.00000   0.00010
   scf:    5    -3998.621256    -3997.990963    -3997.990963  0.038534 -3.752990  3.955510
     spin moment: S , {S} =    0.00006  -0.00000   0.00000   0.00006
   scf:    6    -3998.779935    -3998.385645    -3998.385645  0.026466 -3.727774  1.924241
     spin moment: S , {S} =    0.00003  -0.00000   0.00000   0.00003
   scf:    7    -3998.772597    -3998.573204    -3998.573204  0.022475 -3.754074  0.794739
     spin moment: S , {S} =    0.00001  -0.00000   0.00000   0.00001
   scf:    8    -3998.706806    -3998.637616    -3998.637616  0.012651 -3.836255  0.527185
     spin moment: S , {S} =    0.00000  -0.00000   0.00000   0.00000
   scf:    9    -3998.688525    -3998.661908    -3998.661908  0.007269 -3.844852  0.422600
     spin moment: S , {S} =    0.00000  -0.00000   0.00000   0.00000
   scf:   10    -3998.723511    -3998.681085    -3998.681085  0.026174 -3.877842  0.245151
     spin moment: S , {S} =    0.00000  -0.00000  -0.00000  -0.00000
   scf:   11    -3998.688093    -3998.684789    -3998.684789  0.004280 -3.860966  0.090565
     spin moment: S , {S} =    0.00000   0.00000  -0.00000  -0.00000
   scf:   12    -3998.686201    -3998.685532    -3998.685533  0.001116 -3.857576  0.053432
     spin moment: S , {S} =    0.00000   0.00000  -0.00000  -0.00000
   scf:   13    -3998.686777    -3998.686141    -3998.686142  0.001203 -3.855262  0.029034
     spin moment: S , {S} =    0.00000   0.00000  -0.00000   0.00000
   scf:   14    -3998.686746    -3998.686431    -3998.686431  0.000998 -3.854081  0.018082
     spin moment: S , {S} =    0.00000   0.00000  -0.00000  -0.00000
   scf:   15    -3998.686674    -3998.686545    -3998.686546  0.000649 -3.853723  0.010514
     spin moment: S , {S} =    0.00000   0.00000  -0.00000  -0.00000
   scf:   16    -3998.686646    -3998.686591    -3998.686592  0.000508 -3.853689  0.004166
     spin moment: S , {S} =    0.00000   0.00000   0.00000  -0.00000
   scf:   17    -3998.686607    -3998.686599    -3998.686599  0.000167 -3.853871  0.002179
     spin moment: S , {S} =    0.00000   0.00000   0.00000   0.00000
   scf:   18    -3998.686606    -3998.686602    -3998.686603  0.000130 -3.854001  0.001417
     spin moment: S , {S} =    0.00000   0.00000   0.00000   0.00000
   scf:   19    -3998.686605    -3998.686603    -3998.686604  0.000090 -3.854043  0.000800
     spin moment: S , {S} =    0.00000   0.00000   0.00000   0.00000
   scf:   20    -3998.686604    -3998.686603    -3998.686604  0.000042 -3.854065  0.000543
     spin moment: S , {S} =    0.00000   0.00000   0.00000   0.00000
   scf:   21    -3998.686604    -3998.686604    -3998.686604  0.000035 -3.854080  0.000352
     spin moment: S , {S} =    0.00000   0.00000   0.00000   0.00000
   scf:   22    -3998.686604    -3998.686604    -3998.686604  0.000036 -3.854101  0.000165
     spin moment: S , {S} =    0.00000   0.00000   0.00000   0.00000
   scf:   23    -3998.686604    -3998.686604    -3998.686605  0.000013 -3.854106  0.000111
     spin moment: S , {S} =    0.00000   0.00000   0.00000   0.00000
   scf:   24    -3998.686604    -3998.686604    -3998.686605  0.000011 -3.854105  0.000063
     spin moment: S , {S} =    0.00000   0.00000   0.00000   0.00000
mix: Pulay -- resetting history
   scf:   25    -3998.686604    -3998.686604    -3998.686605  0.000008 -3.854101  0.000034
     spin moment: S , {S} =    0.00000   0.00000   0.00000   0.00000
   scf:   26    -3998.686604    -3998.686604    -3998.686605  0.000003 -3.854098  0.000023
     spin moment: S , {S} =    0.00000   0.00000   0.00000   0.00000
   scf:   27    -3998.686604    -3998.686604    -3998.686605  0.000003 -3.854098  0.000016
     spin moment: S , {S} =    0.00000   0.00000   0.00000   0.00000
   scf:   28    -3998.686604    -3998.686604    -3998.686605  0.000002 -3.854097  0.000009
     spin moment: S , {S} =    0.00000   0.00000   0.00000   0.00000
   scf:   29    -3998.686604    -3998.686604    -3998.686605  0.000001 -3.854097  0.000006
     spin moment: S , {S} =    0.00000   0.00000   0.00000   0.00000
   scf:   30    -3998.686604    -3998.686604    -3998.686605  0.000001 -3.854099  0.000004
     spin moment: S , {S} =    0.00000   0.00000   0.00000   0.00000
   scf:   31    -3998.686604    -3998.686604    -3998.686605  0.000000 -3.854099  0.000003
     spin moment: S , {S} =    0.00000   0.00000  -0.00000   0.00000
   scf:   32    -3998.686604    -3998.686604    -3998.686605  0.000000 -3.854098  0.000002
     spin moment: S , {S} =    0.00000   0.00000  -0.00000  -0.00000
   scf:   33    -3998.686604    -3998.686604    -3998.686605  0.000000 -3.854098  0.000001
     spin moment: S , {S} =    0.00000   0.00000   0.00000  -0.00000
   scf:   34    -3998.686604    -3998.686604    -3998.686605  0.000000 -3.854098  0.000001
     spin moment: S , {S} =    0.00000   0.00000  -0.00000  -0.00000

SCF Convergence by DM+H criterion
max |DM_out - DM_in|         :     0.0000000972
max |H_out - H_in|      (eV) :     0.0000005578
SCF cycle converged after 34 iterations

Using DM_out to compute the final energy and forces
No. of atoms with KB's overlaping orbs in proc 0. Max # of overlaps:      27     134

siesta: E_KS(eV) =            -3998.6866

siesta: E_KS - E_eggbox =     -3998.6866
     spin moment: S , {S} =    0.00000   0.00000  -0.00000  -0.00000

siesta: Atomic forces (eV/Ang):
     1    0.143208   -0.027186   -0.000000
     2   -0.036002    0.044094   -0.000000
     3   -0.031069   -0.017952    0.000000
     4    0.068455   -0.134383    0.000000
     5    0.054241    0.005130   -0.000000
     6   -0.195259    0.018947    0.000000
     7    1.084916   -0.044234   -0.000000
     8   -0.662769    1.420099   -0.000000
     9    0.172459   -1.017931   -0.000000
    10   -0.111534    0.134885    0.000000
    11   -0.197058   -0.379114    0.000000
    12   -0.281229    0.051434   -0.000000
    13   -0.123353   -0.052385    0.000000
    14    0.031109   -0.119818   -0.000000
    15    0.112786    0.097236    0.000000
    16   -0.104771   -0.040405   -0.000950
    17    0.045995   -0.088342   -0.000792
    18   -0.154656    0.039117    0.005211
    19    0.082819   -0.070663   -0.001428
    20    0.124702    0.080416   -0.001050
    21    0.053692   -0.027475   -0.007134
    22    0.056784    0.004770    0.140820
    23   -0.001319    0.030109   -0.012438
    24    0.052704    0.027636   -0.103779
    25   -0.658514   -0.409681    0.001043
    26    3.181379    1.597398    0.000501
    27    0.362043   -0.441709   -0.000555
    28   -0.156130    0.731825   -0.000072
    29    0.139812    0.181267   -0.000226
    30   -2.586683   -3.282601    0.000259
----------------------------------------
   Tot    0.466756   -1.689513    0.019411
----------------------------------------
   Max    3.282601
   Res    0.640698    sqrt( Sum f_i^2 / 3N )
----------------------------------------
   Max    3.282601    constrained

Stress tensor Voigt[x,y,z,yz,xz,xy] (kbar):        0.10        0.34       -0.01       -0.01        0.00        0.13
(Free)E + p*V (eV/cell)    -3999.8932
Target enthalpy (eV/cell)    -3998.6866

siesta: Stress tensor (static) (eV/Ang**3):
         0.000064    0.000078    0.000000
         0.000078    0.000209   -0.000004
         0.000000   -0.000004   -0.000005

siesta: Pressure (static):         -0.14320385  kBar

siesta: Stress tensor (total) (eV/Ang**3):
         0.000064    0.000078    0.000000
         0.000078    0.000209   -0.000004
         0.000000   -0.000004   -0.000005

siesta: Pressure (total):         -0.14320385  kBar

siesta: Temp_ion =       0.000 K

siesta: Eigenvalues (eV):
ik =     1
  -22.8507  -22.8507  -22.3283  -22.3283  -21.7228  -21.7228  -21.2774  -21.2774  -21.0387  -21.0387
  -20.9681  -20.9681  -19.4143  -19.4143  -19.2515  -19.2515  -18.6273  -18.6273  -15.0122  -15.0122
  -14.0996  -14.0996  -13.6664  -13.6664  -13.5673  -13.5673  -13.0686  -13.0686  -12.9071  -12.9071
  -12.5545  -12.5545  -12.1873  -12.1873  -11.9028  -11.9028  -11.6300  -11.6300  -11.4839  -11.4839
  -11.0076  -11.0076  -10.6098  -10.6098  -10.2199  -10.2199   -9.5328   -9.5328   -9.3152   -9.3152
   -9.1749   -9.1749   -9.0849   -9.0849   -9.0183   -9.0183   -8.8109   -8.8109   -8.5894   -8.5894
   -8.3845   -8.3845   -8.2524   -8.2524   -8.1496   -8.1496   -7.9989   -7.9989   -7.9376   -7.9376
   -7.7006   -7.7006   -7.4147   -7.4147   -7.3181   -7.3181   -7.2608   -7.2608   -6.8604   -6.8604
   -6.8435   -6.8435   -6.7113   -6.7113   -6.4267   -6.4267   -6.2563   -6.2563   -6.1831   -6.1831
   -5.8230   -5.8230   -5.6922   -5.6922   -5.5604   -5.5604   -4.2316   -4.2316   -3.4766   -3.4766
   -2.6894   -2.6894   -2.1953   -2.1953   -2.1888   -2.1888   -2.1112   -2.1112   -1.9783   -1.9783
   -1.9599   -1.9599   -1.7254   -1.7254   -1.6202   -1.6202   -1.6051   -1.6051   -1.4179   -1.4179
   -1.1483   -1.1483   -0.5926   -0.5926   -0.3271   -0.3271   -0.2172   -0.2172   -0.1719   -0.1719
   -0.0071   -0.0071    0.0628    0.0628    0.2575    0.2575    0.5288    0.5288    0.5588    0.5588
    0.6185    0.6185    0.7566    0.7566    1.2008    1.2008    1.2597    1.2597    1.2972    1.2972
    1.4591    1.4591    1.5782    1.5782    1.9004    1.9004    1.9610    1.9610    2.1641    2.1641
    2.4196    2.4196    2.7574    2.7574    2.7878    2.7878    2.8174    2.8174    2.8346    2.8346
    3.0668    3.0668    3.1008    3.1008    3.1492    3.1492    3.2616    3.2616    3.3230    3.3230
    3.6687    3.6687    3.9231    3.9231    4.1983    4.1983    4.2045    4.2045    4.2448    4.2448
    4.3730    4.3730    4.6738    4.6738    4.6799    4.6799    4.8101    4.8101    5.0609    5.0609
    5.0756    5.0756    5.2091    5.2091    5.5678    5.5678    5.7128    5.7128    5.7380    5.7380
    5.8816    5.8816    6.0675    6.0675    6.1512    6.1512    6.2280    6.2280    6.3135    6.3135
    6.6014    6.6014    6.6026    6.6026    6.8306    6.8306    7.0507    7.0507    7.2083    7.2083
    7.2529    7.2529    7.4707    7.4707    7.6257    7.6257    7.8559    7.8559    7.9740    7.9740
    7.9971    7.9971    8.1693    8.1693    8.3548    8.3548    8.3678    8.3678    8.6952    8.6952
    8.9266    8.9266    8.9874    8.9874    9.0056    9.0056    9.2813    9.2813    9.6188    9.6188
    9.6551    9.6551    9.8050    9.8050    9.8260    9.8260    9.9153    9.9153    9.9472    9.9472
   10.1786   10.1786   10.4538   10.4538   10.6533   10.6533   10.9484   10.9484   10.9701   10.9701
   11.3031   11.3031   11.4176   11.4176   11.6343   11.6343   11.6656   11.6656   11.6834   11.6834
   11.9333   11.9333   12.2962   12.2962   12.3400   12.3400   12.4120   12.4120   12.6352   12.6352
   12.9275   12.9275   12.9530   12.9530   13.0517   13.0517   13.2684   13.2684   13.4020   13.4020
   13.4595   13.4595   13.7292   13.7292   14.5050   14.5050   14.6637   14.6637   14.7339   14.7339
   14.8038   14.8038   14.9361   14.9361   15.1548   15.1548   16.1092   16.1092   16.5631   16.5631
   16.7921   16.7921   16.9097   16.9097   17.0273   17.0273   17.1901   17.1901   17.4369   17.4369
   18.2265   18.2265   18.2584   18.2584   18.5708   18.5708   18.7630   18.7630   18.8349   18.8349
   18.8836   18.8836   19.5479   19.5479   19.8715   19.8715   20.0262   20.0262   20.2560   20.2560
   20.7160   20.7160   21.1158   21.1158   21.1843   21.1843   21.7034   21.7034   22.2853   22.2853
   22.3107   22.3107   22.8941   22.8941   22.9781   22.9781   23.1846   23.1846   23.8441   23.8441
   24.5952   24.5952   24.8318   24.8318   24.8402   24.8402   25.7929   25.7929   25.9444   25.9444
   26.1340   26.1340   26.5601   26.5601   26.5948   26.5948   27.7764   27.7764   28.0539   28.0539
   28.4111   28.4111   28.5032   28.5032   29.2157   29.2157   29.5190   29.5190   30.4694   30.4694
   30.8082   30.8082   30.8443   30.8443   30.9391   30.9391   31.3875   31.3875   31.6299   31.6299
   31.7799   31.7799   32.0230   32.0230   32.1721   32.1721   33.3966   33.3966   33.4851   33.4851
   33.7520   33.7520   34.0765   34.0765   34.5249   34.5249   34.8954   34.8954   34.9353   34.9353
   35.5126   35.5126   36.0219   36.0219   36.1548   36.1548   37.1810   37.1810   37.5697   37.5697
   37.5735   37.5735   37.8095   37.8095   38.1378   38.1378   38.4616   38.4616   38.4938   38.4938
   39.1451   39.1451   40.2535   40.2535   40.2857   40.2857   40.7744   40.7744   41.1978   41.1978
   41.7196   41.7196   41.8934   41.8934   41.9246   41.9246   43.3297   43.3297   43.4802   43.4802
   43.9186   43.9186   44.5825   44.5825   44.8962   44.8962   44.9253   44.9253   45.1816   45.1816
   45.6087   45.6087   45.8013   45.8013   45.9861   45.9861   46.6153   46.6153   47.0332   47.0332
   47.1233   47.1233   47.4496   47.4496   48.6389   48.6389   48.8257   48.8257   49.3860   49.3860
   49.7232   49.7232   50.2410   50.2410   50.3109   50.3109   50.3491   50.3491   50.4601   50.4601
   51.7632   51.7632   52.6670   52.6670   52.7592   52.7592   53.9673   53.9673   54.3831   54.3831
   54.8695   54.8695   54.8976   54.8976   56.0737   56.0737   56.1204   56.1204   56.2381   56.2381
   56.9309   56.9309   57.7649   57.7649   58.0120   58.0120   58.4174   58.4174   59.6828   59.6828
   60.0514   60.0514   61.2325   61.2325   61.7357   61.7357   62.8703   62.8703   63.3549   63.3549
   65.2913   65.2913   65.4769   65.4769   67.0754   67.0754   67.3390   67.3390   68.4507   68.4507
   68.4735   68.4735   70.6059   70.6059   72.0097   72.0097   76.5449   76.5449   88.6846   88.6846
   91.9022   91.9022   93.0771   93.0771   95.1046   95.1046   96.5388   96.5388  100.1891  100.1891
  100.7977  100.7977  102.5926  102.5926  114.3160  114.3160  118.3789  118.3789  123.2875  123.2875
  132.4954  132.4954  138.7977  138.7977
siesta: Fermi energy =      -3.854098 eV

siesta: Program's energy decomposition (eV):
siesta: Ebs     =     -1111.856021
siesta: Eions   =      3553.971015
siesta: Ena     =       374.984508
siesta: Ekin    =      2742.960220
siesta: Enl     =     -2522.626963
siesta: Eso     =        -0.004664
siesta: Edftu   =         0.000000
siesta: DEna    =        36.860837
siesta: DUscf   =        13.898594
siesta: DUext   =         0.000000
siesta: Exc     =     -1090.788120
siesta: eta*DQ  =         0.000000
siesta: Emadel  =         0.000000
siesta: Emeta   =         0.000000
siesta: Emolmec =         0.000000
siesta: Ekinion =         0.000000
siesta: Eharris =     -3998.686604
siesta: Etot    =     -3998.686604
siesta: FreeEng =     -3998.686605

siesta: Final energy (eV):
siesta:  Band Struct. =   -1111.856021
siesta:       Kinetic =    2742.960220
siesta:       Hartree =   11697.677298
siesta:       Edftu   =       0.000000
siesta:       Eso     =      -0.004664
siesta:    Ext. field =       0.000000
siesta:   Exch.-corr. =   -1090.788120
siesta:  Ion-electron =  -25834.536886
siesta:       Ion-ion =    8486.005549
siesta:       Ekinion =       0.000000
siesta:         Total =   -3998.686604
siesta:         Fermi =      -3.854098

siesta: Atomic forces (eV/Ang):
siesta:      1    0.143208   -0.027186   -0.000000
siesta:      2   -0.036002    0.044094   -0.000000
siesta:      3   -0.031069   -0.017952    0.000000
siesta:      4    0.068455   -0.134383    0.000000
siesta:      5    0.054241    0.005130   -0.000000
siesta:      6   -0.195259    0.018947    0.000000
siesta:      7    1.084916   -0.044234   -0.000000
siesta:      8   -0.662769    1.420099   -0.000000
siesta:      9    0.172459   -1.017931   -0.000000
siesta:     10   -0.111534    0.134885    0.000000
siesta:     11   -0.197058   -0.379114    0.000000
siesta:     12   -0.281229    0.051434   -0.000000
siesta:     13   -0.123353   -0.052385    0.000000
siesta:     14    0.031109   -0.119818   -0.000000
siesta:     15    0.112786    0.097236    0.000000
siesta:     16   -0.104771   -0.040405   -0.000950
siesta:     17    0.045995   -0.088342   -0.000792
siesta:     18   -0.154656    0.039117    0.005211
siesta:     19    0.082819   -0.070663   -0.001428
siesta:     20    0.124702    0.080416   -0.001050
siesta:     21    0.053692   -0.027475   -0.007134
siesta:     22    0.056784    0.004770    0.140820
siesta:     23   -0.001319    0.030109   -0.012438
siesta:     24    0.052704    0.027636   -0.103779
siesta:     25   -0.658514   -0.409681    0.001043
siesta:     26    3.181379    1.597398    0.000501
siesta:     27    0.362043   -0.441709   -0.000555
siesta:     28   -0.156130    0.731825   -0.000072
siesta:     29    0.139812    0.181267   -0.000226
siesta:     30   -2.586683   -3.282601    0.000259
siesta: ----------------------------------------
siesta:    Tot    0.466756   -1.689513    0.019411

siesta: Stress tensor (static) (eV/Ang**3):
siesta:     0.000064    0.000078    0.000000
siesta:     0.000078    0.000209   -0.000004
siesta:     0.000000   -0.000004   -0.000005

siesta: Cell volume =      13500.000000 Ang**3

siesta: Pressure (static):
siesta:                Solid            Molecule  Units
siesta:          -0.00000097          0.00000706  Ry/Bohr**3
siesta:          -0.00008938          0.00064813  eV/Ang**3
siesta:          -0.14320385          1.03843000  kBar
(Free)E+ p_basis*V_orbitals  =       -3977.558519
(Free)Eharris+ p_basis*V_orbitals  =       -3977.558519
     spin moment: S , {S} =    0.00000   0.00000  -0.00000  -0.00000

siesta: Electric dipole (a.u.)  =   -1.167152    1.559909   -0.001846
siesta: Electric dipole (Debye) =   -2.966605    3.964895   -0.004693

cite: Please see "AT.bib" for an exhaustive BiBTeX file.
cite: Please clearly indicate Siesta version in published work: v4.1.5-1-g384057250
cite: This calculation has made use of the following articles
cite: which are encouraged to be cited in a published work.
        Primary SIESTA paper
          DOI: www.doi.org/10.1088/0953-8984/14/11/302
        Spin-orbit coupling (on-site approximation)
          DOI: www.doi.org/10.1088/0953-8984/19/19/489001


WARNING: alloc-realloc-dealloc name mismatch
         Name: atomlist isa
         Size:              -120. Bytes
         Node:     0
         Subsequent mismatches will not be reported
>> End of run:   1-FEB-2024  21:29:19
Job completed
