Siesta Version  : v4.1.5-1-g384057250
Architecture    : gcc
Compiler version: GNU Fortran (Debian 10.2.1-6) 10.2.1 20210110
Compiler flags  : mpifort -O2 -fPIC -ftree-vectorize -fallow-argument-mismatch
PP flags        : -DFC_HAVE_ABORT -DMPI -DSIESTA__FLOOK -DSIESTA__METIS -DSIESTA__MUMPS -DCDF -DNCDF -DNCDF_4 -DNCDF_PARALLEL -DSIESTA__MRRR -DSIESTA__ELPA
Libraries       : libncdf.a libfdict.a  -lflookall -ldl -lnetcdff -lnetcdf -lhdf5_hl -lhdf5 -lhdf5_fortran -lz -lscalapack-openmpi -lopenblas -lmetis -lzmumps -lcmumps -ldmumps -lmumps_common -lpord -lsmumps -lesmumps -lscotch -lscotcherr -fopenmp -lelpa
PARALLEL version
NetCDF support
NetCDF-4 support
NetCDF-4 MPI-IO support
METIS ordering support
Lua support

* Running on 6 nodes in parallel
>> Start of run:  16-OCT-2023  18:36:42

                           ***********************       
                           *  WELCOME TO SIESTA  *       
                           ***********************       

reinit: Reading from standard input
reinit: Dumped input in INPUT_TMP.58148
************************** Dump of input data file ****************************
# mpirun -np 4 siesta-4.1.5 < GC.fdf > GC.out &
SystemLabel      GC
NumberOfAtoms    29
NumberOfSpecies  4
%block ChemicalSpeciesLabel
    1    1  H
    2    7  N
    3   14  Si
    4    8  O
%endblock ChemicalSpeciesLabel
############################################
# This overrides Defaults.fdf configuration
############################################
MD.TypeOfRun                CG # CG, Verlet
MD.Steps                    0
MaxSCFIterations            600
AtomicCoordinatesFormat NotScaledCartesianAng
%block AtomicCoordinatesAndAtomicSpecies
    0.18519651234666867 4.861363587806439 0.0  1  1  H
    -0.5212902176533313 4.071327407806439 0.0  2  2  N
    -2.251577127653331 4.512691317806439 0.0  3  3  Si
    -2.4073568076533314 6.002683577806439 0.0  1  4  H
    -3.7748987476533316 2.953783797806439 0.0  3  5  Si
    -5.258086377653331 3.1966141578064393 0.0  1  6  H
    -2.576507887653331 1.040507637806439 0.0  3  7  Si
    -3.3425333476533314 -0.49220910219356107 0.0  2  8  N
    -2.752286797653331 -1.449422132193561 0.0  1  9  H
    -4.394155667653331 -0.572669332193561 0.0  1  10  H
    -0.8603078276533312 1.095681947806439 0.0  2  11  N
    0.21471479234666868 2.426020787806439 0.0  3  12  Si
    1.8233881123466684 2.407210527806439 0.0  4  13  O
    5.6164483 -7.44953905 0.0  1  14  H
    4.58206954 -7.2320376 0.0  2  15  N
    3.29666389 -8.492636 0.0  3  16  Si
    3.80117524 -9.90371886 -0.0  1  17  H
    1.65934232 -8.01362137 0.0  2  18  N
    1.68097912 -6.20463398 -0.0  3  19  Si
    0.54543521 -4.28636135 0.0  3  20  Si
    -1.03431493 -3.94450034 0.0  4  21  O
    1.73226934 -2.87719605 0.0  2  22  N
    1.20957366 -1.92961761 -0.0  1  23  H
    3.50853448 -2.77677601 0.0  3  24  Si
    4.13684451 -1.17938608 0.0  2  25  N
    3.54296161 -0.26248101 0.0  1  26  H
    5.18364407 -1.05231197 -0.0  1  27  H
    4.63288658 -4.07521596 -0.0  2  28  N
    3.79410501 -5.58634043 0.0  3  29  Si
%endblock AtomicCoordinatesAndAtomicSpecies
%include ../../../../Defaults.fdf
************************** End of input data file *****************************

reinit: -----------------------------------------------------------------------
reinit: System Name: 
reinit: -----------------------------------------------------------------------
reinit: System Label: GC
reinit: -----------------------------------------------------------------------

initatom: Reading input for the pseudopotentials and atomic orbitals ----------
Species number:   1 Atomic number:    1 Label: H
Species number:   2 Atomic number:    7 Label: N
Species number:   3 Atomic number:   14 Label: Si
Species number:   4 Atomic number:    8 Label: O

Ground state valence configuration:   1s01
Reading pseudopotential information in formatted form from H.psf

Pseudopotential generated from a relativistic atomic calculation

Valence configuration for pseudopotential generation:
1s( 1.00) rc: 0.01
2p( 0.00) rc: 0.60
3d( 0.00) rc: 1.99
4f( 0.00) rc: 2.49
Ground state valence configuration:   2s02  2p03
Reading pseudopotential information in formatted form from N.psf

Pseudopotential generated from a relativistic atomic calculation

Valence configuration for pseudopotential generation:
2s( 2.00) rc: 0.94
2p( 3.00) rc: 0.59
3d( 0.00) rc: 3.46
4f( 0.00) rc: 2.47
Ground state valence configuration:   3s02  3p02
Reading pseudopotential information in formatted form from Si.psf

Pseudopotential generated from a relativistic atomic calculation

Valence configuration for pseudopotential generation:
3s( 2.00) rc: 1.67
3p( 2.00) rc: 2.04
3d( 0.00) rc: 2.89
4f( 0.00) rc: 2.49
Ground state valence configuration:   2s02  2p04
Reading pseudopotential information in formatted form from O.psf

Pseudopotential generated from a relativistic atomic calculation

Valence configuration for pseudopotential generation:
2s( 2.00) rc: 0.45
2p( 4.00) rc: 0.92
3d( 0.00) rc: 2.24
4f( 0.00) rc: 0.25
For H, standard SIESTA heuristics set lmxkb to 2
 (one more than the basis l, including polarization orbitals).
Use PS.lmax or PS.KBprojectors blocks to override.
For N, standard SIESTA heuristics set lmxkb to 3
 (one more than the basis l, including polarization orbitals).
Use PS.lmax or PS.KBprojectors blocks to override.
For Si, standard SIESTA heuristics set lmxkb to 3
 (one more than the basis l, including polarization orbitals).
Use PS.lmax or PS.KBprojectors blocks to override.
For O, standard SIESTA heuristics set lmxkb to 3
 (one more than the basis l, including polarization orbitals).
Use PS.lmax or PS.KBprojectors blocks to override.

<basis_specs>
===============================================================================
H                    Z=   1    Mass=  1.0100        Charge= 0.17977+309
Lmxo=0 Lmxkb= 2    BasisType=split      Semic=F
L=0  Nsemic=0  Cnfigmx=1
          i=1  nzeta=2  polorb=1  (1s)
            splnorm:   0.62000    
               vcte:    0.0000    
               rinn:    0.0000    
               qcoe:    0.0000    
               qyuk:    0.0000    
               qwid:   0.10000E-01
                rcs:    0.0000      0.0000    
            lambdas:    1.0000      1.0000    
-------------------------------------------------------------------------------
L=0  Nkbl=1  erefs: 0.17977+309
L=1  Nkbl=1  erefs: 0.17977+309
L=2  Nkbl=1  erefs: 0.17977+309
===============================================================================
</basis_specs>

atom: Called for H                     (Z =   1)

read_vps: Pseudopotential generation method:
read_vps: ATM4.2.7  Troullier-Martins                       
Valence charge for ps generation:    1.00000

xc_check: Exchange-correlation functional:
xc_check: GGA Perdew, Burke & Ernzerhof 1996
V l=0 = -2*Zval/r beyond r=  0.0098
V l=1 = -2*Zval/r beyond r=  0.5817
V l=2 = -2*Zval/r beyond r=  1.9372
All V_l potentials equal beyond r=  1.9372
This should be close to max(r_c) in ps generation
All pots = -2*Zval/r beyond r=  1.9372

VLOCAL1: 99.0% of the norm of Vloc inside     11.567 Ry
VLOCAL1: 99.9% of the norm of Vloc inside     26.362 Ry
atom: Maximum radius for 4*pi*r*r*local-pseudopot. charge    2.25106
atom: Maximum radius for r*vlocal+2*Zval:    1.91306
GHOST: No ghost state for L =  0
GHOST: No ghost state for L =  1
GHOST: No ghost state for L =  2

KBgen: Kleinman-Bylander projectors: 
   l= 0   rc=  2.036604   el= -0.477180   Ekb= -6.081590   kbcos= -0.277285
   l= 1   rc=  2.195416   el=  0.001076   Ekb= -0.926943   kbcos= -0.034643
   l= 2   rc=  2.251056   el=  0.002010   Ekb= -0.130941   kbcos= -0.009788

KBgen: Total number of Kleinman-Bylander projectors:    9
atom: -------------------------------------------------------------------------

atom: SANKEY-TYPE ORBITALS:
atom: Selected multiple-zeta basis: split     

SPLIT: Orbitals with angular momentum L= 0

SPLIT: Basis orbitals for state 1s

SPLIT: PAO cut-off radius determined from an
SPLIT: energy shift=  0.002000 Ry

   izeta = 1
                 lambda =    1.000000
                     rc =    6.518340
                 energy =   -0.475305
                kinetic =    0.912139
    potential(screened) =   -1.387444
       potential(ionic) =   -1.907295

   izeta = 2
                 rmatch =    2.141150
              splitnorm =    0.620000
                 energy =    0.566467
                kinetic =    3.772856
    potential(screened) =   -3.206389
       potential(ionic) =   -3.759093

POLgen: Perturbative polarization orbital with L=  1

POLgen: Polarization orbital for state 1s

   izeta = 1
                     rc =    6.518340
                 energy =    0.533861
                kinetic =    1.121086
    potential(screened) =   -0.587225
       potential(ionic) =   -1.053027
atom: Total number of Sankey-type orbitals:  5

atm_pop: Valence configuration (for local Pseudopot. screening):
 1s( 1.00)                                                            
Vna: chval, zval:    1.00000   1.00000

Vna:  Cut-off radius for the neutral-atom potential:   6.518340

atom: _________________________________________________________________________

<basis_specs>
===============================================================================
N                    Z=   7    Mass=  14.010        Charge= 0.17977+309
Lmxo=1 Lmxkb= 3    BasisType=split      Semic=F
L=0  Nsemic=0  Cnfigmx=2
          i=1  nzeta=2  polorb=0  (2s)
            splnorm:   0.28000    
               vcte:    0.0000    
               rinn:    0.0000    
               qcoe:    0.0000    
               qyuk:    0.0000    
               qwid:   0.10000E-01
                rcs:    0.0000      0.0000    
            lambdas:    1.0000      1.0000    
L=1  Nsemic=0  Cnfigmx=2
          i=1  nzeta=2  polorb=1  (2p)
            splnorm:   0.28000    
               vcte:    0.0000    
               rinn:    0.0000    
               qcoe:    0.0000    
               qyuk:    0.0000    
               qwid:   0.10000E-01
                rcs:    0.0000      0.0000    
            lambdas:    1.0000      1.0000    
-------------------------------------------------------------------------------
L=0  Nkbl=1  erefs: 0.17977+309
L=1  Nkbl=1  erefs: 0.17977+309
L=2  Nkbl=1  erefs: 0.17977+309
L=3  Nkbl=1  erefs: 0.17977+309
===============================================================================
</basis_specs>

atom: Called for N                     (Z =   7)

read_vps: Pseudopotential generation method:
read_vps: ATM4.2.7  Troullier-Martins                       
Valence charge for ps generation:    5.00000

xc_check: Exchange-correlation functional:
xc_check: GGA Perdew, Burke & Ernzerhof 1996
V l=0 = -2*Zval/r beyond r=  1.2889
V l=1 = -2*Zval/r beyond r=  1.2889
V l=2 = -2*Zval/r beyond r=  3.4178
V l=3 = -2*Zval/r beyond r=  2.4084
All V_l potentials equal beyond r=  3.3753
This should be close to max(r_c) in ps generation
All pots = -2*Zval/r beyond r=  3.4178

VLOCAL1: 99.0% of the norm of Vloc inside      3.810 Ry
VLOCAL1: 99.9% of the norm of Vloc inside      8.683 Ry
atom: Maximum radius for 4*pi*r*r*local-pseudopot. charge    4.02088
atom: Maximum radius for r*vlocal+2*Zval:    3.54838
GHOST: No ghost state for L =  0
GHOST: No ghost state for L =  1
GHOST: No ghost state for L =  2
GHOST: No ghost state for L =  3

KBgen: Kleinman-Bylander projectors: 
   l= 0   rc=  3.417763   el= -1.365098   Ekb= -4.433130   kbcos= -0.707855
   l= 1   rc=  3.375302   el= -0.521201   Ekb=-13.264039   kbcos= -0.535594
   l= 2   rc=  3.872880   el=  0.001991   Ekb= -0.641094   kbcos= -0.062456
   l= 3   rc=  3.970931   el=  0.003093   Ekb= -0.474517   kbcos= -0.018236

KBgen: Total number of Kleinman-Bylander projectors:   16
atom: -------------------------------------------------------------------------

atom: SANKEY-TYPE ORBITALS:
atom: Selected multiple-zeta basis: split     

SPLIT: Orbitals with angular momentum L= 0

SPLIT: Basis orbitals for state 2s

SPLIT: PAO cut-off radius determined from an
SPLIT: energy shift=  0.002000 Ry

   izeta = 1
                 lambda =    1.000000
                     rc =    4.730425
                 energy =   -1.363399
                kinetic =    1.245246
    potential(screened) =   -2.608645
       potential(ionic) =   -8.121105

   izeta = 2
                 rmatch =    2.531849
              splitnorm =    0.280000
                 energy =   -0.959908
                kinetic =    2.409435
    potential(screened) =   -3.369343
       potential(ionic) =   -9.427975

SPLIT: Orbitals with angular momentum L= 1

SPLIT: Basis orbitals for state 2p

SPLIT: PAO cut-off radius determined from an
SPLIT: energy shift=  0.002000 Ry

   izeta = 1
                 lambda =    1.000000
                     rc =    5.924108
                 energy =   -0.519262
                kinetic =    3.672940
    potential(screened) =   -4.192202
       potential(ionic) =   -9.518354

   izeta = 2
                 rmatch =    2.531849
              splitnorm =    0.280000
                 energy =   -0.104258
                kinetic =    6.807538
    potential(screened) =   -6.911796
       potential(ionic) =  -13.149920

POLgen: Perturbative polarization orbital with L=  2

POLgen: Polarization orbital for state 2p

   izeta = 1
                     rc =    5.924108
                 energy =    1.427508
                kinetic =    2.872379
    potential(screened) =   -1.444871
       potential(ionic) =   -5.563644
atom: Total number of Sankey-type orbitals: 13

atm_pop: Valence configuration (for local Pseudopot. screening):
 2s( 2.00)                                                            
 2p( 3.00)                                                            
Vna: chval, zval:    5.00000   5.00000

Vna:  Cut-off radius for the neutral-atom potential:   5.924108

atom: _________________________________________________________________________

<basis_specs>
===============================================================================
Si                   Z=  14    Mass=  28.090        Charge= 0.17977+309
Lmxo=1 Lmxkb= 3    BasisType=split      Semic=F
L=0  Nsemic=0  Cnfigmx=3
          i=1  nzeta=2  polorb=0  (3s)
            splnorm:   0.28000    
               vcte:    0.0000    
               rinn:    0.0000    
               qcoe:    0.0000    
               qyuk:    0.0000    
               qwid:   0.10000E-01
                rcs:    0.0000      0.0000    
            lambdas:    1.0000      1.0000    
L=1  Nsemic=0  Cnfigmx=3
          i=1  nzeta=2  polorb=1  (3p)
            splnorm:   0.28000    
               vcte:    0.0000    
               rinn:    0.0000    
               qcoe:    0.0000    
               qyuk:    0.0000    
               qwid:   0.10000E-01
                rcs:    0.0000      0.0000    
            lambdas:    1.0000      1.0000    
-------------------------------------------------------------------------------
L=0  Nkbl=1  erefs: 0.17977+309
L=1  Nkbl=1  erefs: 0.17977+309
L=2  Nkbl=1  erefs: 0.17977+309
L=3  Nkbl=1  erefs: 0.17977+309
===============================================================================
</basis_specs>

atom: Called for Si                    (Z =  14)

read_vps: Pseudopotential generation method:
read_vps: ATM4.2.7  Troullier-Martins                       
Valence charge for ps generation:    4.00000

xc_check: Exchange-correlation functional:
xc_check: GGA Perdew, Burke & Ernzerhof 1996
V l=0 = -2*Zval/r beyond r=  2.7826
V l=1 = -2*Zval/r beyond r=  2.7826
V l=2 = -2*Zval/r beyond r=  2.9253
V l=3 = -2*Zval/r beyond r=  2.7826
All V_l potentials equal beyond r=  2.8530
This should be close to max(r_c) in ps generation
All pots = -2*Zval/r beyond r=  2.9253

VLOCAL1: 99.0% of the norm of Vloc inside      5.333 Ry
VLOCAL1: 99.9% of the norm of Vloc inside     12.154 Ry
atom: Maximum radius for 4*pi*r*r*local-pseudopot. charge    3.39869
atom: Maximum radius for r*vlocal+2*Zval:    2.96205
GHOST: No ghost state for L =  0
GHOST: No ghost state for L =  1
GHOST: No ghost state for L =  2
GHOST: No ghost state for L =  3

KBgen: Kleinman-Bylander projectors: 
   l= 0   rc=  3.075247   el= -0.794092   Ekb=  5.879390   kbcos=  0.167461
   l= 1   rc=  3.153101   el= -0.300068   Ekb=  2.642817   kbcos=  0.058301
   l= 2   rc=  3.273594   el=  0.001958   Ekb= -1.185135   kbcos= -0.104411
   l= 3   rc=  3.232927   el=  0.003046   Ekb= -0.497174   kbcos= -0.015889

KBgen: Total number of Kleinman-Bylander projectors:   16
atom: -------------------------------------------------------------------------

atom: SANKEY-TYPE ORBITALS:
atom: Selected multiple-zeta basis: split     

SPLIT: Orbitals with angular momentum L= 0

SPLIT: Basis orbitals for state 3s

SPLIT: PAO cut-off radius determined from an
SPLIT: energy shift=  0.002000 Ry

   izeta = 1
                 lambda =    1.000000
                     rc =    6.429618
                 energy =   -0.792283
                kinetic =    0.525293
    potential(screened) =   -1.317576
       potential(ionic) =   -3.744923

   izeta = 2
                 rmatch =    3.998416
              splitnorm =    0.280000
                 energy =   -0.583081
                kinetic =    1.069570
    potential(screened) =   -1.652651
       potential(ionic) =   -4.235185

SPLIT: Orbitals with angular momentum L= 1

SPLIT: Basis orbitals for state 3p

SPLIT: PAO cut-off radius determined from an
SPLIT: energy shift=  0.002000 Ry

   izeta = 1
                 lambda =    1.000000
                     rc =    8.464845
                 energy =   -0.298236
                kinetic =    0.785360
    potential(screened) =   -1.083596
       potential(ionic) =   -3.273779

   izeta = 2
                 rmatch =    4.587816
              splitnorm =    0.280000
                 energy =   -0.131871
                kinetic =    1.403687
    potential(screened) =   -1.535557
       potential(ionic) =   -4.015310

POLgen: Perturbative polarization orbital with L=  2

POLgen: Polarization orbital for state 3p

   izeta = 1
                     rc =    8.464845
                 energy =    0.321949
                kinetic =    1.055677
    potential(screened) =   -0.733728
       potential(ionic) =   -2.672950
atom: Total number of Sankey-type orbitals: 13

atm_pop: Valence configuration (for local Pseudopot. screening):
 3s( 2.00)                                                            
 3p( 2.00)                                                            
Vna: chval, zval:    4.00000   4.00000

Vna:  Cut-off radius for the neutral-atom potential:   8.464845

atom: _________________________________________________________________________

<basis_specs>
===============================================================================
O                    Z=   8    Mass=  16.000        Charge= 0.17977+309
Lmxo=1 Lmxkb= 3    BasisType=split      Semic=F
L=0  Nsemic=0  Cnfigmx=2
          i=1  nzeta=2  polorb=0  (2s)
            splnorm:   0.28000    
               vcte:    0.0000    
               rinn:    0.0000    
               qcoe:    0.0000    
               qyuk:    0.0000    
               qwid:   0.10000E-01
                rcs:    0.0000      0.0000    
            lambdas:    1.0000      1.0000    
L=1  Nsemic=0  Cnfigmx=2
          i=1  nzeta=2  polorb=1  (2p)
            splnorm:   0.28000    
               vcte:    0.0000    
               rinn:    0.0000    
               qcoe:    0.0000    
               qyuk:    0.0000    
               qwid:   0.10000E-01
                rcs:    0.0000      0.0000    
            lambdas:    1.0000      1.0000    
-------------------------------------------------------------------------------
L=0  Nkbl=1  erefs: 0.17977+309
L=1  Nkbl=1  erefs: 0.17977+309
L=2  Nkbl=1  erefs: 0.17977+309
L=3  Nkbl=1  erefs: 0.17977+309
===============================================================================
</basis_specs>

atom: Called for O                     (Z =   8)

read_vps: Pseudopotential generation method:
read_vps: ATM4.2.7  Troullier-Martins                       
Valence charge for ps generation:    6.00000

xc_check: Exchange-correlation functional:
xc_check: GGA Perdew, Burke & Ernzerhof 1996
V l=0 = -2*Zval/r beyond r=  1.1000
V l=1 = -2*Zval/r beyond r=  1.1000
V l=2 = -2*Zval/r beyond r=  2.2154
V l=3 = -2*Zval/r beyond r=  1.1000
All V_l potentials equal beyond r=  2.2154
This should be close to max(r_c) in ps generation
All pots = -2*Zval/r beyond r=  2.2154

VLOCAL1: 99.0% of the norm of Vloc inside      8.845 Ry
VLOCAL1: 99.9% of the norm of Vloc inside     20.157 Ry
atom: Maximum radius for 4*pi*r*r*local-pseudopot. charge    2.67231
atom: Maximum radius for r*vlocal+2*Zval:    2.32897
GHOST: No ghost state for L =  0
GHOST: No ghost state for L =  1
GHOST: No ghost state for L =  2
GHOST: No ghost state for L =  3

KBgen: Kleinman-Bylander projectors: 
   l= 0   rc=  2.243238   el= -1.759686   Ekb=**********   kbcos= -0.171774
   l= 1   rc=  2.328968   el= -0.663873   Ekb=-14.506792   kbcos= -0.519897
   l= 2   rc=  2.573941   el=  0.002031   Ekb= -1.137373   kbcos= -0.019581
   l= 3   rc=  2.606321   el=  0.003153   Ekb= -1.013546   kbcos= -0.003122

KBgen: Total number of Kleinman-Bylander projectors:   16
atom: -------------------------------------------------------------------------

atom: SANKEY-TYPE ORBITALS:
atom: Selected multiple-zeta basis: split     

SPLIT: Orbitals with angular momentum L= 0

SPLIT: Basis orbitals for state 2s

SPLIT: PAO cut-off radius determined from an
SPLIT: energy shift=  0.002000 Ry

   izeta = 1
                 lambda =    1.000000
                     rc =    4.243912
                 energy =   -1.758270
                kinetic =    3.286084
    potential(screened) =   -5.044353
       potential(ionic) =  -12.921184

   izeta = 2
                 rmatch =    2.187845
              splitnorm =    0.280000
                 energy =   -0.885018
                kinetic =    8.134434
    potential(screened) =   -9.019452
       potential(ionic) =  -17.710645

SPLIT: Orbitals with angular momentum L= 1

SPLIT: Basis orbitals for state 2p

SPLIT: PAO cut-off radius determined from an
SPLIT: energy shift=  0.002000 Ry

   izeta = 1
                 lambda =    1.000000
                     rc =    5.314825
                 energy =   -0.661986
                kinetic =    4.917472
    potential(screened) =   -5.579458
       potential(ionic) =  -13.236259

   izeta = 2
                 rmatch =    2.160663
              splitnorm =    0.280000
                 energy =   -0.068760
                kinetic =    9.183374
    potential(screened) =   -9.252135
       potential(ionic) =  -18.274251

POLgen: Perturbative polarization orbital with L=  2

POLgen: Polarization orbital for state 2p

   izeta = 1
                     rc =    5.314825
                 energy =    1.970580
                kinetic =    3.886128
    potential(screened) =   -1.915547
       potential(ionic) =   -7.749584
atom: Total number of Sankey-type orbitals: 13

atm_pop: Valence configuration (for local Pseudopot. screening):
 2s( 2.00)                                                            
 2p( 4.00)                                                            
Vna: chval, zval:    6.00000   6.00000

Vna:  Cut-off radius for the neutral-atom potential:   5.314825

atom: _________________________________________________________________________

prinput: Basis input ----------------------------------------------------------

PAO.BasisType split     

%block ChemicalSpeciesLabel
    1    1 H                       # Species index, atomic number, species label
    2    7 N                       # Species index, atomic number, species label
    3   14 Si                      # Species index, atomic number, species label
    4    8 O                       # Species index, atomic number, species label
%endblock ChemicalSpeciesLabel

%block PAO.Basis                 # Define Basis set
H                     1                    # Species label, number of l-shells
 n=1   0   2 P   1                   # n, l, Nzeta, Polarization, NzetaPol
   6.518      2.141   
   1.000      1.000   
N                     2                    # Species label, number of l-shells
 n=2   0   2                         # n, l, Nzeta 
   4.730      2.532   
   1.000      1.000   
 n=2   1   2 P   1                   # n, l, Nzeta, Polarization, NzetaPol
   5.924      2.532   
   1.000      1.000   
Si                    2                    # Species label, number of l-shells
 n=3   0   2                         # n, l, Nzeta 
   6.430      3.998   
   1.000      1.000   
 n=3   1   2 P   1                   # n, l, Nzeta, Polarization, NzetaPol
   8.465      4.588   
   1.000      1.000   
O                     2                    # Species label, number of l-shells
 n=2   0   2                         # n, l, Nzeta 
   4.244      2.188   
   1.000      1.000   
 n=2   1   2 P   1                   # n, l, Nzeta, Polarization, NzetaPol
   5.315      2.161   
   1.000      1.000   
%endblock PAO.Basis

prinput: ----------------------------------------------------------------------

Dumping basis to NetCDF file H.ion.nc
Dumping basis to NetCDF file N.ion.nc
Dumping basis to NetCDF file Si.ion.nc
Dumping basis to NetCDF file O.ion.nc
coor:   Atomic-coordinates input format  =     Cartesian coordinates
coor:                                          (in Angstroms)

siesta: Atomic coordinates (Bohr) and species
siesta:      0.34997   9.18665   0.00000  1        1
siesta:     -0.98510   7.69370   0.00000  2        2
siesta:     -4.25487   8.52775   0.00000  3        3
siesta:     -4.54925  11.34343   0.00000  1        4
siesta:     -7.13353   5.58184   0.00000  3        5
siesta:     -9.93635   6.04073   0.00000  1        6
siesta:     -4.86890   1.96628   0.00000  3        7
siesta:     -6.31648  -0.93014   0.00000  2        8
siesta:     -5.20107  -2.73901   0.00000  1        9
siesta:     -8.30375  -1.08219   0.00000  1       10
siesta:     -1.62575   2.07054   0.00000  2       11
siesta:      0.40575   4.58452   0.00000  3       12
siesta:      3.44571   4.54897   0.00000  4       13
siesta:     10.61355 -14.07759   0.00000  1       14
siesta:      8.65886 -13.66658   0.00000  2       15
siesta:      6.22979 -16.04876   0.00000  3       16
siesta:      7.18318 -18.71532  -0.00000  1       17
siesta:      3.13570 -15.14356   0.00000  2       18
siesta:      3.17659 -11.72506  -0.00000  3       19
siesta:      1.03072  -8.10005   0.00000  3       20
siesta:     -1.95457  -7.45403   0.00000  4       21
siesta:      3.27352  -5.43711   0.00000  2       22
siesta:      2.28576  -3.64645  -0.00000  1       23
siesta:      6.63017  -5.24735   0.00000  3       24
siesta:      7.81751  -2.22872   0.00000  2       25
siesta:      6.69523  -0.49602   0.00000  1       26
siesta:      9.79567  -1.98858  -0.00000  1       27
siesta:      8.75489  -7.70105  -0.00000  2       28
siesta:      7.16982 -10.55666   0.00000  3       29

siesta: Automatic unit cell vectors (Ang):
siesta:   19.550571    0.000000    0.000000
siesta:    0.000000   25.085625    0.000000
siesta:    0.000000    0.000000    9.854683

siesta: System type = molecule  

initatomlists: Number of atoms, orbitals, and projectors:     29   297   394

siesta: ******************** Simulation parameters ****************************
siesta:
siesta: The following are some of the parameters of the simulation.
siesta: A complete list of the parameters used, including default values,
siesta: can be found in file out.fdf
siesta:
redata: Spin configuration                          = spin-orbit
redata: Number of spin components                   = 8
redata: Time-Reversal Symmetry                      = F
redata: Spin spiral                                 = F
############################################################
This spin-orbit implementation uses a local approximation.
From 4.2 and onwards the full non-local approximation is implemented
You are strongly advised to use >=4.2 versions!
############################################################
redata: Long output                                 =   F
redata: Number of Atomic Species                    =        4
redata: Charge density info will appear in .RHO file
redata: Write Mulliken Pop.                         = NO
redata: Matel table size (NRTAB)                    =     1024
redata: Mesh Cutoff                                 =   340.0000 Ry
redata: Net charge of the system                    =     0.0000 |e|
redata: Min. number of SCF Iter                     =        1
redata: Max. number of SCF Iter                     =      600
redata: SCF convergence failure will abort job
redata: SCF mix quantity                            = Hamiltonian
redata: Mix DM or H after convergence               =   F
redata: Recompute H after scf cycle                 =   F
redata: Mix DM in first SCF step                    =   T
redata: Write Pulay info on disk                    =   F
redata: New DM Occupancy tolerance                  = 0.000000000001
redata: No kicks to SCF
redata: DM Mixing Weight for Kicks                  =     0.5000
redata: Require Harris convergence for SCF          =   F
redata: Harris energy tolerance for SCF             =     0.000100 eV
redata: Require DM convergence for SCF              =   T
redata: DM tolerance for SCF                        =     0.000008
redata: Require EDM convergence for SCF             =   F
redata: EDM tolerance for SCF                       =     0.001000 eV
redata: Require H convergence for SCF               =   T
redata: Hamiltonian tolerance for SCF               =     0.000001 eV
redata: Require (free) Energy convergence for SCF   =   F
redata: (free) Energy tolerance for SCF             =     0.000100 eV
redata: Using Saved Data (generic)                  =   F
redata: Use continuation files for DM               =   T
redata: Neglect nonoverlap interactions             =   F
redata: Method of Calculation                       = Diagonalization
redata: Electronic Temperature                      =   299.9978 K
redata: Fix the spin of the system                  =   F
redata: Dynamics option                             = Single-point calculation
mix.SCF: Pulay mixing                            = Pulay
mix.SCF:    Variant                              = stable
mix.SCF:    History steps                        = 6
mix.SCF:    Linear mixing weight                 =     0.250000
mix.SCF:    Mixing weight                        =     0.250000
mix.SCF:    SVD condition                        = 0.1000E-07
mix.SCF:    Restart steps                        = 24
mix.SCF:    Restart save steps                   = 3
mix.SCF: Spin-component mixing                   all
redata: Save all siesta data in one NC              =   F
redata: ***********************************************************************

%block SCF.Mixers
  Pulay
%endblock SCF.Mixers

%block SCF.Mixer.Pulay
  # Mixing method
  method pulay
  variant stable

  # Mixing options
  weight 0.2500
  weight.linear 0.2500
  history 6
  restart 24
  restart.save 3
%endblock SCF.Mixer.Pulay

DM_history_depth set to one: no extrapolation allowed by default for geometry relaxation
Size of DM history Fstack: 1
Total number of electrons:    98.000000
Total ionic charge:    98.000000

* ProcessorY, Blocksize:    2  24


* Orbital distribution balance (max,min):    57    48


Time-reversal symmetry not used.

siesta: k-grid: Number of k-points =     1
siesta: k-grid: Cutoff (effective) =     4.927 Ang
siesta: k-grid: Supercell and displacements
siesta: k-grid:    1   0   0      0.000
siesta: k-grid:    0   1   0      0.000
siesta: k-grid:    0   0   1      0.000

diag: Algorithm                                     = ELPA-1stage
diag: Parallel over k                               =   F
diag: Use parallel 2D distribution                  =   T
diag: Parallel block-size                           = 24
diag: Parallel distribution                         =     2 x     3
diag: Used triangular part                          = Lower
diag: Absolute tolerance                            =  0.100E-15
diag: Orthogonalization factor                      =  0.100E-05
diag: Memory factor                                 =  1.0000


ts: **************************************************************
ts: Save H and S matrices                           =    F
ts: Save DM and EDM matrices                        =    F
ts: Only save the overlap matrix S                  =    F
ts: **************************************************************

************************ Begin: TS CHECKS AND WARNINGS ************************
************************ End: TS CHECKS AND WARNINGS **************************


                     ====================================
                        Single-point calculation
                     ====================================

outcoor: Atomic coordinates (Ang):                          
    0.18519651    4.86136359    0.00000000   1       1  H
   -0.52129022    4.07132741    0.00000000   2       2  N
   -2.25157713    4.51269132    0.00000000   3       3  Si
   -2.40735681    6.00268358    0.00000000   1       4  H
   -3.77489875    2.95378380    0.00000000   3       5  Si
   -5.25808638    3.19661416    0.00000000   1       6  H
   -2.57650789    1.04050764    0.00000000   3       7  Si
   -3.34253335   -0.49220910    0.00000000   2       8  N
   -2.75228680   -1.44942213    0.00000000   1       9  H
   -4.39415567   -0.57266933    0.00000000   1      10  H
   -0.86030783    1.09568195    0.00000000   2      11  N
    0.21471479    2.42602079    0.00000000   3      12  Si
    1.82338811    2.40721053    0.00000000   4      13  O
    5.61644830   -7.44953905    0.00000000   1      14  H
    4.58206954   -7.23203760    0.00000000   2      15  N
    3.29666389   -8.49263600    0.00000000   3      16  Si
    3.80117524   -9.90371886    0.00000000   1      17  H
    1.65934232   -8.01362137    0.00000000   2      18  N
    1.68097912   -6.20463398    0.00000000   3      19  Si
    0.54543521   -4.28636135    0.00000000   3      20  Si
   -1.03431493   -3.94450034    0.00000000   4      21  O
    1.73226934   -2.87719605    0.00000000   2      22  N
    1.20957366   -1.92961761    0.00000000   1      23  H
    3.50853448   -2.77677601    0.00000000   3      24  Si
    4.13684451   -1.17938608    0.00000000   2      25  N
    3.54296161   -0.26248101    0.00000000   1      26  H
    5.18364407   -1.05231197    0.00000000   1      27  H
    4.63288658   -4.07521596    0.00000000   2      28  N
    3.79410501   -5.58634043    0.00000000   3      29  Si

outcell: Unit cell vectors (Ang):
       19.550571    0.000000    0.000000
        0.000000   25.085625    0.000000
        0.000000    0.000000    9.854683

outcell: Cell vector modules (Ang)   :   19.550571   25.085625    9.854683
outcell: Cell angles (23,13,12) (deg):     90.0000     90.0000     90.0000
outcell: Cell volume (Ang**3)        :   4833.1141
<dSpData1D:S at geom step 0
  <sparsity:sparsity for geom step 0
    nrows_g=297 nrows=57 sparsity=.1151 nnzs=10153, refcount: 8>
  <dData1D:(new from dSpData1D) n=10153, refcount: 1>
refcount: 1>
new_DM -- step:     1
Initializing Density Matrix...

Attempting to read DM from file... Failed...
DM filled with atomic data:
<dSpData2D:DM initialized from atoms
  <sparsity:sparsity for geom step 0
    nrows_g=297 nrows=57 sparsity=.1151 nnzs=10153, refcount: 9>
  <dData2D:DM n=10153 m=8, refcount: 1>
refcount: 1>
     spin moment: S , {S} =   56.00000   0.00000   0.00000  56.00000
No. of atoms with KB's overlaping orbs in proc 0. Max # of overlaps:      28     170

Initializing spin-orbit part of the Hamiltonian
  Adding spin-orbit effects for H 
  Adding spin-orbit effects for N 
  Adding spin-orbit effects for Si
  Adding spin-orbit effects for O 


New grid distribution:   1
           1       1:  120    1:   72    1:   20
           2       1:  120    1:   72   21:   40
           3       1:  120    1:   72   41:   60
           4       1:  120   73:  144    1:   20
           5       1:  120   73:  144   21:   40
           6       1:  120   73:  144   41:   60

InitMesh: MESH =   240 x   288 x   120 =     8294400
InitMesh: (bp) =   120 x   144 x    60 =     1036800
InitMesh: Mesh cutoff (required, used) =   340.000   364.281 Ry
ExtMesh (bp) on 0 =   232 x   176 x   132 =     5389824
New grid distribution:   2
           1      25:  120   20:  104    1:   60
           2      25:  120    1:   19    1:   60
           3       1:   16  105:  144    1:   60
           4      17:  120  105:  124    1:   60
           5       1:   24    1:  104    1:   60
           6      17:  120  125:  144    1:   60
New grid distribution:   3
           1      27:  120   24:   91    1:   60
           2       1:   26    1:   91    1:   60
           3       1:   23   92:  144    1:   60
           4      24:  120  123:  144    1:   60
           5      24:  120   92:  122    1:   60
           6      27:  120    1:   23    1:   60
Setting up quadratic distribution...
ExtMesh (bp) on 0 =   208 x   189 x   172 =     6761664
PhiOnMesh: Number of (b)points on node 0 =               489600
PhiOnMesh: nlist on node 0 =              2193539

stepf: Fermi-Dirac step function

siesta: Program's energy decomposition (eV):
siesta: Ebs     =      -618.663344
siesta: Eions   =      3585.165840
siesta: Ena     =       381.817525
siesta: Ekin    =      3365.572755
siesta: Enl     =     -3294.298516
siesta: Eso     =        -0.003416
siesta: Edftu   =         0.000000
siesta: DEna    =       153.143931
siesta: DUscf   =        80.359151
siesta: DUext   =         0.000000
siesta: Exc     =     -1203.217433
siesta: eta*DQ  =         0.000000
siesta: Emadel  =         0.000000
siesta: Emeta   =         0.000000
siesta: Emolmec =         0.000000
siesta: Ekinion =         0.000000
siesta: Eharris =     -4024.777142
siesta: Etot    =     -4101.791843
siesta: FreeEng =     -4101.792865

        iscf     Eharris(eV)        E_KS(eV)     FreeEng(eV)     dDmax    Ef(eV) dHmax(eV)
   scf:    1    -4024.777142    -4101.791843    -4101.792865  0.964633 -4.904039 21.598748
     spin moment: S , {S} =    2.00574   0.00000  -0.00000   2.00574
timer: Routine,Calls,Time,% = IterSCF        1       6.376  24.52
   scf:    2    -4148.441157    -4136.939205    -4136.941147  0.456068 -4.205100 11.282969
     spin moment: S , {S} =    1.98927  -0.00000  -0.00000   1.98927
   scf:    3    -4110.281371    -4134.539404    -4134.546372  0.426635 -4.312829 11.487458
     spin moment: S , {S} =    2.00112  -0.00000   0.00000   2.00112
   scf:    4    -4149.948343    -4145.403946    -4145.403947  0.325375 -3.900566  6.287295
     spin moment: S , {S} =    0.00009  -0.00000  -0.00000   0.00009
   scf:    5    -4146.562074    -4146.076166    -4146.076166  0.034334 -3.710046  4.340907
     spin moment: S , {S} =    0.00006  -0.00000   0.00000   0.00006
   scf:    6    -4146.832718    -4146.461348    -4146.461348  0.024638 -3.731265  2.131682
     spin moment: S , {S} =    0.00003   0.00000   0.00000   0.00003
   scf:    7    -4146.807359    -4146.630984    -4146.630984  0.021434 -3.569506  0.888263
     spin moment: S , {S} =    0.00001   0.00000   0.00000   0.00001
   scf:    8    -4146.751323    -4146.689178    -4146.689178  0.012638 -3.797927  0.484990
     spin moment: S , {S} =    0.00000   0.00000   0.00000   0.00000
   scf:    9    -4146.727685    -4146.707772    -4146.707772  0.006627 -3.800062  0.352711
     spin moment: S , {S} =    0.00000   0.00000   0.00000   0.00000
   scf:   10    -4146.758737    -4146.728015    -4146.728015  0.020058 -3.786185  0.195876
     spin moment: S , {S} =    0.00000   0.00000  -0.00000  -0.00000
   scf:   11    -4146.731076    -4146.729500    -4146.729500  0.005304 -3.776851  0.057379
     spin moment: S , {S} =    0.00000   0.00000  -0.00000  -0.00000
   scf:   12    -4146.730347    -4146.729936    -4146.729936  0.001219 -3.772044  0.023688
     spin moment: S , {S} =    0.00000  -0.00000  -0.00000   0.00000
   scf:   13    -4146.730316    -4146.730121    -4146.730121  0.001374 -3.770487  0.017443
     spin moment: S , {S} =    0.00000  -0.00000  -0.00000   0.00000
   scf:   14    -4146.730368    -4146.730237    -4146.730237  0.001394 -3.769499  0.013588
     spin moment: S , {S} =    0.00000  -0.00000  -0.00000   0.00000
   scf:   15    -4146.730380    -4146.730302    -4146.730302  0.001270 -3.769781  0.009738
     spin moment: S , {S} =    0.00000  -0.00000  -0.00000   0.00000
   scf:   16    -4146.730400    -4146.730343    -4146.730343  0.001338 -3.769842  0.005785
     spin moment: S , {S} =    0.00000  -0.00000  -0.00000   0.00000
   scf:   17    -4146.730371    -4146.730355    -4146.730355  0.000716 -3.769766  0.003708
     spin moment: S , {S} =    0.00000  -0.00000  -0.00000   0.00000
   scf:   18    -4146.730365    -4146.730359    -4146.730359  0.000440 -3.769810  0.001840
     spin moment: S , {S} =    0.00000  -0.00000  -0.00000   0.00000
   scf:   19    -4146.730362    -4146.730360    -4146.730360  0.000247 -3.769850  0.000879
     spin moment: S , {S} =    0.00000  -0.00000  -0.00000   0.00000
   scf:   20    -4146.730361    -4146.730361    -4146.730361  0.000099 -3.769856  0.000571
     spin moment: S , {S} =    0.00000  -0.00000  -0.00000   0.00000
   scf:   21    -4146.730361    -4146.730361    -4146.730361  0.000095 -3.769861  0.000257
     spin moment: S , {S} =    0.00000  -0.00000  -0.00000   0.00000
   scf:   22    -4146.730361    -4146.730361    -4146.730361  0.000028 -3.769848  0.000096
     spin moment: S , {S} =    0.00000  -0.00000  -0.00000   0.00000
   scf:   23    -4146.730361    -4146.730361    -4146.730361  0.000007 -3.769849  0.000065
     spin moment: S , {S} =    0.00000  -0.00000  -0.00000   0.00000
   scf:   24    -4146.730361    -4146.730361    -4146.730361  0.000003 -3.769851  0.000057
     spin moment: S , {S} =    0.00000  -0.00000  -0.00000   0.00000
mix: Pulay -- resetting history
   scf:   25    -4146.730361    -4146.730361    -4146.730361  0.000004 -3.769853  0.000036
     spin moment: S , {S} =    0.00000  -0.00000  -0.00000  -0.00000
   scf:   26    -4146.730361    -4146.730361    -4146.730361  0.000003 -3.769853  0.000021
     spin moment: S , {S} =    0.00000  -0.00000  -0.00000  -0.00000
   scf:   27    -4146.730361    -4146.730361    -4146.730361  0.000004 -3.769852  0.000006
     spin moment: S , {S} =    0.00000  -0.00000  -0.00000  -0.00000
   scf:   28    -4146.730361    -4146.730361    -4146.730361  0.000001 -3.769851  0.000003
     spin moment: S , {S} =    0.00000  -0.00000  -0.00000  -0.00000
   scf:   29    -4146.730361    -4146.730361    -4146.730361  0.000000 -3.769851  0.000002
     spin moment: S , {S} =    0.00000  -0.00000  -0.00000  -0.00000
   scf:   30    -4146.730361    -4146.730361    -4146.730361  0.000000 -3.769851  0.000001
     spin moment: S , {S} =    0.00000  -0.00000  -0.00000  -0.00000
   scf:   31    -4146.730361    -4146.730361    -4146.730361  0.000000 -3.769851  0.000001
     spin moment: S , {S} =    0.00000  -0.00000  -0.00000  -0.00000

SCF Convergence by DM+H criterion
max |DM_out - DM_in|         :     0.0000001388
max |H_out - H_in|      (eV) :     0.0000007119
SCF cycle converged after 31 iterations

Using DM_out to compute the final energy and forces
No. of atoms with KB's overlaping orbs in proc 0. Max # of overlaps:      28     170

siesta: E_KS(eV) =            -4146.7304

siesta: E_KS - E_eggbox =     -4146.7304
     spin moment: S , {S} =    0.00000  -0.00000  -0.00000  -0.00000

siesta: Atomic forces (eV/Ang):
     1   -0.015484    0.026304   -0.000000
     2   -0.396621    0.226450   -0.000000
     3    0.339300   -0.026397    0.000000
     4   -0.097526    0.127768   -0.000000
     5   -0.171365   -0.178497    0.000000
     6    0.011340    0.076728    0.000000
     7    1.001448    0.812726   -0.000000
     8    0.833331   -2.138989    0.000000
     9   -1.187099    1.566981   -0.000000
    10    0.126992   -0.294741   -0.000000
    11   -0.780615   -0.263926    0.000000
    12    0.937456   -0.212461    0.000000
    13   -1.925158    2.782924   -0.000000
    14    0.016393   -0.002253    0.000000
    15    0.088903    0.026195   -0.000000
    16    0.019190   -0.009227    0.000000
    17   -0.020666    0.000769    0.000000
    18   -0.012391    0.035224    0.000000
    19    0.216722    0.025297   -0.000000
    20   -1.134481   -0.113456    0.000000
    21   -1.614659    3.257987   -0.000000
    22    0.250941    0.642114    0.000000
    23    0.281760   -0.447616   -0.000000
    24   -0.287909   -0.733227   -0.000000
    25   -0.499469    1.432773    0.000000
    26    0.716716   -1.020814   -0.000000
    27   -0.070696    0.150108    0.000000
    28    0.025309    0.594088    0.000000
    29   -0.247420   -0.324900   -0.000000
----------------------------------------
   Tot   -3.595758    6.017932    0.000000
----------------------------------------
   Max    3.257987
   Res    0.717073    sqrt( Sum f_i^2 / 3N )
----------------------------------------
   Max    3.257987    constrained

Stress tensor Voigt[x,y,z,yz,xz,xy] (kbar):        1.53        1.00       -0.08        0.00       -0.00       -1.43
(Free)E + p*V (eV/cell)    -4149.1872
Target enthalpy (eV/cell)    -4146.7304

siesta: Eigenvalues (eV):
ik =     1
  -21.9931  -21.9931  -21.7372  -21.7372  -21.5454  -21.5454  -21.4381  -21.4381  -21.2161  -21.2161
  -21.1437  -21.1437  -20.7329  -20.7329  -19.7451  -19.7451  -19.4431  -19.4431  -19.3533  -19.3533
  -14.7739  -14.7739  -13.8497  -13.8497  -13.3177  -13.3177  -13.0751  -13.0751  -13.0345  -13.0345
  -12.8430  -12.8430  -12.7010  -12.7010  -12.3417  -12.3417  -12.3224  -12.3224  -12.0351  -12.0351
  -11.3153  -11.3153  -10.8269  -10.8269  -10.7225  -10.7225  -10.6642  -10.6642  -10.1227  -10.1227
   -9.5930   -9.5930   -9.2102   -9.2102   -8.8393   -8.8393   -8.7181   -8.7181   -8.6755   -8.6755
   -8.5505   -8.5505   -8.4589   -8.4589   -8.1344   -8.1344   -7.8120   -7.8120   -7.7868   -7.7868
   -7.6280   -7.6280   -7.3299   -7.3299   -7.2297   -7.2297   -6.8234   -6.8234   -6.7849   -6.7849
   -6.5793   -6.5793   -6.4896   -6.4896   -6.1953   -6.1953   -6.1447   -6.1447   -6.1163   -6.1163
   -5.9895   -5.9895   -5.7112   -5.7112   -5.5171   -5.5171   -4.2955   -4.2955   -3.2438   -3.2438
   -2.3145   -2.3145   -2.3127   -2.3127   -2.2603   -2.2603   -1.8819   -1.8819   -1.8338   -1.8338
   -1.8283   -1.8283   -1.8200   -1.8200   -1.6071   -1.6071   -1.4674   -1.4674   -1.0537   -1.0537
   -0.9217   -0.9217   -0.7518   -0.7518   -0.3830   -0.3830   -0.2448   -0.2448    0.1238    0.1238
    0.4314    0.4314    0.5039    0.5039    0.5894    0.5894    0.7455    0.7455    0.8979    0.8979
    1.0918    1.0918    1.2567    1.2567    1.3619    1.3619    1.4166    1.4166    1.4888    1.4888
    1.7667    1.7667    1.8933    1.8933    2.0572    2.0572    2.3654    2.3654    2.7416    2.7416
    2.7452    2.7452    2.8133    2.8133    2.9159    2.9159    3.2555    3.2555    3.4175    3.4175
    3.4924    3.4924    3.8094    3.8094    3.8967    3.8967    4.0816    4.0816    4.3747    4.3747
    4.4285    4.4285    4.4934    4.4934    4.5647    4.5647    4.6393    4.6393    4.8250    4.8250
    4.9054    4.9054    5.0492    5.0492    5.2652    5.2653    5.5319    5.5319    5.6433    5.6433
    5.8026    5.8026    5.8626    5.8626    5.9760    5.9760    6.0642    6.0642    6.1935    6.1935
    6.3493    6.3493    6.3840    6.3840    6.5750    6.5750    6.7194    6.7194    6.8635    6.8635
    7.0194    7.0194    7.1962    7.1962    7.4716    7.4716    7.6079    7.6079    7.7990    7.7990
    7.9048    7.9048    8.0112    8.0112    8.0717    8.0717    8.3093    8.3093    8.4790    8.4790
    8.5991    8.5991    8.7618    8.7618    8.9088    8.9088    8.9221    8.9221    9.2203    9.2203
    9.2253    9.2253    9.4006    9.4006    9.8298    9.8298    9.8673    9.8673    9.8908    9.8908
   10.1376   10.1376   10.1969   10.1969   10.4747   10.4747   10.8502   10.8502   11.0237   11.0237
   11.0306   11.0306   11.1596   11.1596   11.2989   11.2989   11.7586   11.7586   11.7967   11.7967
   11.8890   11.8890   12.0107   12.0107   12.3673   12.3673   12.4530   12.4530   12.6738   12.6738
   12.7376   12.7376   12.8277   12.8277   13.3857   13.3857   13.4700   13.4700   13.7655   13.7655
   13.7740   13.7740   14.1184   14.1184   14.3704   14.3704   14.7525   14.7525   14.7723   14.7723
   15.0305   15.0305   15.3354   15.3354   16.0171   16.0171   16.5282   16.5282   16.7003   16.7003
   16.9411   16.9411   17.4190   17.4190   17.5464   17.5464   18.3466   18.3466   18.5949   18.5949
   18.6867   18.6867   19.1725   19.1725   19.5159   19.5159   19.9248   19.9248   20.2677   20.2677
   21.0654   21.0654   21.3609   21.3609   21.9937   21.9937   22.1372   22.1372   22.5213   22.5213
   22.8976   22.8976   23.5129   23.5129   23.7721   23.7721   23.8748   23.8748   24.0723   24.0723
   25.0094   25.0094   25.3773   25.3773   26.1366   26.1366   26.8285   26.8285   27.6818   27.6818
   28.7125   28.7125   29.0140   29.0140   29.0525   29.0525   29.5296   29.5296   29.9320   29.9320
   30.1379   30.1379   30.2821   30.2821   30.6298   30.6298   30.9629   30.9629   30.9837   30.9837
   31.1009   31.1009   31.4596   31.4596   31.7280   31.7280   32.1245   32.1245   32.3238   32.3238
   33.4995   33.4995   34.0279   34.0279   34.4586   34.4586   34.5526   34.5526   34.7520   34.7520
   34.9160   34.9160   35.1703   35.1703   35.5272   35.5272   35.5976   35.5976   35.8791   35.8791
   36.9634   36.9634   37.4804   37.4804   37.5491   37.5491   37.6046   37.6046   38.1513   38.1513
   38.4220   38.4220   39.0958   39.0958   39.3364   39.3364   39.5925   39.5925   40.2979   40.2979
   40.4818   40.4818   40.5280   40.5280   40.7865   40.7865   40.8392   40.8392   41.3100   41.3101
   42.0846   42.0846   42.6796   42.6796   42.8869   42.8869   43.1890   43.1890   43.4746   43.4746
   43.6653   43.6653   44.2165   44.2165   44.3333   44.3333   44.4278   44.4278   44.6685   44.6685
   44.6767   44.6767   45.2555   45.2555   45.3023   45.3023   46.0508   46.0508   46.2803   46.2803
   46.8875   46.8875   47.3828   47.3828   47.4572   47.4572   48.8185   48.8185   49.5592   49.5592
   49.8726   49.8726   50.3220   50.3220   50.5264   50.5264   50.9532   50.9532   51.2217   51.2217
   51.4249   51.4249   52.3369   52.3369   52.9167   52.9167   53.6032   53.6032   54.3870   54.3870
   54.6084   54.6084   54.9099   54.9099   55.5354   55.5354   55.7637   55.7637   56.3588   56.3588
   56.4728   56.4728   56.7967   56.7967   56.8339   56.8339   58.6138   58.6138   59.4930   59.4930
   59.8035   59.8035   60.4840   60.4840   60.5811   60.5811   61.2359   61.2359   61.8690   61.8690
   62.2195   62.2195   62.3747   62.3747   62.9168   62.9168   64.8145   64.8145   66.6551   66.6551
   66.9433   66.9433   67.4408   67.4408   68.1529   68.1529   69.1819   69.1819   70.8947   70.8947
   73.9886   73.9886   82.2031   82.2031   91.4389   91.4389   92.1244   92.1244   93.4002   93.4002
   98.4899   98.4899   99.3075   99.3075  100.4618  100.4618  103.3606  103.3606  104.1744  104.1744
  110.6343  110.6343  112.8180  112.8180  124.1837  124.1837  126.4484  126.4484  130.2174  130.2174
  135.7620  135.7620  138.7502  138.7502
siesta: Fermi energy =      -3.769851 eV

siesta: Program's energy decomposition (eV):
siesta: Ebs     =     -1133.813880
siesta: Eions   =      3585.165840
siesta: Ena     =       381.817525
siesta: Ekin    =      2902.510481
siesta: Enl     =     -2787.541282
siesta: Eso     =        -0.004274
siesta: Edftu   =         0.000000
siesta: DEna    =        47.087933
siesta: DUscf   =        14.177393
siesta: DUext   =         0.000000
siesta: Exc     =     -1119.612296
siesta: eta*DQ  =         0.000000
siesta: Emadel  =         0.000000
siesta: Emeta   =         0.000000
siesta: Emolmec =         0.000000
siesta: Ekinion =         0.000000
siesta: Eharris =     -4146.730361
siesta: Etot    =     -4146.730361
siesta: FreeEng =     -4146.730361

siesta: Final energy (eV):
siesta:  Band Struct. =   -1133.813880
siesta:       Kinetic =    2902.510481
siesta:       Hartree =    8419.708412
siesta:       Edftu   =       0.000000
siesta:       Eso     =      -0.004274
siesta:    Ext. field =       0.000000
siesta:   Exch.-corr. =   -1119.612296
siesta:  Ion-electron =  -19422.363262
siesta:       Ion-ion =    5073.030579
siesta:       Ekinion =       0.000000
siesta:         Total =   -4146.730361
siesta:         Fermi =      -3.769851

siesta: Atomic forces (eV/Ang):
siesta:      1   -0.015484    0.026304   -0.000000
siesta:      2   -0.396621    0.226450   -0.000000
siesta:      3    0.339300   -0.026397    0.000000
siesta:      4   -0.097526    0.127768   -0.000000
siesta:      5   -0.171365   -0.178497    0.000000
siesta:      6    0.011340    0.076728    0.000000
siesta:      7    1.001448    0.812726   -0.000000
siesta:      8    0.833331   -2.138989    0.000000
siesta:      9   -1.187099    1.566981   -0.000000
siesta:     10    0.126992   -0.294741   -0.000000
siesta:     11   -0.780615   -0.263926    0.000000
siesta:     12    0.937456   -0.212461    0.000000
siesta:     13   -1.925158    2.782924   -0.000000
siesta:     14    0.016393   -0.002253    0.000000
siesta:     15    0.088903    0.026195   -0.000000
siesta:     16    0.019190   -0.009227    0.000000
siesta:     17   -0.020666    0.000769    0.000000
siesta:     18   -0.012391    0.035224    0.000000
siesta:     19    0.216722    0.025297   -0.000000
siesta:     20   -1.134481   -0.113456    0.000000
siesta:     21   -1.614659    3.257987   -0.000000
siesta:     22    0.250941    0.642114    0.000000
siesta:     23    0.281760   -0.447616   -0.000000
siesta:     24   -0.287909   -0.733227   -0.000000
siesta:     25   -0.499469    1.432773    0.000000
siesta:     26    0.716716   -1.020814   -0.000000
siesta:     27   -0.070696    0.150108    0.000000
siesta:     28    0.025309    0.594088    0.000000
siesta:     29   -0.247420   -0.324900   -0.000000
siesta: ----------------------------------------
siesta:    Tot   -3.595758    6.017932    0.000000

siesta: Stress tensor (static) (eV/Ang**3):
siesta:     0.000955   -0.000894   -0.000000
siesta:    -0.000894    0.000623    0.000000
siesta:    -0.000000    0.000000   -0.000052

siesta: Cell volume =       4833.114120 Ang**3

siesta: Pressure (static):
siesta:                Solid            Molecule  Units
siesta:          -0.00000554         -0.00000634  Ry/Bohr**3
siesta:          -0.00050833         -0.00058221  eV/Ang**3
siesta:          -0.81444877         -0.93281069  kBar
(Free)E+ p_basis*V_orbitals  =       -4126.879943
(Free)Eharris+ p_basis*V_orbitals  =       -4126.879943
     spin moment: S , {S} =    0.00000  -0.00000  -0.00000  -0.00000

siesta: Electric dipole (a.u.)  =   -0.036922    1.595353    0.000000
siesta: Electric dipole (Debye) =   -0.093847    4.054986    0.000000

cite: Please see "GC.bib" for an exhaustive BiBTeX file.
cite: Please clearly indicate Siesta version in published work: v4.1.5-1-g384057250
cite: This calculation has made use of the following articles
cite: which are encouraged to be cited in a published work.
        Primary SIESTA paper
          DOI: www.doi.org/10.1088/0953-8984/14/11/302
        Spin-orbit coupling (on-site approximation)
          DOI: www.doi.org/10.1088/0953-8984/19/19/489001


WARNING: alloc-realloc-dealloc name mismatch
         Name: atomlist isa
         Size:              -116. Bytes
         Node:     0
         Subsequent mismatches will not be reported
>> End of run:  16-OCT-2023  18:38:54
Job completed
