Siesta Version  : v4.1.5-1-g384057250
Architecture    : gcc
Compiler version: GNU Fortran (Ubuntu 11.4.0-1ubuntu1~22.04) 11.4.0
Compiler flags  : mpifort -O2 -fPIC -ftree-vectorize -fallow-argument-mismatch
PP flags        : -DFC_HAVE_ABORT -DMPI -DSIESTA__FLOOK -DSIESTA__METIS -DSIESTA__MUMPS -DCDF -DNCDF -DNCDF_4 -DNCDF_PARALLEL -DSIESTA__MRRR -DSIESTA__ELPA
Libraries       : libncdf.a libfdict.a  -lflookall -ldl -lnetcdff -lnetcdf -lhdf5_hl -lhdf5 -lhdf5_fortran -lz -lscalapack-openmpi -lopenblas -lmetis -lzmumps -lcmumps -ldmumps -lmumps_common -lpord -lsmumps -lesmumps -lscotch -lscotcherr -fopenmp -lelpa
PARALLEL version
NetCDF support
NetCDF-4 support
NetCDF-4 MPI-IO support
METIS ordering support
Lua support

* Running on 8 nodes in parallel
>> Start of run:   1-FEB-2024  22:57:18

                           ***********************       
                           *  WELCOME TO SIESTA  *       
                           ***********************       

reinit: Reading from standard input
reinit: Dumped input in INPUT_TMP.08659
************************** Dump of input data file ****************************
# mpirun -np 4 siesta-4.1.5 < GC.fdf > GC.out &
SystemLabel      GC
NumberOfAtoms    29
NumberOfSpecies  4
%block ChemicalSpeciesLabel
    1    1  H
    2    7  N
    3   14  Si
    4    8  O
%endblock ChemicalSpeciesLabel
############################################
# This overrides Defaults.fdf configuration
############################################
MD.TypeOfRun                Verlet # CG, Verlet
MD.Steps                    0
MaxSCFIterations            200
SCF.MustConverge            F
AtomicCoordinatesFormat NotScaledCartesianAng
%block AtomicCoordinatesAndAtomicSpecies
    -7.606248756122522 16.457372451317294 0.0  1  1  H
    -8.312735486122522 15.667336271317293 0.0  2  2  N
    -10.043022396122522 16.108700181317293 0.0  3  3  Si
    -10.198802076122522 17.598692441317294 0.0  1  4  H
    -11.566344016122523 14.549792661317294 0.0  3  5  Si
    -13.049531646122523 14.792623021317294 0.0  1  6  H
    -10.367953156122523 12.636516501317294 0.0  3  7  Si
    -11.133978616122523 11.103799761317294 0.0  2  8  N
    -10.543732066122523 10.146586731317294 0.0  1  9  H
    -12.185600936122523 11.023339531317294 0.0  1  10  H
    -8.651753096122523 12.691690811317294 0.0  2  11  N
    -7.576730476122522 14.022029651317293 0.0  3  12  Si
    -5.968057156122523 14.003219391317293 0.0  4  13  O
    5.6164483 -7.44953905 0.0  1  14  H
    4.58206954 -7.2320376 0.0  2  15  N
    3.29666389 -8.492636 0.0  3  16  Si
    3.80117524 -9.90371886 -0.0  1  17  H
    1.65934232 -8.01362137 0.0  2  18  N
    1.68097912 -6.20463398 -0.0  3  19  Si
    0.54543521 -4.28636135 0.0  3  20  Si
    -1.03431493 -3.94450034 0.0  4  21  O
    1.73226934 -2.87719605 0.0  2  22  N
    1.20957366 -1.92961761 -0.0  1  23  H
    3.50853448 -2.77677601 0.0  3  24  Si
    4.13684451 -1.17938608 0.0  2  25  N
    3.54296161 -0.26248101 0.0  1  26  H
    5.18364407 -1.05231197 -0.0  1  27  H
    4.63288658 -4.07521596 -0.0  2  28  N
    3.79410501 -5.58634043 0.0  3  29  Si
%endblock AtomicCoordinatesAndAtomicSpecies
#############
# Unit Cell
#############
LatticeConstant 1.0 Ang
%block LatticeVectors
    30.00000    0.000000    0.000000
    0.000000    45.00000    0.000000
    0.000000    0.000000    10.00000
%endblock LatticeVectors
%include ../../../../Defaults.fdf
************************** End of input data file *****************************

reinit: -----------------------------------------------------------------------
reinit: System Name: 
reinit: -----------------------------------------------------------------------
reinit: System Label: GC
reinit: -----------------------------------------------------------------------

initatom: Reading input for the pseudopotentials and atomic orbitals ----------
Species number:   1 Atomic number:    1 Label: H
Species number:   2 Atomic number:    7 Label: N
Species number:   3 Atomic number:   14 Label: Si
Species number:   4 Atomic number:    8 Label: O

Ground state valence configuration:   1s01
Reading pseudopotential information in formatted form from H.psf

Pseudopotential generated from a relativistic atomic calculation

Valence configuration for pseudopotential generation:
1s( 1.00) rc: 0.01
2p( 0.00) rc: 0.60
3d( 0.00) rc: 1.99
4f( 0.00) rc: 2.49
Ground state valence configuration:   2s02  2p03
Reading pseudopotential information in formatted form from N.psf

Pseudopotential generated from a relativistic atomic calculation

Valence configuration for pseudopotential generation:
2s( 2.00) rc: 0.94
2p( 3.00) rc: 0.59
3d( 0.00) rc: 3.46
4f( 0.00) rc: 2.47
Ground state valence configuration:   3s02  3p02
Reading pseudopotential information in formatted form from Si.psf

Pseudopotential generated from a relativistic atomic calculation

Valence configuration for pseudopotential generation:
3s( 2.00) rc: 1.67
3p( 2.00) rc: 2.04
3d( 0.00) rc: 2.89
4f( 0.00) rc: 2.49
Ground state valence configuration:   2s02  2p04
Reading pseudopotential information in formatted form from O.psf

Pseudopotential generated from a relativistic atomic calculation

Valence configuration for pseudopotential generation:
2s( 2.00) rc: 0.45
2p( 4.00) rc: 0.92
3d( 0.00) rc: 2.24
4f( 0.00) rc: 0.25
For H, standard SIESTA heuristics set lmxkb to 2
 (one more than the basis l, including polarization orbitals).
Use PS.lmax or PS.KBprojectors blocks to override.
For N, standard SIESTA heuristics set lmxkb to 3
 (one more than the basis l, including polarization orbitals).
Use PS.lmax or PS.KBprojectors blocks to override.
For Si, standard SIESTA heuristics set lmxkb to 3
 (one more than the basis l, including polarization orbitals).
Use PS.lmax or PS.KBprojectors blocks to override.
For O, standard SIESTA heuristics set lmxkb to 3
 (one more than the basis l, including polarization orbitals).
Use PS.lmax or PS.KBprojectors blocks to override.

<basis_specs>
===============================================================================
H                    Z=   1    Mass=  1.0100        Charge= 0.17977+309
Lmxo=0 Lmxkb= 2    BasisType=split      Semic=F
L=0  Nsemic=0  Cnfigmx=1
          i=1  nzeta=2  polorb=1  (1s)
            splnorm:   0.62000    
               vcte:    0.0000    
               rinn:    0.0000    
               qcoe:    0.0000    
               qyuk:    0.0000    
               qwid:   0.10000E-01
                rcs:    0.0000      0.0000    
            lambdas:    1.0000      1.0000    
-------------------------------------------------------------------------------
L=0  Nkbl=1  erefs: 0.17977+309
L=1  Nkbl=1  erefs: 0.17977+309
L=2  Nkbl=1  erefs: 0.17977+309
===============================================================================
</basis_specs>

atom: Called for H                     (Z =   1)

read_vps: Pseudopotential generation method:
read_vps: ATM4.2.7  Troullier-Martins                       
Valence charge for ps generation:    1.00000

xc_check: Exchange-correlation functional:
xc_check: GGA Perdew, Burke & Ernzerhof 1996
V l=0 = -2*Zval/r beyond r=  0.0098
V l=1 = -2*Zval/r beyond r=  0.5817
V l=2 = -2*Zval/r beyond r=  1.9372
All V_l potentials equal beyond r=  1.9372
This should be close to max(r_c) in ps generation
All pots = -2*Zval/r beyond r=  1.9372

VLOCAL1: 99.0% of the norm of Vloc inside     11.567 Ry
VLOCAL1: 99.9% of the norm of Vloc inside     26.362 Ry
atom: Maximum radius for 4*pi*r*r*local-pseudopot. charge    2.25106
atom: Maximum radius for r*vlocal+2*Zval:    1.91306
GHOST: No ghost state for L =  0
GHOST: No ghost state for L =  1
GHOST: No ghost state for L =  2

KBgen: Kleinman-Bylander projectors: 
   l= 0   rc=  2.036604   el= -0.477180   Ekb= -6.081590   kbcos= -0.277285
   l= 1   rc=  2.195416   el=  0.001076   Ekb= -0.926943   kbcos= -0.034643
   l= 2   rc=  2.251056   el=  0.002010   Ekb= -0.130941   kbcos= -0.009788

KBgen: Total number of Kleinman-Bylander projectors:    9
atom: -------------------------------------------------------------------------

atom: SANKEY-TYPE ORBITALS:
atom: Selected multiple-zeta basis: split     

SPLIT: Orbitals with angular momentum L= 0

SPLIT: Basis orbitals for state 1s

SPLIT: PAO cut-off radius determined from an
SPLIT: energy shift=  0.002000 Ry

   izeta = 1
                 lambda =    1.000000
                     rc =    6.518340
                 energy =   -0.475305
                kinetic =    0.912139
    potential(screened) =   -1.387444
       potential(ionic) =   -1.907295

   izeta = 2
                 rmatch =    2.141150
              splitnorm =    0.620000
                 energy =    0.566467
                kinetic =    3.772856
    potential(screened) =   -3.206389
       potential(ionic) =   -3.759093

POLgen: Perturbative polarization orbital with L=  1

POLgen: Polarization orbital for state 1s

   izeta = 1
                     rc =    6.518340
                 energy =    0.533861
                kinetic =    1.121086
    potential(screened) =   -0.587225
       potential(ionic) =   -1.053027
atom: Total number of Sankey-type orbitals:  5

atm_pop: Valence configuration (for local Pseudopot. screening):
 1s( 1.00)                                                            
Vna: chval, zval:    1.00000   1.00000

Vna:  Cut-off radius for the neutral-atom potential:   6.518340

atom: _________________________________________________________________________

<basis_specs>
===============================================================================
N                    Z=   7    Mass=  14.010        Charge= 0.17977+309
Lmxo=1 Lmxkb= 3    BasisType=split      Semic=F
L=0  Nsemic=0  Cnfigmx=2
          i=1  nzeta=2  polorb=0  (2s)
            splnorm:   0.28000    
               vcte:    0.0000    
               rinn:    0.0000    
               qcoe:    0.0000    
               qyuk:    0.0000    
               qwid:   0.10000E-01
                rcs:    0.0000      0.0000    
            lambdas:    1.0000      1.0000    
L=1  Nsemic=0  Cnfigmx=2
          i=1  nzeta=2  polorb=1  (2p)
            splnorm:   0.28000    
               vcte:    0.0000    
               rinn:    0.0000    
               qcoe:    0.0000    
               qyuk:    0.0000    
               qwid:   0.10000E-01
                rcs:    0.0000      0.0000    
            lambdas:    1.0000      1.0000    
-------------------------------------------------------------------------------
L=0  Nkbl=1  erefs: 0.17977+309
L=1  Nkbl=1  erefs: 0.17977+309
L=2  Nkbl=1  erefs: 0.17977+309
L=3  Nkbl=1  erefs: 0.17977+309
===============================================================================
</basis_specs>

atom: Called for N                     (Z =   7)

read_vps: Pseudopotential generation method:
read_vps: ATM4.2.7  Troullier-Martins                       
Valence charge for ps generation:    5.00000

xc_check: Exchange-correlation functional:
xc_check: GGA Perdew, Burke & Ernzerhof 1996
V l=0 = -2*Zval/r beyond r=  1.2889
V l=1 = -2*Zval/r beyond r=  1.2889
V l=2 = -2*Zval/r beyond r=  3.4178
V l=3 = -2*Zval/r beyond r=  2.4084
All V_l potentials equal beyond r=  3.3753
This should be close to max(r_c) in ps generation
All pots = -2*Zval/r beyond r=  3.4178

VLOCAL1: 99.0% of the norm of Vloc inside      3.810 Ry
VLOCAL1: 99.9% of the norm of Vloc inside      8.683 Ry
atom: Maximum radius for 4*pi*r*r*local-pseudopot. charge    4.02088
atom: Maximum radius for r*vlocal+2*Zval:    3.54838
GHOST: No ghost state for L =  0
GHOST: No ghost state for L =  1
GHOST: No ghost state for L =  2
GHOST: No ghost state for L =  3

KBgen: Kleinman-Bylander projectors: 
   l= 0   rc=  3.417763   el= -1.365098   Ekb= -4.433130   kbcos= -0.707855
   l= 1   rc=  3.375302   el= -0.521201   Ekb=-13.264039   kbcos= -0.535594
   l= 2   rc=  3.872880   el=  0.001991   Ekb= -0.641094   kbcos= -0.062456
   l= 3   rc=  3.970931   el=  0.003093   Ekb= -0.474517   kbcos= -0.018236

KBgen: Total number of Kleinman-Bylander projectors:   16
atom: -------------------------------------------------------------------------

atom: SANKEY-TYPE ORBITALS:
atom: Selected multiple-zeta basis: split     

SPLIT: Orbitals with angular momentum L= 0

SPLIT: Basis orbitals for state 2s

SPLIT: PAO cut-off radius determined from an
SPLIT: energy shift=  0.002000 Ry

   izeta = 1
                 lambda =    1.000000
                     rc =    4.730425
                 energy =   -1.363399
                kinetic =    1.245246
    potential(screened) =   -2.608645
       potential(ionic) =   -8.121105

   izeta = 2
                 rmatch =    2.531849
              splitnorm =    0.280000
                 energy =   -0.959908
                kinetic =    2.409435
    potential(screened) =   -3.369343
       potential(ionic) =   -9.427975

SPLIT: Orbitals with angular momentum L= 1

SPLIT: Basis orbitals for state 2p

SPLIT: PAO cut-off radius determined from an
SPLIT: energy shift=  0.002000 Ry

   izeta = 1
                 lambda =    1.000000
                     rc =    5.924108
                 energy =   -0.519262
                kinetic =    3.672940
    potential(screened) =   -4.192202
       potential(ionic) =   -9.518354

   izeta = 2
                 rmatch =    2.531849
              splitnorm =    0.280000
                 energy =   -0.104258
                kinetic =    6.807538
    potential(screened) =   -6.911796
       potential(ionic) =  -13.149920

POLgen: Perturbative polarization orbital with L=  2

POLgen: Polarization orbital for state 2p

   izeta = 1
                     rc =    5.924108
                 energy =    1.427508
                kinetic =    2.872379
    potential(screened) =   -1.444871
       potential(ionic) =   -5.563644
atom: Total number of Sankey-type orbitals: 13

atm_pop: Valence configuration (for local Pseudopot. screening):
 2s( 2.00)                                                            
 2p( 3.00)                                                            
Vna: chval, zval:    5.00000   5.00000

Vna:  Cut-off radius for the neutral-atom potential:   5.924108

atom: _________________________________________________________________________

<basis_specs>
===============================================================================
Si                   Z=  14    Mass=  28.090        Charge= 0.17977+309
Lmxo=1 Lmxkb= 3    BasisType=split      Semic=F
L=0  Nsemic=0  Cnfigmx=3
          i=1  nzeta=2  polorb=0  (3s)
            splnorm:   0.28000    
               vcte:    0.0000    
               rinn:    0.0000    
               qcoe:    0.0000    
               qyuk:    0.0000    
               qwid:   0.10000E-01
                rcs:    0.0000      0.0000    
            lambdas:    1.0000      1.0000    
L=1  Nsemic=0  Cnfigmx=3
          i=1  nzeta=2  polorb=1  (3p)
            splnorm:   0.28000    
               vcte:    0.0000    
               rinn:    0.0000    
               qcoe:    0.0000    
               qyuk:    0.0000    
               qwid:   0.10000E-01
                rcs:    0.0000      0.0000    
            lambdas:    1.0000      1.0000    
-------------------------------------------------------------------------------
L=0  Nkbl=1  erefs: 0.17977+309
L=1  Nkbl=1  erefs: 0.17977+309
L=2  Nkbl=1  erefs: 0.17977+309
L=3  Nkbl=1  erefs: 0.17977+309
===============================================================================
</basis_specs>

atom: Called for Si                    (Z =  14)

read_vps: Pseudopotential generation method:
read_vps: ATM4.2.7  Troullier-Martins                       
Valence charge for ps generation:    4.00000

xc_check: Exchange-correlation functional:
xc_check: GGA Perdew, Burke & Ernzerhof 1996
V l=0 = -2*Zval/r beyond r=  2.7826
V l=1 = -2*Zval/r beyond r=  2.7826
V l=2 = -2*Zval/r beyond r=  2.9253
V l=3 = -2*Zval/r beyond r=  2.7826
All V_l potentials equal beyond r=  2.8530
This should be close to max(r_c) in ps generation
All pots = -2*Zval/r beyond r=  2.9253

VLOCAL1: 99.0% of the norm of Vloc inside      5.333 Ry
VLOCAL1: 99.9% of the norm of Vloc inside     12.154 Ry
atom: Maximum radius for 4*pi*r*r*local-pseudopot. charge    3.39869
atom: Maximum radius for r*vlocal+2*Zval:    2.96205
GHOST: No ghost state for L =  0
GHOST: No ghost state for L =  1
GHOST: No ghost state for L =  2
GHOST: No ghost state for L =  3

KBgen: Kleinman-Bylander projectors: 
   l= 0   rc=  3.075247   el= -0.794092   Ekb=  5.879390   kbcos=  0.167461
   l= 1   rc=  3.153101   el= -0.300068   Ekb=  2.642817   kbcos=  0.058301
   l= 2   rc=  3.273594   el=  0.001958   Ekb= -1.185135   kbcos= -0.104411
   l= 3   rc=  3.232927   el=  0.003046   Ekb= -0.497174   kbcos= -0.015889

KBgen: Total number of Kleinman-Bylander projectors:   16
atom: -------------------------------------------------------------------------

atom: SANKEY-TYPE ORBITALS:
atom: Selected multiple-zeta basis: split     

SPLIT: Orbitals with angular momentum L= 0

SPLIT: Basis orbitals for state 3s

SPLIT: PAO cut-off radius determined from an
SPLIT: energy shift=  0.002000 Ry

   izeta = 1
                 lambda =    1.000000
                     rc =    6.429618
                 energy =   -0.792283
                kinetic =    0.525293
    potential(screened) =   -1.317576
       potential(ionic) =   -3.744923

   izeta = 2
                 rmatch =    3.998416
              splitnorm =    0.280000
                 energy =   -0.583081
                kinetic =    1.069570
    potential(screened) =   -1.652651
       potential(ionic) =   -4.235185

SPLIT: Orbitals with angular momentum L= 1

SPLIT: Basis orbitals for state 3p

SPLIT: PAO cut-off radius determined from an
SPLIT: energy shift=  0.002000 Ry

   izeta = 1
                 lambda =    1.000000
                     rc =    8.464845
                 energy =   -0.298236
                kinetic =    0.785360
    potential(screened) =   -1.083596
       potential(ionic) =   -3.273779

   izeta = 2
                 rmatch =    4.587816
              splitnorm =    0.280000
                 energy =   -0.131871
                kinetic =    1.403687
    potential(screened) =   -1.535557
       potential(ionic) =   -4.015310

POLgen: Perturbative polarization orbital with L=  2

POLgen: Polarization orbital for state 3p

   izeta = 1
                     rc =    8.464845
                 energy =    0.321949
                kinetic =    1.055677
    potential(screened) =   -0.733728
       potential(ionic) =   -2.672950
atom: Total number of Sankey-type orbitals: 13

atm_pop: Valence configuration (for local Pseudopot. screening):
 3s( 2.00)                                                            
 3p( 2.00)                                                            
Vna: chval, zval:    4.00000   4.00000

Vna:  Cut-off radius for the neutral-atom potential:   8.464845

atom: _________________________________________________________________________

<basis_specs>
===============================================================================
O                    Z=   8    Mass=  16.000        Charge= 0.17977+309
Lmxo=1 Lmxkb= 3    BasisType=split      Semic=F
L=0  Nsemic=0  Cnfigmx=2
          i=1  nzeta=2  polorb=0  (2s)
            splnorm:   0.28000    
               vcte:    0.0000    
               rinn:    0.0000    
               qcoe:    0.0000    
               qyuk:    0.0000    
               qwid:   0.10000E-01
                rcs:    0.0000      0.0000    
            lambdas:    1.0000      1.0000    
L=1  Nsemic=0  Cnfigmx=2
          i=1  nzeta=2  polorb=1  (2p)
            splnorm:   0.28000    
               vcte:    0.0000    
               rinn:    0.0000    
               qcoe:    0.0000    
               qyuk:    0.0000    
               qwid:   0.10000E-01
                rcs:    0.0000      0.0000    
            lambdas:    1.0000      1.0000    
-------------------------------------------------------------------------------
L=0  Nkbl=1  erefs: 0.17977+309
L=1  Nkbl=1  erefs: 0.17977+309
L=2  Nkbl=1  erefs: 0.17977+309
L=3  Nkbl=1  erefs: 0.17977+309
===============================================================================
</basis_specs>

atom: Called for O                     (Z =   8)

read_vps: Pseudopotential generation method:
read_vps: ATM4.2.7  Troullier-Martins                       
Valence charge for ps generation:    6.00000

xc_check: Exchange-correlation functional:
xc_check: GGA Perdew, Burke & Ernzerhof 1996
V l=0 = -2*Zval/r beyond r=  1.1000
V l=1 = -2*Zval/r beyond r=  1.1000
V l=2 = -2*Zval/r beyond r=  2.2154
V l=3 = -2*Zval/r beyond r=  1.1000
All V_l potentials equal beyond r=  2.2154
This should be close to max(r_c) in ps generation
All pots = -2*Zval/r beyond r=  2.2154

VLOCAL1: 99.0% of the norm of Vloc inside      8.845 Ry
VLOCAL1: 99.9% of the norm of Vloc inside     20.157 Ry
atom: Maximum radius for 4*pi*r*r*local-pseudopot. charge    2.67231
atom: Maximum radius for r*vlocal+2*Zval:    2.32897
GHOST: No ghost state for L =  0
GHOST: No ghost state for L =  1
GHOST: No ghost state for L =  2
GHOST: No ghost state for L =  3

KBgen: Kleinman-Bylander projectors: 
   l= 0   rc=  2.243238   el= -1.759686   Ekb=**********   kbcos= -0.171774
   l= 1   rc=  2.328968   el= -0.663873   Ekb=-14.506792   kbcos= -0.519897
   l= 2   rc=  2.573941   el=  0.002031   Ekb= -1.137373   kbcos= -0.019581
   l= 3   rc=  2.606321   el=  0.003153   Ekb= -1.013546   kbcos= -0.003122

KBgen: Total number of Kleinman-Bylander projectors:   16
atom: -------------------------------------------------------------------------

atom: SANKEY-TYPE ORBITALS:
atom: Selected multiple-zeta basis: split     

SPLIT: Orbitals with angular momentum L= 0

SPLIT: Basis orbitals for state 2s

SPLIT: PAO cut-off radius determined from an
SPLIT: energy shift=  0.002000 Ry

   izeta = 1
                 lambda =    1.000000
                     rc =    4.243912
                 energy =   -1.758270
                kinetic =    3.286084
    potential(screened) =   -5.044353
       potential(ionic) =  -12.921184

   izeta = 2
                 rmatch =    2.187845
              splitnorm =    0.280000
                 energy =   -0.885018
                kinetic =    8.134434
    potential(screened) =   -9.019452
       potential(ionic) =  -17.710645

SPLIT: Orbitals with angular momentum L= 1

SPLIT: Basis orbitals for state 2p

SPLIT: PAO cut-off radius determined from an
SPLIT: energy shift=  0.002000 Ry

   izeta = 1
                 lambda =    1.000000
                     rc =    5.314825
                 energy =   -0.661986
                kinetic =    4.917472
    potential(screened) =   -5.579458
       potential(ionic) =  -13.236259

   izeta = 2
                 rmatch =    2.160663
              splitnorm =    0.280000
                 energy =   -0.068760
                kinetic =    9.183374
    potential(screened) =   -9.252135
       potential(ionic) =  -18.274251

POLgen: Perturbative polarization orbital with L=  2

POLgen: Polarization orbital for state 2p

   izeta = 1
                     rc =    5.314825
                 energy =    1.970580
                kinetic =    3.886128
    potential(screened) =   -1.915547
       potential(ionic) =   -7.749584
atom: Total number of Sankey-type orbitals: 13

atm_pop: Valence configuration (for local Pseudopot. screening):
 2s( 2.00)                                                            
 2p( 4.00)                                                            
Vna: chval, zval:    6.00000   6.00000

Vna:  Cut-off radius for the neutral-atom potential:   5.314825

atom: _________________________________________________________________________

prinput: Basis input ----------------------------------------------------------

PAO.BasisType split     

%block ChemicalSpeciesLabel
    1    1 H                       # Species index, atomic number, species label
    2    7 N                       # Species index, atomic number, species label
    3   14 Si                      # Species index, atomic number, species label
    4    8 O                       # Species index, atomic number, species label
%endblock ChemicalSpeciesLabel

%block PAO.Basis                 # Define Basis set
H                     1                    # Species label, number of l-shells
 n=1   0   2 P   1                   # n, l, Nzeta, Polarization, NzetaPol
   6.518      2.141   
   1.000      1.000   
N                     2                    # Species label, number of l-shells
 n=2   0   2                         # n, l, Nzeta 
   4.730      2.532   
   1.000      1.000   
 n=2   1   2 P   1                   # n, l, Nzeta, Polarization, NzetaPol
   5.924      2.532   
   1.000      1.000   
Si                    2                    # Species label, number of l-shells
 n=3   0   2                         # n, l, Nzeta 
   6.430      3.998   
   1.000      1.000   
 n=3   1   2 P   1                   # n, l, Nzeta, Polarization, NzetaPol
   8.465      4.588   
   1.000      1.000   
O                     2                    # Species label, number of l-shells
 n=2   0   2                         # n, l, Nzeta 
   4.244      2.188   
   1.000      1.000   
 n=2   1   2 P   1                   # n, l, Nzeta, Polarization, NzetaPol
   5.315      2.161   
   1.000      1.000   
%endblock PAO.Basis

prinput: ----------------------------------------------------------------------

Dumping basis to NetCDF file H.ion.nc
Dumping basis to NetCDF file N.ion.nc
Dumping basis to NetCDF file Si.ion.nc
Dumping basis to NetCDF file O.ion.nc
coor:   Atomic-coordinates input format  =     Cartesian coordinates
coor:                                          (in Angstroms)

siesta: Atomic coordinates (Bohr) and species
siesta:    -14.37373  31.09994   0.00000  1        1
siesta:    -15.70880  29.60699   0.00000  2        2
siesta:    -18.97857  30.44104   0.00000  3        3
siesta:    -19.27295  33.25672   0.00000  1        4
siesta:    -21.85723  27.49513   0.00000  3        5
siesta:    -24.66005  27.95402   0.00000  1        6
siesta:    -19.59260  23.87956   0.00000  3        7
siesta:    -21.04018  20.98315   0.00000  2        8
siesta:    -19.92477  19.17428   0.00000  1        9
siesta:    -23.02746  20.83110   0.00000  1       10
siesta:    -16.34945  23.98383   0.00000  2       11
siesta:    -14.31795  26.49781   0.00000  3       12
siesta:    -11.27800  26.46226   0.00000  4       13
siesta:     10.61355 -14.07759   0.00000  1       14
siesta:      8.65886 -13.66658   0.00000  2       15
siesta:      6.22979 -16.04876   0.00000  3       16
siesta:      7.18318 -18.71532  -0.00000  1       17
siesta:      3.13570 -15.14356   0.00000  2       18
siesta:      3.17659 -11.72506  -0.00000  3       19
siesta:      1.03072  -8.10005   0.00000  3       20
siesta:     -1.95457  -7.45403   0.00000  4       21
siesta:      3.27352  -5.43711   0.00000  2       22
siesta:      2.28576  -3.64645  -0.00000  1       23
siesta:      6.63017  -5.24735   0.00000  3       24
siesta:      7.81751  -2.22872   0.00000  2       25
siesta:      6.69523  -0.49602   0.00000  1       26
siesta:      9.79567  -1.98858  -0.00000  1       27
siesta:      8.75489  -7.70105  -0.00000  2       28
siesta:      7.16982 -10.55666   0.00000  3       29

siesta: System type = molecule  

initatomlists: Number of atoms, orbitals, and projectors:     29   297   394

siesta: ******************** Simulation parameters ****************************
siesta:
siesta: The following are some of the parameters of the simulation.
siesta: A complete list of the parameters used, including default values,
siesta: can be found in file out.fdf
siesta:
redata: Spin configuration                          = spin-orbit
redata: Number of spin components                   = 8
redata: Time-Reversal Symmetry                      = F
redata: Spin spiral                                 = F
############################################################
This spin-orbit implementation uses a local approximation.
From 4.2 and onwards the full non-local approximation is implemented
You are strongly advised to use >=4.2 versions!
############################################################
redata: Long output                                 =   F
redata: Number of Atomic Species                    =        4
redata: Charge density info will appear in .RHO file
redata: Write Mulliken Pop.                         = NO
redata: Matel table size (NRTAB)                    =     1024
redata: Mesh Cutoff                                 =   340.0000 Ry
redata: Net charge of the system                    =     0.0000 |e|
redata: Min. number of SCF Iter                     =        1
redata: Max. number of SCF Iter                     =      200
redata: SCF mix quantity                            = Hamiltonian
redata: Mix DM or H after convergence               =   F
redata: Recompute H after scf cycle                 =   F
redata: Mix DM in first SCF step                    =   T
redata: Write Pulay info on disk                    =   F
redata: New DM Occupancy tolerance                  = 0.000000000001
redata: No kicks to SCF
redata: DM Mixing Weight for Kicks                  =     0.5000
redata: Require Harris convergence for SCF          =   F
redata: Harris energy tolerance for SCF             =     0.000100 eV
redata: Require DM convergence for SCF              =   T
redata: DM tolerance for SCF                        =     0.000008
redata: Require EDM convergence for SCF             =   F
redata: EDM tolerance for SCF                       =     0.001000 eV
redata: Require H convergence for SCF               =   T
redata: Hamiltonian tolerance for SCF               =     0.000001 eV
redata: Require (free) Energy convergence for SCF   =   F
redata: (free) Energy tolerance for SCF             =     0.000100 eV
redata: Using Saved Data (generic)                  =   F
redata: Use continuation files for DM               =   T
redata: Neglect nonoverlap interactions             =   F
redata: Method of Calculation                       = Diagonalization
redata: Electronic Temperature                      =   299.9978 K
redata: Fix the spin of the system                  =   F
redata: Dynamics option                             = Verlet MD run
redata: Initial MD time step                        =        1
redata:   Final MD time step                        =        1
redata: Length of MD time step                      =     0.5000 fs
redata: Initial Temperature of MD run               =     0.0000 K
redata: Perform a MD quench                         =   F
mix.SCF: Pulay mixing                            = Pulay
mix.SCF:    Variant                              = stable
mix.SCF:    History steps                        = 6
mix.SCF:    Linear mixing weight                 =     0.250000
mix.SCF:    Mixing weight                        =     0.250000
mix.SCF:    SVD condition                        = 0.1000E-07
mix.SCF:    Restart steps                        = 24
mix.SCF:    Restart save steps                   = 3
mix.SCF: Spin-component mixing                   all
redata: Save all siesta data in one NC              =   F
redata: ***********************************************************************

%block SCF.Mixers
  Pulay
%endblock SCF.Mixers

%block SCF.Mixer.Pulay
  # Mixing method
  method pulay
  variant stable

  # Mixing options
  weight 0.2500
  weight.linear 0.2500
  history 6
  restart 24
  restart.save 3
%endblock SCF.Mixer.Pulay

Size of DM history Fstack: 3
Total number of electrons:    98.000000
Total ionic charge:    98.000000

* ProcessorY, Blocksize:    2  24


* Orbital distribution balance (max,min):    48    24


Time-reversal symmetry not used.

siesta: k-grid: Number of k-points =     1
siesta: k-grid: Cutoff (effective) =     5.000 Ang
siesta: k-grid: Supercell and displacements
siesta: k-grid:    1   0   0      0.000
siesta: k-grid:    0   1   0      0.000
siesta: k-grid:    0   0   1      0.000

diag: Algorithm                                     = ELPA-1stage
diag: Parallel over k                               =   F
diag: Use parallel 2D distribution                  =   T
diag: Parallel block-size                           = 24
diag: Parallel distribution                         =     2 x     4
diag: Used triangular part                          = Lower
diag: Absolute tolerance                            =  0.100E-15
diag: Orthogonalization factor                      =  0.100E-05
diag: Memory factor                                 =  1.0000


ts: **************************************************************
ts: Save H and S matrices                           =    F
ts: Save DM and EDM matrices                        =    F
ts: Only save the overlap matrix S                  =    F
ts: **************************************************************

************************ Begin: TS CHECKS AND WARNINGS ************************
************************ End: TS CHECKS AND WARNINGS **************************


                     ====================================
                        Begin MD step =      1
                     ====================================

outcoor: Atomic coordinates (Ang):                          
   -7.60624876   16.45737245    0.00000000   1       1  H
   -8.31273549   15.66733627    0.00000000   2       2  N
  -10.04302240   16.10870018    0.00000000   3       3  Si
  -10.19880208   17.59869244    0.00000000   1       4  H
  -11.56634402   14.54979266    0.00000000   3       5  Si
  -13.04953165   14.79262302    0.00000000   1       6  H
  -10.36795316   12.63651650    0.00000000   3       7  Si
  -11.13397862   11.10379976    0.00000000   2       8  N
  -10.54373207   10.14658673    0.00000000   1       9  H
  -12.18560094   11.02333953    0.00000000   1      10  H
   -8.65175310   12.69169081    0.00000000   2      11  N
   -7.57673048   14.02202965    0.00000000   3      12  Si
   -5.96805716   14.00321939    0.00000000   4      13  O
    5.61644830   -7.44953905    0.00000000   1      14  H
    4.58206954   -7.23203760    0.00000000   2      15  N
    3.29666389   -8.49263600    0.00000000   3      16  Si
    3.80117524   -9.90371886    0.00000000   1      17  H
    1.65934232   -8.01362137    0.00000000   2      18  N
    1.68097912   -6.20463398    0.00000000   3      19  Si
    0.54543521   -4.28636135    0.00000000   3      20  Si
   -1.03431493   -3.94450034    0.00000000   4      21  O
    1.73226934   -2.87719605    0.00000000   2      22  N
    1.20957366   -1.92961761    0.00000000   1      23  H
    3.50853448   -2.77677601    0.00000000   3      24  Si
    4.13684451   -1.17938608    0.00000000   2      25  N
    3.54296161   -0.26248101    0.00000000   1      26  H
    5.18364407   -1.05231197    0.00000000   1      27  H
    4.63288658   -4.07521596    0.00000000   2      28  N
    3.79410501   -5.58634043    0.00000000   3      29  Si

outcell: Unit cell vectors (Ang):
       30.000000    0.000000    0.000000
        0.000000   45.000000    0.000000
        0.000000    0.000000   10.000000

outcell: Cell vector modules (Ang)   :   30.000000   45.000000   10.000000
outcell: Cell angles (23,13,12) (deg):     90.0000     90.0000     90.0000
outcell: Cell volume (Ang**3)        :  13500.0000
<dSpData1D:S at geom step 1
  <sparsity:sparsity for geom step 1
    nrows_g=297 nrows=48 sparsity=.0793 nnzs=6991, refcount: 8>
  <dData1D:(new from dSpData1D) n=6991, refcount: 1>
refcount: 1>
new_DM -- step:     1
Initializing Density Matrix...

Attempting to read DM from file... Failed...
DM filled with atomic data:
<dSpData2D:DM initialized from atoms
  <sparsity:sparsity for geom step 1
    nrows_g=297 nrows=48 sparsity=.0793 nnzs=6991, refcount: 9>
  <dData2D:DM n=6991 m=8, refcount: 1>
refcount: 1>
     spin moment: S , {S} =   56.00000   0.00000   0.00000  56.00000
No. of atoms with KB's overlaping orbs in proc 0. Max # of overlaps:      26     142

Initializing spin-orbit part of the Hamiltonian
  Adding spin-orbit effects for H 
  Adding spin-orbit effects for N 
  Adding spin-orbit effects for Si
  Adding spin-orbit effects for O 


New grid distribution:   1
           1       1:  180    1:  125    1:   15
           2       1:  180    1:  125   16:   30
           3       1:  180    1:  125   31:   45
           4       1:  180    1:  125   46:   60
           5       1:  180  126:  250    1:   15
           6       1:  180  126:  250   16:   30
           7       1:  180  126:  250   31:   45
           8       1:  180  126:  250   46:   60

InitMesh: MESH =   360 x   500 x   120 =    21600000
InitMesh: (bp) =   180 x   250 x    60 =     2700000
InitMesh: Mesh cutoff (required, used) =   340.000   341.206 Ry
ExtMesh (bp) on 0 =   288 x   225 x   123 =     7970400
New grid distribution:   2
           1       1:  119    1:   82    1:   60
           2     120:  180    1:   80    1:   60
           3      21:  180  206:  224    1:   60
           4       1:   20  206:  225    1:   60
           5       1:  119   83:  205    1:   60
           6     120:  180   81:  205    1:   60
           7      21:  180  225:  250    1:   60
           8       1:   20  226:  250    1:   60
New grid distribution:   3
           1       1:  117    1:   70    1:   60
           2     118:  180    1:   78    1:   60
           3       1:  117   71:  108    1:   60
           4     118:  180   79:  108    1:   60
           5      30:  180  109:  219    1:   60
           6      30:  180  220:  250    1:   60
           7       1:   29  109:  217    1:   60
           8       1:   29  218:  250    1:   60
Setting up quadratic distribution...
ExtMesh (bp) on 0 =   227 x   182 x   168 =     6940752
PhiOnMesh: Number of (b)points on node 0 =               585480
PhiOnMesh: nlist on node 0 =              1474886

stepf: Fermi-Dirac step function

siesta: Program's energy decomposition (eV):
siesta: Ebs     =      -633.920275
siesta: Eions   =      3585.165840
siesta: Ena     =       381.828398
siesta: Ekin    =      3368.422746
siesta: Enl     =     -3296.831045
siesta: Eso     =        -0.003411
siesta: Edftu   =         0.000000
siesta: DEna    =       153.501100
siesta: DUscf   =        82.295928
siesta: DUext   =         0.000000
siesta: Exc     =     -1203.876417
siesta: eta*DQ  =         0.000000
siesta: Emadel  =         0.000000
siesta: Emeta   =         0.000000
siesta: Emolmec =         0.000000
siesta: Ekinion =         0.000000
siesta: Eharris =     -4019.166296
siesta: Etot    =     -4099.828540
siesta: FreeEng =     -4099.829573

        iscf     Eharris(eV)        E_KS(eV)     FreeEng(eV)     dDmax    Ef(eV) dHmax(eV)
   scf:    1    -4019.166296    -4099.828540    -4099.829573  0.965679 -4.903676 21.990369
     spin moment: S , {S} =    2.00581  -0.00000  -0.00000   2.00581
timer: Routine,Calls,Time,% = IterSCF        1      14.948  23.60
   scf:    2    -4141.912522    -4133.843593    -4133.846522  0.443740 -4.238157 12.819866
     spin moment: S , {S} =    1.98252  -0.00000   0.00000   1.98252
   scf:    3    -4037.840279    -4113.035008    -4113.061745  0.588830 -4.349176 19.725281
     spin moment: S , {S} =    3.80527  -0.00000  -0.00000   3.80527
   scf:    4    -4151.807066    -4144.281877    -4144.281881  0.566386 -3.953326  7.326098
     spin moment: S , {S} =    0.00012  -0.00000  -0.00000   0.00012
   scf:    5    -4145.975367    -4145.285463    -4145.285463  0.046822 -3.719921  5.546009
     spin moment: S , {S} =    0.00007  -0.00000  -0.00000   0.00007
   scf:    6    -4146.213210    -4145.756378    -4145.756378  0.028173 -3.514602  2.932738
     spin moment: S , {S} =    0.00003  -0.00000  -0.00000   0.00003
   scf:    7    -4146.218585    -4145.984645    -4145.984645  0.026862 -3.735807  0.878327
     spin moment: S , {S} =    0.00001   0.00000   0.00000   0.00001
   scf:    8    -4146.087721    -4146.035147    -4146.035147  0.011652 -3.689199  0.562136
     spin moment: S , {S} =    0.00000   0.00000   0.00000   0.00000
   scf:    9    -4146.076291    -4146.055177    -4146.055177  0.007466 -3.643721  0.521479
     spin moment: S , {S} =    0.00000  -0.00000   0.00000   0.00000
   scf:   10    -4146.110850    -4146.073339    -4146.073339  0.025603 -3.744992  0.378384
     spin moment: S , {S} =    0.00000   0.00000   0.00000  -0.00000
   scf:   11    -4146.074370    -4146.073575    -4146.073575  0.010201 -3.770569  0.160390
     spin moment: S , {S} =    0.00000   0.00000  -0.00000  -0.00000
   scf:   12    -4146.079316    -4146.076488    -4146.076488  0.002275 -3.754864  0.069630
     spin moment: S , {S} =    0.00000   0.00000  -0.00000  -0.00000
   scf:   13    -4146.079019    -4146.077731    -4146.077731  0.001617 -3.758481  0.045436
     spin moment: S , {S} =    0.00000   0.00000  -0.00000  -0.00000
   scf:   14    -4146.079774    -4146.078691    -4146.078691  0.001961 -3.755792  0.026960
     spin moment: S , {S} =    0.00000   0.00000  -0.00000  -0.00000
   scf:   15    -4146.079409    -4146.079024    -4146.079024  0.001129 -3.752398  0.014050
     spin moment: S , {S} =    0.00000   0.00000  -0.00000  -0.00000
   scf:   16    -4146.079307    -4146.079149    -4146.079149  0.000921 -3.751371  0.005825
     spin moment: S , {S} =    0.00000   0.00000  -0.00000  -0.00000
   scf:   17    -4146.079191    -4146.079169    -4146.079169  0.000344 -3.751698  0.003344
     spin moment: S , {S} =    0.00000   0.00000  -0.00000  -0.00000
   scf:   18    -4146.079186    -4146.079176    -4146.079176  0.000253 -3.752017  0.002136
     spin moment: S , {S} =    0.00000   0.00000  -0.00000   0.00000
   scf:   19    -4146.079184    -4146.079180    -4146.079180  0.000175 -3.752231  0.001268
     spin moment: S , {S} =    0.00000   0.00000  -0.00000  -0.00000
   scf:   20    -4146.079182    -4146.079181    -4146.079181  0.000087 -3.752273  0.000825
     spin moment: S , {S} =    0.00000   0.00000  -0.00000  -0.00000
   scf:   21    -4146.079181    -4146.079181    -4146.079181  0.000066 -3.752284  0.000445
     spin moment: S , {S} =    0.00000   0.00000  -0.00000  -0.00000
   scf:   22    -4146.079181    -4146.079181    -4146.079181  0.000043 -3.752278  0.000324
     spin moment: S , {S} =    0.00000   0.00000  -0.00000  -0.00000
   scf:   23    -4146.079181    -4146.079181    -4146.079181  0.000030 -3.752274  0.000266
     spin moment: S , {S} =    0.00000   0.00000  -0.00000  -0.00000
   scf:   24    -4146.079181    -4146.079181    -4146.079181  0.000028 -3.752277  0.000159
     spin moment: S , {S} =    0.00000   0.00000  -0.00000   0.00000
mix: Pulay -- resetting history
   scf:   25    -4146.079181    -4146.079181    -4146.079181  0.000014 -3.752277  0.000104
     spin moment: S , {S} =    0.00000   0.00000  -0.00000   0.00000
   scf:   26    -4146.079181    -4146.079181    -4146.079181  0.000006 -3.752274  0.000075
     spin moment: S , {S} =    0.00000   0.00000  -0.00000  -0.00000
   scf:   27    -4146.079181    -4146.079181    -4146.079181  0.000006 -3.752270  0.000053
     spin moment: S , {S} =    0.00000   0.00000  -0.00000  -0.00000
   scf:   28    -4146.079181    -4146.079181    -4146.079181  0.000007 -3.752268  0.000021
     spin moment: S , {S} =    0.00000   0.00000  -0.00000  -0.00000
   scf:   29    -4146.079181    -4146.079181    -4146.079181  0.000002 -3.752268  0.000012
     spin moment: S , {S} =    0.00000   0.00000  -0.00000   0.00000
   scf:   30    -4146.079181    -4146.079181    -4146.079181  0.000002 -3.752268  0.000006
     spin moment: S , {S} =    0.00000   0.00000  -0.00000   0.00000
   scf:   31    -4146.079181    -4146.079181    -4146.079181  0.000001 -3.752269  0.000004
     spin moment: S , {S} =    0.00000   0.00000  -0.00000   0.00000
   scf:   32    -4146.079181    -4146.079181    -4146.079181  0.000000 -3.752269  0.000003
     spin moment: S , {S} =    0.00000   0.00000  -0.00000   0.00000
   scf:   33    -4146.079181    -4146.079181    -4146.079181  0.000000 -3.752269  0.000001
     spin moment: S , {S} =    0.00000   0.00000  -0.00000   0.00000
   scf:   34    -4146.079181    -4146.079181    -4146.079181  0.000000 -3.752269  0.000001
     spin moment: S , {S} =    0.00000   0.00000  -0.00000   0.00000

SCF Convergence by DM+H criterion
max |DM_out - DM_in|         :     0.0000001198
max |H_out - H_in|      (eV) :     0.0000007937
SCF cycle converged after 34 iterations

Using DM_out to compute the final energy and forces
No. of atoms with KB's overlaping orbs in proc 0. Max # of overlaps:      26     142

siesta: E_KS(eV) =            -4146.0792

siesta: E_KS - E_eggbox =     -4146.0792
     spin moment: S , {S} =    0.00000   0.00000  -0.00000   0.00000

siesta: Atomic forces (eV/Ang):
     1    0.115131    0.010836   -0.000000
     2   -0.607682    0.323006    0.000000
     3    0.491630   -0.021714   -0.000000
     4   -0.096632    0.120039    0.000000
     5   -0.226710   -0.244310    0.000000
     6   -0.007784    0.031255   -0.000000
     7    1.298127    1.168089    0.000000
     8    0.742908   -2.409483    0.000000
     9   -1.302202    1.892033   -0.000000
    10    0.153382   -0.286387   -0.000000
    11   -1.112029   -0.376060   -0.000000
    12    1.382030   -0.228377   -0.000000
    13   -2.690192    2.595189   -0.000000
    14   -0.013528   -0.037514   -0.000000
    15    0.126320    0.047961    0.000000
    16    0.012494   -0.028028   -0.000000
    17   -0.001668    0.051275    0.000000
    18   -0.037844    0.069310   -0.000000
    19    0.271899    0.019207    0.000000
    20   -1.466334   -0.243119   -0.000000
    21    1.316749   -3.875837    0.000000
    22    0.427146    0.856758   -0.000000
    23    0.194074   -0.620787    0.000000
    24   -0.369124   -1.145964    0.000000
    25   -0.451962    1.664277   -0.000000
    26    0.868293   -1.248600   -0.000000
    27   -0.136257    0.099365    0.000000
    28    0.055803    0.826089   -0.000000
    29   -0.351435   -0.485717   -0.000000
----------------------------------------
   Tot   -1.415398   -1.477209   -0.000000
----------------------------------------
   Max    3.875837
   Res    0.838609    sqrt( Sum f_i^2 / 3N )
----------------------------------------
   Max    3.875837    constrained

Stress tensor Voigt[x,y,z,yz,xz,xy] (kbar):        0.54        0.13       -0.05       -0.00        0.00       -0.49
(Free)E + p*V (eV/cell)    -4147.8486
Target enthalpy (eV/cell)    -4146.0792

siesta: Stress tensor (static) (eV/Ang**3):
         0.000338   -0.000307   -0.000000
        -0.000307    0.000083    0.000000
         0.000000   -0.000000   -0.000029

siesta: Pressure (static):         -0.20999148  kBar

siesta: Stress tensor (total) (eV/Ang**3):
         0.000338   -0.000307   -0.000000
        -0.000307    0.000083    0.000000
         0.000000   -0.000000   -0.000029

siesta: Pressure (total):         -0.20999148  kBar

siesta: Temp_ion =       0.000 K

siesta: Eigenvalues (eV):
ik =     1
  -22.0990  -22.0990  -21.6786  -21.6786  -21.5935  -21.5935  -21.5891  -21.5891  -21.2653  -21.2653
  -20.9610  -20.9610  -20.8960  -20.8960  -19.9192  -19.9192  -19.3807  -19.3807  -19.2977  -19.2977
  -14.6924  -14.6924  -13.9798  -13.9798  -13.3212  -13.3212  -13.3085  -13.3085  -13.1408  -13.1408
  -13.0609  -13.0609  -12.8893  -12.8893  -12.5881  -12.5881  -12.4124  -12.4124  -11.9749  -11.9749
  -11.5658  -11.5658  -10.8346  -10.8346  -10.8203  -10.8203  -10.7498  -10.7498  -10.0065  -10.0065
   -9.4865   -9.4865   -9.3430   -9.3430   -8.8829   -8.8829   -8.7732   -8.7732   -8.7308   -8.7308
   -8.6271   -8.6271   -8.3286   -8.3286   -8.2442   -8.2442   -7.8324   -7.8324   -7.6742   -7.6742
   -7.4668   -7.4668   -7.3854   -7.3854   -7.2826   -7.2826   -7.0032   -7.0032   -6.6524   -6.6524
   -6.5475   -6.5475   -6.3883   -6.3883   -6.1410   -6.1410   -6.1104   -6.1104   -5.9758   -5.9758
   -5.5945   -5.5945   -5.5212   -5.5212   -5.3516   -5.3516   -4.3396   -4.3396   -3.1696   -3.1696
   -2.3549   -2.3549   -2.3315   -2.3315   -2.2530   -2.2530   -2.0000   -2.0000   -1.9008   -1.9008
   -1.7976   -1.7976   -1.7227   -1.7227   -1.6817   -1.6817   -1.5372   -1.5372   -0.9911   -0.9911
   -0.8750   -0.8750   -0.8694   -0.8694   -0.4611   -0.4611   -0.0451   -0.0451   -0.0286   -0.0286
    0.0232    0.0232    0.3622    0.3622    0.5074    0.5074    0.6631    0.6631    0.7360    0.7360
    0.9454    0.9454    1.0813    1.0813    1.2941    1.2941    1.3971    1.3971    1.4978    1.4978
    1.6606    1.6606    1.8444    1.8444    1.9218    1.9218    2.2185    2.2185    2.6895    2.6895
    2.7047    2.7047    2.8447    2.8447    2.8559    2.8559    3.1982    3.1982    3.3154    3.3154
    3.4182    3.4182    3.6146    3.6146    3.7716    3.7716    4.1516    4.1516    4.1645    4.1645
    4.4909    4.4909    4.5079    4.5079    4.5889    4.5889    4.6266    4.6266    4.7450    4.7450
    4.8211    4.8211    5.0069    5.0069    5.1781    5.1781    5.5788    5.5788    5.5937    5.5937
    5.6184    5.6184    5.7566    5.7566    5.8067    5.8067    5.8917    5.8917    5.9474    5.9474
    6.2160    6.2160    6.3131    6.3131    6.6075    6.6075    6.7310    6.7310    6.9227    6.9227
    7.0967    7.0967    7.1231    7.1231    7.3699    7.3699    7.4159    7.4159    7.7010    7.7010
    7.8898    7.8898    7.9941    7.9941    8.1719    8.1719    8.1884    8.1884    8.3436    8.3436
    8.3887    8.3887    8.6702    8.6702    8.7730    8.7730    8.9546    8.9546    9.1351    9.1351
    9.1432    9.1432    9.2000    9.2000    9.7708    9.7708    9.8624    9.8624    9.8811    9.8811
   10.0400   10.0400   10.2409   10.2409   10.4013   10.4013   10.5286   10.5286   10.7043   10.7043
   10.8118   10.8118   10.9083   10.9083   11.2875   11.2875   11.5987   11.5987   11.6709   11.6709
   11.6754   11.6754   11.9473   11.9473   11.9900   11.9900   12.2678   12.2678   12.7637   12.7637
   12.8065   12.8065   12.8211   12.8211   13.1848   13.1848   13.5051   13.5051   13.5441   13.5441
   13.8666   13.8666   14.1918   14.1918   14.1986   14.1986   14.5067   14.5067   14.6883   14.6883
   14.9840   14.9840   15.4194   15.4194   15.9640   15.9640   16.3892   16.3892   16.7750   16.7750
   16.8636   16.8636   17.3599   17.3599   17.6522   17.6522   18.0858   18.0858   18.2878   18.2878
   18.5902   18.5902   19.2894   19.2894   19.3129   19.3129   19.7932   19.7932   20.3421   20.3421
   21.0116   21.0116   21.3060   21.3060   21.8815   21.8815   22.2357   22.2357   22.3327   22.3327
   22.9250   22.9250   23.1502   23.1502   23.5707   23.5707   23.7762   23.7762   23.9143   23.9143
   24.8551   24.8551   25.2825   25.2825   26.0517   26.0517   26.6150   26.6150   27.3166   27.3166
   27.8901   27.8901   28.8254   28.8254   29.2193   29.2193   29.2348   29.2348   29.6519   29.6519
   29.8455   29.8455   29.9668   29.9668   30.2144   30.2144   30.6260   30.6260   30.7230   30.7230
   30.9949   30.9949   31.3097   31.3097   31.6118   31.6118   31.7302   31.7302   31.9765   31.9765
   32.6784   32.6784   33.7068   33.7068   34.5691   34.5691   34.8289   34.8289   35.0622   35.0622
   35.0790   35.0790   35.2973   35.2973   35.4707   35.4707   35.5218   35.5218   36.0869   36.0869
   36.6500   36.6500   36.6808   36.6808   36.9725   36.9725   37.1354   37.1354   37.3044   37.3044
   38.1668   38.1668   38.2386   38.2386   39.2312   39.2312   39.4864   39.4864   39.7556   39.7556
   40.3674   40.3674   40.4544   40.4544   40.5333   40.5333   40.7164   40.7164   40.7887   40.7887
   40.8754   40.8754   41.2006   41.2006   42.5348   42.5348   42.6549   42.6549   42.9763   42.9763
   43.2751   43.2751   43.7837   43.7837   43.8623   43.8623   43.8979   43.8979   44.3671   44.3671
   44.5982   44.5982   44.7647   44.7647   44.9127   44.9127   45.2653   45.2653   46.0534   46.0534
   46.1318   46.1318   46.9316   46.9316   47.2737   47.2737   48.7979   48.7979   49.0946   49.0946
   49.3015   49.3015   50.2280   50.2280   50.5636   50.5636   50.9852   50.9852   51.1048   51.1048
   51.5403   51.5403   51.8020   51.8020   52.6582   52.6582   52.7483   52.7483   54.1006   54.1006
   54.2723   54.2723   54.4164   54.4164   54.5295   54.5295   55.6004   55.6004   55.6921   55.6921
   55.8458   55.8458   55.8715   55.8715   56.5177   56.5177   58.0023   58.0023   58.2100   58.2100
   58.5115   58.5115   59.9952   59.9952   60.1000   60.1000   60.4672   60.4672   61.0623   61.0623
   61.7888   61.7888   61.9211   61.9211   62.0335   62.0335   64.6735   64.6735   66.6427   66.6427
   66.6733   66.6733   67.0873   67.0873   68.2716   68.2716   68.3189   68.3189   70.7989   70.7989
   73.6241   73.6241   80.2351   80.2351   90.9394   90.9394   92.1488   92.1488   93.1678   93.1678
   98.2034   98.2034   98.6058   98.6058   99.7802   99.7802  102.9696  102.9696  103.5025  103.5025
  109.8588  109.8588  111.4945  111.4945  123.9550  123.9550  126.3298  126.3298  128.9426  128.9426
  135.0140  135.0140  137.9362  137.9362
siesta: Fermi energy =      -3.752269 eV

siesta: Program's energy decomposition (eV):
siesta: Ebs     =     -1135.418339
siesta: Eions   =      3585.165840
siesta: Ena     =       381.828398
siesta: Ekin    =      2902.255021
siesta: Enl     =     -2786.814458
siesta: Eso     =        -0.004283
siesta: Edftu   =         0.000000
siesta: DEna    =        46.848451
siesta: DUscf   =        14.381261
siesta: DUext   =         0.000000
siesta: Exc     =     -1119.407732
siesta: eta*DQ  =         0.000000
siesta: Emadel  =         0.000000
siesta: Emeta   =         0.000000
siesta: Emolmec =         0.000000
siesta: Ekinion =         0.000000
siesta: Eharris =     -4146.079181
siesta: Etot    =     -4146.079181
siesta: FreeEng =     -4146.079181

siesta: Final energy (eV):
siesta:  Band Struct. =   -1135.418339
siesta:       Kinetic =    2902.255021
siesta:       Hartree =    9991.684073
siesta:       Edftu   =       0.000000
siesta:       Eso     =      -0.004283
siesta:    Ext. field =       0.000000
siesta:   Exch.-corr. =   -1119.407732
siesta:  Ion-electron =  -22567.928620
siesta:       Ion-ion =    6647.322359
siesta:       Ekinion =       0.000000
siesta:         Total =   -4146.079181
siesta:         Fermi =      -3.752269

siesta: Atomic forces (eV/Ang):
siesta:      1    0.115131    0.010836   -0.000000
siesta:      2   -0.607682    0.323006    0.000000
siesta:      3    0.491630   -0.021714   -0.000000
siesta:      4   -0.096632    0.120039    0.000000
siesta:      5   -0.226710   -0.244310    0.000000
siesta:      6   -0.007784    0.031255   -0.000000
siesta:      7    1.298127    1.168089    0.000000
siesta:      8    0.742908   -2.409483    0.000000
siesta:      9   -1.302202    1.892033   -0.000000
siesta:     10    0.153382   -0.286387   -0.000000
siesta:     11   -1.112029   -0.376060   -0.000000
siesta:     12    1.382030   -0.228377   -0.000000
siesta:     13   -2.690192    2.595189   -0.000000
siesta:     14   -0.013528   -0.037514   -0.000000
siesta:     15    0.126320    0.047961    0.000000
siesta:     16    0.012494   -0.028028   -0.000000
siesta:     17   -0.001668    0.051275    0.000000
siesta:     18   -0.037844    0.069310   -0.000000
siesta:     19    0.271899    0.019207    0.000000
siesta:     20   -1.466334   -0.243119   -0.000000
siesta:     21    1.316749   -3.875837    0.000000
siesta:     22    0.427146    0.856758   -0.000000
siesta:     23    0.194074   -0.620787    0.000000
siesta:     24   -0.369124   -1.145964    0.000000
siesta:     25   -0.451962    1.664277   -0.000000
siesta:     26    0.868293   -1.248600   -0.000000
siesta:     27   -0.136257    0.099365    0.000000
siesta:     28    0.055803    0.826089   -0.000000
siesta:     29   -0.351435   -0.485717   -0.000000
siesta: ----------------------------------------
siesta:    Tot   -1.415398   -1.477209   -0.000000

siesta: Stress tensor (static) (eV/Ang**3):
siesta:     0.000338   -0.000307   -0.000000
siesta:    -0.000307    0.000083    0.000000
siesta:     0.000000   -0.000000   -0.000029

siesta: Cell volume =      13500.000000 Ang**3

siesta: Pressure (static):
siesta:                Solid            Molecule  Units
siesta:          -0.00000143         -0.00001725  Ry/Bohr**3
siesta:          -0.00013106         -0.00158356  eV/Ang**3
siesta:          -0.20999148         -2.53716560  kBar
(Free)E+ p_basis*V_orbitals  =       -4126.228764
(Free)Eharris+ p_basis*V_orbitals  =       -4126.228764
     spin moment: S , {S} =    0.00000   0.00000  -0.00000   0.00000

siesta: Electric dipole (a.u.)  =    0.117053    1.388603   -0.000000
siesta: Electric dipole (Debye) =    0.297519    3.529478   -0.000000

cite: Please see "GC.bib" for an exhaustive BiBTeX file.
cite: Please clearly indicate Siesta version in published work: v4.1.5-1-g384057250
cite: This calculation has made use of the following articles
cite: which are encouraged to be cited in a published work.
        Primary SIESTA paper
          DOI: www.doi.org/10.1088/0953-8984/14/11/302
        Spin-orbit coupling (on-site approximation)
          DOI: www.doi.org/10.1088/0953-8984/19/19/489001


WARNING: alloc-realloc-dealloc name mismatch
         Name: atomlist isa
         Size:              -116. Bytes
         Node:     0
         Subsequent mismatches will not be reported
>> End of run:   1-FEB-2024  23:03:23
Job completed
