Siesta Version  : v4.1.5-1-g384057250
Architecture    : gcc
Compiler version: GNU Fortran (Ubuntu 11.4.0-1ubuntu1~22.04) 11.4.0
Compiler flags  : mpifort -O2 -fPIC -ftree-vectorize -fallow-argument-mismatch
PP flags        : -DFC_HAVE_ABORT -DMPI -DSIESTA__FLOOK -DSIESTA__METIS -DSIESTA__MUMPS -DCDF -DNCDF -DNCDF_4 -DNCDF_PARALLEL -DSIESTA__MRRR -DSIESTA__ELPA
Libraries       : libncdf.a libfdict.a  -lflookall -ldl -lnetcdff -lnetcdf -lhdf5_hl -lhdf5 -lhdf5_fortran -lz -lscalapack-openmpi -lopenblas -lmetis -lzmumps -lcmumps -ldmumps -lmumps_common -lpord -lsmumps -lesmumps -lscotch -lscotcherr -fopenmp -lelpa
PARALLEL version
NetCDF support
NetCDF-4 support
NetCDF-4 MPI-IO support
METIS ordering support
Lua support

* Running on 8 nodes in parallel
>> Start of run:   1-FEB-2024  20:42:33

                           ***********************       
                           *  WELCOME TO SIESTA  *       
                           ***********************       

reinit: Reading from standard input
reinit: Dumped input in INPUT_TMP.23882
************************** Dump of input data file ****************************
# mpirun -np 4 siesta-4.1.5 < GC.fdf > GC.out &
SystemLabel      GC
NumberOfAtoms    29
NumberOfSpecies  4
%block ChemicalSpeciesLabel
    1    1  H
    2    7  N
    3   14  Si
    4    8  O
%endblock ChemicalSpeciesLabel
############################################
# This overrides Defaults.fdf configuration
############################################
MD.TypeOfRun                Verlet # CG, Verlet
MD.Steps                    0
MaxSCFIterations            200
SCF.MustConverge            F
AtomicCoordinatesFormat NotScaledCartesianAng
%block AtomicCoordinatesAndAtomicSpecies
    1.544226810500712 2.8387186432350235 -0.0  1  1  H
    0.837740080500712 2.0486824632350236 -0.0  2  2  N
    -0.892546829499288 2.4900463732350233 0.0  3  3  Si
    -1.048326509499288 3.9800386332350235 0.0  1  4  H
    -2.415868449499288 0.9311388532350234 -0.0  3  5  Si
    -3.8990560794992883 1.1739692132350235 -0.0  1  6  H
    -1.217477589499288 -0.9821373067649766 -0.0  3  7  Si
    -1.983503049499288 -2.5148540467649765 -0.0  2  8  N
    -1.393256499499288 -3.4720670767649766 0.0  1  9  H
    -3.035125369499288 -2.5953142767649764 -0.0  1  10  H
    0.498722470500712 -0.9269629967649765 0.0  2  11  N
    1.573745090500712 0.4033758432350235 -0.0  3  12  Si
    3.182418410500712 0.38456558323502354 -0.0  4  13  O
    5.6164483 -7.44953905 0.0  1  14  H
    4.58206954 -7.2320376 0.0  2  15  N
    3.29666389 -8.492636 0.0  3  16  Si
    3.80117524 -9.90371886 -0.0  1  17  H
    1.65934232 -8.01362137 0.0  2  18  N
    1.68097912 -6.20463398 -0.0  3  19  Si
    0.54543521 -4.28636135 0.0  3  20  Si
    -1.03431493 -3.94450034 0.0  4  21  O
    1.73226934 -2.87719605 0.0  2  22  N
    1.20957366 -1.92961761 -0.0  1  23  H
    3.50853448 -2.77677601 0.0  3  24  Si
    4.13684451 -1.17938608 0.0  2  25  N
    3.54296161 -0.26248101 0.0  1  26  H
    5.18364407 -1.05231197 -0.0  1  27  H
    4.63288658 -4.07521596 -0.0  2  28  N
    3.79410501 -5.58634043 0.0  3  29  Si
%endblock AtomicCoordinatesAndAtomicSpecies
#############
# Unit Cell
#############
LatticeConstant 1.0 Ang
%block LatticeVectors
    30.00000    0.000000    0.000000
    0.000000    45.00000    0.000000
    0.000000    0.000000    10.00000
%endblock LatticeVectors
%include ../../../../Defaults.fdf
************************** End of input data file *****************************

reinit: -----------------------------------------------------------------------
reinit: System Name: 
reinit: -----------------------------------------------------------------------
reinit: System Label: GC
reinit: -----------------------------------------------------------------------

initatom: Reading input for the pseudopotentials and atomic orbitals ----------
Species number:   1 Atomic number:    1 Label: H
Species number:   2 Atomic number:    7 Label: N
Species number:   3 Atomic number:   14 Label: Si
Species number:   4 Atomic number:    8 Label: O

Ground state valence configuration:   1s01
Reading pseudopotential information in formatted form from H.psf

Pseudopotential generated from a relativistic atomic calculation

Valence configuration for pseudopotential generation:
1s( 1.00) rc: 0.01
2p( 0.00) rc: 0.60
3d( 0.00) rc: 1.99
4f( 0.00) rc: 2.49
Ground state valence configuration:   2s02  2p03
Reading pseudopotential information in formatted form from N.psf

Pseudopotential generated from a relativistic atomic calculation

Valence configuration for pseudopotential generation:
2s( 2.00) rc: 0.94
2p( 3.00) rc: 0.59
3d( 0.00) rc: 3.46
4f( 0.00) rc: 2.47
Ground state valence configuration:   3s02  3p02
Reading pseudopotential information in formatted form from Si.psf

Pseudopotential generated from a relativistic atomic calculation

Valence configuration for pseudopotential generation:
3s( 2.00) rc: 1.67
3p( 2.00) rc: 2.04
3d( 0.00) rc: 2.89
4f( 0.00) rc: 2.49
Ground state valence configuration:   2s02  2p04
Reading pseudopotential information in formatted form from O.psf

Pseudopotential generated from a relativistic atomic calculation

Valence configuration for pseudopotential generation:
2s( 2.00) rc: 0.45
2p( 4.00) rc: 0.92
3d( 0.00) rc: 2.24
4f( 0.00) rc: 0.25
For H, standard SIESTA heuristics set lmxkb to 2
 (one more than the basis l, including polarization orbitals).
Use PS.lmax or PS.KBprojectors blocks to override.
For N, standard SIESTA heuristics set lmxkb to 3
 (one more than the basis l, including polarization orbitals).
Use PS.lmax or PS.KBprojectors blocks to override.
For Si, standard SIESTA heuristics set lmxkb to 3
 (one more than the basis l, including polarization orbitals).
Use PS.lmax or PS.KBprojectors blocks to override.
For O, standard SIESTA heuristics set lmxkb to 3
 (one more than the basis l, including polarization orbitals).
Use PS.lmax or PS.KBprojectors blocks to override.

<basis_specs>
===============================================================================
H                    Z=   1    Mass=  1.0100        Charge= 0.17977+309
Lmxo=0 Lmxkb= 2    BasisType=split      Semic=F
L=0  Nsemic=0  Cnfigmx=1
          i=1  nzeta=2  polorb=1  (1s)
            splnorm:   0.62000    
               vcte:    0.0000    
               rinn:    0.0000    
               qcoe:    0.0000    
               qyuk:    0.0000    
               qwid:   0.10000E-01
                rcs:    0.0000      0.0000    
            lambdas:    1.0000      1.0000    
-------------------------------------------------------------------------------
L=0  Nkbl=1  erefs: 0.17977+309
L=1  Nkbl=1  erefs: 0.17977+309
L=2  Nkbl=1  erefs: 0.17977+309
===============================================================================
</basis_specs>

atom: Called for H                     (Z =   1)

read_vps: Pseudopotential generation method:
read_vps: ATM4.2.7  Troullier-Martins                       
Valence charge for ps generation:    1.00000

xc_check: Exchange-correlation functional:
xc_check: GGA Perdew, Burke & Ernzerhof 1996
V l=0 = -2*Zval/r beyond r=  0.0098
V l=1 = -2*Zval/r beyond r=  0.5817
V l=2 = -2*Zval/r beyond r=  1.9372
All V_l potentials equal beyond r=  1.9372
This should be close to max(r_c) in ps generation
All pots = -2*Zval/r beyond r=  1.9372

VLOCAL1: 99.0% of the norm of Vloc inside     11.567 Ry
VLOCAL1: 99.9% of the norm of Vloc inside     26.362 Ry
atom: Maximum radius for 4*pi*r*r*local-pseudopot. charge    2.25106
atom: Maximum radius for r*vlocal+2*Zval:    1.91306
GHOST: No ghost state for L =  0
GHOST: No ghost state for L =  1
GHOST: No ghost state for L =  2

KBgen: Kleinman-Bylander projectors: 
   l= 0   rc=  2.036604   el= -0.477180   Ekb= -6.081590   kbcos= -0.277285
   l= 1   rc=  2.195416   el=  0.001076   Ekb= -0.926943   kbcos= -0.034643
   l= 2   rc=  2.251056   el=  0.002010   Ekb= -0.130941   kbcos= -0.009788

KBgen: Total number of Kleinman-Bylander projectors:    9
atom: -------------------------------------------------------------------------

atom: SANKEY-TYPE ORBITALS:
atom: Selected multiple-zeta basis: split     

SPLIT: Orbitals with angular momentum L= 0

SPLIT: Basis orbitals for state 1s

SPLIT: PAO cut-off radius determined from an
SPLIT: energy shift=  0.002000 Ry

   izeta = 1
                 lambda =    1.000000
                     rc =    6.518340
                 energy =   -0.475305
                kinetic =    0.912139
    potential(screened) =   -1.387444
       potential(ionic) =   -1.907295

   izeta = 2
                 rmatch =    2.141150
              splitnorm =    0.620000
                 energy =    0.566467
                kinetic =    3.772856
    potential(screened) =   -3.206389
       potential(ionic) =   -3.759093

POLgen: Perturbative polarization orbital with L=  1

POLgen: Polarization orbital for state 1s

   izeta = 1
                     rc =    6.518340
                 energy =    0.533861
                kinetic =    1.121086
    potential(screened) =   -0.587225
       potential(ionic) =   -1.053027
atom: Total number of Sankey-type orbitals:  5

atm_pop: Valence configuration (for local Pseudopot. screening):
 1s( 1.00)                                                            
Vna: chval, zval:    1.00000   1.00000

Vna:  Cut-off radius for the neutral-atom potential:   6.518340

atom: _________________________________________________________________________

<basis_specs>
===============================================================================
N                    Z=   7    Mass=  14.010        Charge= 0.17977+309
Lmxo=1 Lmxkb= 3    BasisType=split      Semic=F
L=0  Nsemic=0  Cnfigmx=2
          i=1  nzeta=2  polorb=0  (2s)
            splnorm:   0.28000    
               vcte:    0.0000    
               rinn:    0.0000    
               qcoe:    0.0000    
               qyuk:    0.0000    
               qwid:   0.10000E-01
                rcs:    0.0000      0.0000    
            lambdas:    1.0000      1.0000    
L=1  Nsemic=0  Cnfigmx=2
          i=1  nzeta=2  polorb=1  (2p)
            splnorm:   0.28000    
               vcte:    0.0000    
               rinn:    0.0000    
               qcoe:    0.0000    
               qyuk:    0.0000    
               qwid:   0.10000E-01
                rcs:    0.0000      0.0000    
            lambdas:    1.0000      1.0000    
-------------------------------------------------------------------------------
L=0  Nkbl=1  erefs: 0.17977+309
L=1  Nkbl=1  erefs: 0.17977+309
L=2  Nkbl=1  erefs: 0.17977+309
L=3  Nkbl=1  erefs: 0.17977+309
===============================================================================
</basis_specs>

atom: Called for N                     (Z =   7)

read_vps: Pseudopotential generation method:
read_vps: ATM4.2.7  Troullier-Martins                       
Valence charge for ps generation:    5.00000

xc_check: Exchange-correlation functional:
xc_check: GGA Perdew, Burke & Ernzerhof 1996
V l=0 = -2*Zval/r beyond r=  1.2889
V l=1 = -2*Zval/r beyond r=  1.2889
V l=2 = -2*Zval/r beyond r=  3.4178
V l=3 = -2*Zval/r beyond r=  2.4084
All V_l potentials equal beyond r=  3.3753
This should be close to max(r_c) in ps generation
All pots = -2*Zval/r beyond r=  3.4178

VLOCAL1: 99.0% of the norm of Vloc inside      3.810 Ry
VLOCAL1: 99.9% of the norm of Vloc inside      8.683 Ry
atom: Maximum radius for 4*pi*r*r*local-pseudopot. charge    4.02088
atom: Maximum radius for r*vlocal+2*Zval:    3.54838
GHOST: No ghost state for L =  0
GHOST: No ghost state for L =  1
GHOST: No ghost state for L =  2
GHOST: No ghost state for L =  3

KBgen: Kleinman-Bylander projectors: 
   l= 0   rc=  3.417763   el= -1.365098   Ekb= -4.433130   kbcos= -0.707855
   l= 1   rc=  3.375302   el= -0.521201   Ekb=-13.264039   kbcos= -0.535594
   l= 2   rc=  3.872880   el=  0.001991   Ekb= -0.641094   kbcos= -0.062456
   l= 3   rc=  3.970931   el=  0.003093   Ekb= -0.474517   kbcos= -0.018236

KBgen: Total number of Kleinman-Bylander projectors:   16
atom: -------------------------------------------------------------------------

atom: SANKEY-TYPE ORBITALS:
atom: Selected multiple-zeta basis: split     

SPLIT: Orbitals with angular momentum L= 0

SPLIT: Basis orbitals for state 2s

SPLIT: PAO cut-off radius determined from an
SPLIT: energy shift=  0.002000 Ry

   izeta = 1
                 lambda =    1.000000
                     rc =    4.730425
                 energy =   -1.363399
                kinetic =    1.245246
    potential(screened) =   -2.608645
       potential(ionic) =   -8.121105

   izeta = 2
                 rmatch =    2.531849
              splitnorm =    0.280000
                 energy =   -0.959908
                kinetic =    2.409435
    potential(screened) =   -3.369343
       potential(ionic) =   -9.427975

SPLIT: Orbitals with angular momentum L= 1

SPLIT: Basis orbitals for state 2p

SPLIT: PAO cut-off radius determined from an
SPLIT: energy shift=  0.002000 Ry

   izeta = 1
                 lambda =    1.000000
                     rc =    5.924108
                 energy =   -0.519262
                kinetic =    3.672940
    potential(screened) =   -4.192202
       potential(ionic) =   -9.518354

   izeta = 2
                 rmatch =    2.531849
              splitnorm =    0.280000
                 energy =   -0.104258
                kinetic =    6.807538
    potential(screened) =   -6.911796
       potential(ionic) =  -13.149920

POLgen: Perturbative polarization orbital with L=  2

POLgen: Polarization orbital for state 2p

   izeta = 1
                     rc =    5.924108
                 energy =    1.427508
                kinetic =    2.872379
    potential(screened) =   -1.444871
       potential(ionic) =   -5.563644
atom: Total number of Sankey-type orbitals: 13

atm_pop: Valence configuration (for local Pseudopot. screening):
 2s( 2.00)                                                            
 2p( 3.00)                                                            
Vna: chval, zval:    5.00000   5.00000

Vna:  Cut-off radius for the neutral-atom potential:   5.924108

atom: _________________________________________________________________________

<basis_specs>
===============================================================================
Si                   Z=  14    Mass=  28.090        Charge= 0.17977+309
Lmxo=1 Lmxkb= 3    BasisType=split      Semic=F
L=0  Nsemic=0  Cnfigmx=3
          i=1  nzeta=2  polorb=0  (3s)
            splnorm:   0.28000    
               vcte:    0.0000    
               rinn:    0.0000    
               qcoe:    0.0000    
               qyuk:    0.0000    
               qwid:   0.10000E-01
                rcs:    0.0000      0.0000    
            lambdas:    1.0000      1.0000    
L=1  Nsemic=0  Cnfigmx=3
          i=1  nzeta=2  polorb=1  (3p)
            splnorm:   0.28000    
               vcte:    0.0000    
               rinn:    0.0000    
               qcoe:    0.0000    
               qyuk:    0.0000    
               qwid:   0.10000E-01
                rcs:    0.0000      0.0000    
            lambdas:    1.0000      1.0000    
-------------------------------------------------------------------------------
L=0  Nkbl=1  erefs: 0.17977+309
L=1  Nkbl=1  erefs: 0.17977+309
L=2  Nkbl=1  erefs: 0.17977+309
L=3  Nkbl=1  erefs: 0.17977+309
===============================================================================
</basis_specs>

atom: Called for Si                    (Z =  14)

read_vps: Pseudopotential generation method:
read_vps: ATM4.2.7  Troullier-Martins                       
Valence charge for ps generation:    4.00000

xc_check: Exchange-correlation functional:
xc_check: GGA Perdew, Burke & Ernzerhof 1996
V l=0 = -2*Zval/r beyond r=  2.7826
V l=1 = -2*Zval/r beyond r=  2.7826
V l=2 = -2*Zval/r beyond r=  2.9253
V l=3 = -2*Zval/r beyond r=  2.7826
All V_l potentials equal beyond r=  2.8530
This should be close to max(r_c) in ps generation
All pots = -2*Zval/r beyond r=  2.9253

VLOCAL1: 99.0% of the norm of Vloc inside      5.333 Ry
VLOCAL1: 99.9% of the norm of Vloc inside     12.154 Ry
atom: Maximum radius for 4*pi*r*r*local-pseudopot. charge    3.39869
atom: Maximum radius for r*vlocal+2*Zval:    2.96205
GHOST: No ghost state for L =  0
GHOST: No ghost state for L =  1
GHOST: No ghost state for L =  2
GHOST: No ghost state for L =  3

KBgen: Kleinman-Bylander projectors: 
   l= 0   rc=  3.075247   el= -0.794092   Ekb=  5.879390   kbcos=  0.167461
   l= 1   rc=  3.153101   el= -0.300068   Ekb=  2.642817   kbcos=  0.058301
   l= 2   rc=  3.273594   el=  0.001958   Ekb= -1.185135   kbcos= -0.104411
   l= 3   rc=  3.232927   el=  0.003046   Ekb= -0.497174   kbcos= -0.015889

KBgen: Total number of Kleinman-Bylander projectors:   16
atom: -------------------------------------------------------------------------

atom: SANKEY-TYPE ORBITALS:
atom: Selected multiple-zeta basis: split     

SPLIT: Orbitals with angular momentum L= 0

SPLIT: Basis orbitals for state 3s

SPLIT: PAO cut-off radius determined from an
SPLIT: energy shift=  0.002000 Ry

   izeta = 1
                 lambda =    1.000000
                     rc =    6.429618
                 energy =   -0.792283
                kinetic =    0.525293
    potential(screened) =   -1.317576
       potential(ionic) =   -3.744923

   izeta = 2
                 rmatch =    3.998416
              splitnorm =    0.280000
                 energy =   -0.583081
                kinetic =    1.069570
    potential(screened) =   -1.652651
       potential(ionic) =   -4.235185

SPLIT: Orbitals with angular momentum L= 1

SPLIT: Basis orbitals for state 3p

SPLIT: PAO cut-off radius determined from an
SPLIT: energy shift=  0.002000 Ry

   izeta = 1
                 lambda =    1.000000
                     rc =    8.464845
                 energy =   -0.298236
                kinetic =    0.785360
    potential(screened) =   -1.083596
       potential(ionic) =   -3.273779

   izeta = 2
                 rmatch =    4.587816
              splitnorm =    0.280000
                 energy =   -0.131871
                kinetic =    1.403687
    potential(screened) =   -1.535557
       potential(ionic) =   -4.015310

POLgen: Perturbative polarization orbital with L=  2

POLgen: Polarization orbital for state 3p

   izeta = 1
                     rc =    8.464845
                 energy =    0.321949
                kinetic =    1.055677
    potential(screened) =   -0.733728
       potential(ionic) =   -2.672950
atom: Total number of Sankey-type orbitals: 13

atm_pop: Valence configuration (for local Pseudopot. screening):
 3s( 2.00)                                                            
 3p( 2.00)                                                            
Vna: chval, zval:    4.00000   4.00000

Vna:  Cut-off radius for the neutral-atom potential:   8.464845

atom: _________________________________________________________________________

<basis_specs>
===============================================================================
O                    Z=   8    Mass=  16.000        Charge= 0.17977+309
Lmxo=1 Lmxkb= 3    BasisType=split      Semic=F
L=0  Nsemic=0  Cnfigmx=2
          i=1  nzeta=2  polorb=0  (2s)
            splnorm:   0.28000    
               vcte:    0.0000    
               rinn:    0.0000    
               qcoe:    0.0000    
               qyuk:    0.0000    
               qwid:   0.10000E-01
                rcs:    0.0000      0.0000    
            lambdas:    1.0000      1.0000    
L=1  Nsemic=0  Cnfigmx=2
          i=1  nzeta=2  polorb=1  (2p)
            splnorm:   0.28000    
               vcte:    0.0000    
               rinn:    0.0000    
               qcoe:    0.0000    
               qyuk:    0.0000    
               qwid:   0.10000E-01
                rcs:    0.0000      0.0000    
            lambdas:    1.0000      1.0000    
-------------------------------------------------------------------------------
L=0  Nkbl=1  erefs: 0.17977+309
L=1  Nkbl=1  erefs: 0.17977+309
L=2  Nkbl=1  erefs: 0.17977+309
L=3  Nkbl=1  erefs: 0.17977+309
===============================================================================
</basis_specs>

atom: Called for O                     (Z =   8)

read_vps: Pseudopotential generation method:
read_vps: ATM4.2.7  Troullier-Martins                       
Valence charge for ps generation:    6.00000

xc_check: Exchange-correlation functional:
xc_check: GGA Perdew, Burke & Ernzerhof 1996
V l=0 = -2*Zval/r beyond r=  1.1000
V l=1 = -2*Zval/r beyond r=  1.1000
V l=2 = -2*Zval/r beyond r=  2.2154
V l=3 = -2*Zval/r beyond r=  1.1000
All V_l potentials equal beyond r=  2.2154
This should be close to max(r_c) in ps generation
All pots = -2*Zval/r beyond r=  2.2154

VLOCAL1: 99.0% of the norm of Vloc inside      8.845 Ry
VLOCAL1: 99.9% of the norm of Vloc inside     20.157 Ry
atom: Maximum radius for 4*pi*r*r*local-pseudopot. charge    2.67231
atom: Maximum radius for r*vlocal+2*Zval:    2.32897
GHOST: No ghost state for L =  0
GHOST: No ghost state for L =  1
GHOST: No ghost state for L =  2
GHOST: No ghost state for L =  3

KBgen: Kleinman-Bylander projectors: 
   l= 0   rc=  2.243238   el= -1.759686   Ekb=**********   kbcos= -0.171774
   l= 1   rc=  2.328968   el= -0.663873   Ekb=-14.506792   kbcos= -0.519897
   l= 2   rc=  2.573941   el=  0.002031   Ekb= -1.137373   kbcos= -0.019581
   l= 3   rc=  2.606321   el=  0.003153   Ekb= -1.013546   kbcos= -0.003122

KBgen: Total number of Kleinman-Bylander projectors:   16
atom: -------------------------------------------------------------------------

atom: SANKEY-TYPE ORBITALS:
atom: Selected multiple-zeta basis: split     

SPLIT: Orbitals with angular momentum L= 0

SPLIT: Basis orbitals for state 2s

SPLIT: PAO cut-off radius determined from an
SPLIT: energy shift=  0.002000 Ry

   izeta = 1
                 lambda =    1.000000
                     rc =    4.243912
                 energy =   -1.758270
                kinetic =    3.286084
    potential(screened) =   -5.044353
       potential(ionic) =  -12.921184

   izeta = 2
                 rmatch =    2.187845
              splitnorm =    0.280000
                 energy =   -0.885018
                kinetic =    8.134434
    potential(screened) =   -9.019452
       potential(ionic) =  -17.710645

SPLIT: Orbitals with angular momentum L= 1

SPLIT: Basis orbitals for state 2p

SPLIT: PAO cut-off radius determined from an
SPLIT: energy shift=  0.002000 Ry

   izeta = 1
                 lambda =    1.000000
                     rc =    5.314825
                 energy =   -0.661986
                kinetic =    4.917472
    potential(screened) =   -5.579458
       potential(ionic) =  -13.236259

   izeta = 2
                 rmatch =    2.160663
              splitnorm =    0.280000
                 energy =   -0.068760
                kinetic =    9.183374
    potential(screened) =   -9.252135
       potential(ionic) =  -18.274251

POLgen: Perturbative polarization orbital with L=  2

POLgen: Polarization orbital for state 2p

   izeta = 1
                     rc =    5.314825
                 energy =    1.970580
                kinetic =    3.886128
    potential(screened) =   -1.915547
       potential(ionic) =   -7.749584
atom: Total number of Sankey-type orbitals: 13

atm_pop: Valence configuration (for local Pseudopot. screening):
 2s( 2.00)                                                            
 2p( 4.00)                                                            
Vna: chval, zval:    6.00000   6.00000

Vna:  Cut-off radius for the neutral-atom potential:   5.314825

atom: _________________________________________________________________________

prinput: Basis input ----------------------------------------------------------

PAO.BasisType split     

%block ChemicalSpeciesLabel
    1    1 H                       # Species index, atomic number, species label
    2    7 N                       # Species index, atomic number, species label
    3   14 Si                      # Species index, atomic number, species label
    4    8 O                       # Species index, atomic number, species label
%endblock ChemicalSpeciesLabel

%block PAO.Basis                 # Define Basis set
H                     1                    # Species label, number of l-shells
 n=1   0   2 P   1                   # n, l, Nzeta, Polarization, NzetaPol
   6.518      2.141   
   1.000      1.000   
N                     2                    # Species label, number of l-shells
 n=2   0   2                         # n, l, Nzeta 
   4.730      2.532   
   1.000      1.000   
 n=2   1   2 P   1                   # n, l, Nzeta, Polarization, NzetaPol
   5.924      2.532   
   1.000      1.000   
Si                    2                    # Species label, number of l-shells
 n=3   0   2                         # n, l, Nzeta 
   6.430      3.998   
   1.000      1.000   
 n=3   1   2 P   1                   # n, l, Nzeta, Polarization, NzetaPol
   8.465      4.588   
   1.000      1.000   
O                     2                    # Species label, number of l-shells
 n=2   0   2                         # n, l, Nzeta 
   4.244      2.188   
   1.000      1.000   
 n=2   1   2 P   1                   # n, l, Nzeta, Polarization, NzetaPol
   5.315      2.161   
   1.000      1.000   
%endblock PAO.Basis

prinput: ----------------------------------------------------------------------

Dumping basis to NetCDF file H.ion.nc
Dumping basis to NetCDF file N.ion.nc
Dumping basis to NetCDF file Si.ion.nc
Dumping basis to NetCDF file O.ion.nc
coor:   Atomic-coordinates input format  =     Cartesian coordinates
coor:                                          (in Angstroms)

siesta: Atomic coordinates (Bohr) and species
siesta:      2.91817   5.36440  -0.00000  1        1
siesta:      1.58310   3.87145  -0.00000  2        2
siesta:     -1.68667   4.70551   0.00000  3        3
siesta:     -1.98105   7.52119   0.00000  1        4
siesta:     -4.56533   1.75960  -0.00000  3        5
siesta:     -7.36815   2.21848  -0.00000  1        6
siesta:     -2.30070  -1.85597  -0.00000  3        7
siesta:     -3.74828  -4.75239  -0.00000  2        8
siesta:     -2.63287  -6.56126   0.00000  1        9
siesta:     -5.73556  -4.90444  -0.00000  1       10
siesta:      0.94245  -1.75171   0.00000  2       11
siesta:      2.97395   0.76227  -0.00000  3       12
siesta:      6.01390   0.72672  -0.00000  4       13
siesta:     10.61355 -14.07759   0.00000  1       14
siesta:      8.65886 -13.66658   0.00000  2       15
siesta:      6.22979 -16.04876   0.00000  3       16
siesta:      7.18318 -18.71532  -0.00000  1       17
siesta:      3.13570 -15.14356   0.00000  2       18
siesta:      3.17659 -11.72506  -0.00000  3       19
siesta:      1.03072  -8.10005   0.00000  3       20
siesta:     -1.95457  -7.45403   0.00000  4       21
siesta:      3.27352  -5.43711   0.00000  2       22
siesta:      2.28576  -3.64645  -0.00000  1       23
siesta:      6.63017  -5.24735   0.00000  3       24
siesta:      7.81751  -2.22872   0.00000  2       25
siesta:      6.69523  -0.49602   0.00000  1       26
siesta:      9.79567  -1.98858  -0.00000  1       27
siesta:      8.75489  -7.70105  -0.00000  2       28
siesta:      7.16982 -10.55666   0.00000  3       29

siesta: System type = molecule  

initatomlists: Number of atoms, orbitals, and projectors:     29   297   394

siesta: ******************** Simulation parameters ****************************
siesta:
siesta: The following are some of the parameters of the simulation.
siesta: A complete list of the parameters used, including default values,
siesta: can be found in file out.fdf
siesta:
redata: Spin configuration                          = spin-orbit
redata: Number of spin components                   = 8
redata: Time-Reversal Symmetry                      = F
redata: Spin spiral                                 = F
############################################################
This spin-orbit implementation uses a local approximation.
From 4.2 and onwards the full non-local approximation is implemented
You are strongly advised to use >=4.2 versions!
############################################################
redata: Long output                                 =   F
redata: Number of Atomic Species                    =        4
redata: Charge density info will appear in .RHO file
redata: Write Mulliken Pop.                         = NO
redata: Matel table size (NRTAB)                    =     1024
redata: Mesh Cutoff                                 =   340.0000 Ry
redata: Net charge of the system                    =     0.0000 |e|
redata: Min. number of SCF Iter                     =        1
redata: Max. number of SCF Iter                     =      200
redata: SCF mix quantity                            = Hamiltonian
redata: Mix DM or H after convergence               =   F
redata: Recompute H after scf cycle                 =   F
redata: Mix DM in first SCF step                    =   T
redata: Write Pulay info on disk                    =   F
redata: New DM Occupancy tolerance                  = 0.000000000001
redata: No kicks to SCF
redata: DM Mixing Weight for Kicks                  =     0.5000
redata: Require Harris convergence for SCF          =   F
redata: Harris energy tolerance for SCF             =     0.000100 eV
redata: Require DM convergence for SCF              =   T
redata: DM tolerance for SCF                        =     0.000008
redata: Require EDM convergence for SCF             =   F
redata: EDM tolerance for SCF                       =     0.001000 eV
redata: Require H convergence for SCF               =   T
redata: Hamiltonian tolerance for SCF               =     0.000001 eV
redata: Require (free) Energy convergence for SCF   =   F
redata: (free) Energy tolerance for SCF             =     0.000100 eV
redata: Using Saved Data (generic)                  =   F
redata: Use continuation files for DM               =   T
redata: Neglect nonoverlap interactions             =   F
redata: Method of Calculation                       = Diagonalization
redata: Electronic Temperature                      =   299.9978 K
redata: Fix the spin of the system                  =   F
redata: Dynamics option                             = Verlet MD run
redata: Initial MD time step                        =        1
redata:   Final MD time step                        =        1
redata: Length of MD time step                      =     0.5000 fs
redata: Initial Temperature of MD run               =     0.0000 K
redata: Perform a MD quench                         =   F
mix.SCF: Pulay mixing                            = Pulay
mix.SCF:    Variant                              = stable
mix.SCF:    History steps                        = 6
mix.SCF:    Linear mixing weight                 =     0.250000
mix.SCF:    Mixing weight                        =     0.250000
mix.SCF:    SVD condition                        = 0.1000E-07
mix.SCF:    Restart steps                        = 24
mix.SCF:    Restart save steps                   = 3
mix.SCF: Spin-component mixing                   all
redata: Save all siesta data in one NC              =   F
redata: ***********************************************************************

%block SCF.Mixers
  Pulay
%endblock SCF.Mixers

%block SCF.Mixer.Pulay
  # Mixing method
  method pulay
  variant stable

  # Mixing options
  weight 0.2500
  weight.linear 0.2500
  history 6
  restart 24
  restart.save 3
%endblock SCF.Mixer.Pulay

Size of DM history Fstack: 3
Total number of electrons:    98.000000
Total ionic charge:    98.000000

* ProcessorY, Blocksize:    2  24


* Orbital distribution balance (max,min):    48    24


Time-reversal symmetry not used.

siesta: k-grid: Number of k-points =     1
siesta: k-grid: Cutoff (effective) =     5.000 Ang
siesta: k-grid: Supercell and displacements
siesta: k-grid:    1   0   0      0.000
siesta: k-grid:    0   1   0      0.000
siesta: k-grid:    0   0   1      0.000

diag: Algorithm                                     = ELPA-1stage
diag: Parallel over k                               =   F
diag: Use parallel 2D distribution                  =   T
diag: Parallel block-size                           = 24
diag: Parallel distribution                         =     2 x     4
diag: Used triangular part                          = Lower
diag: Absolute tolerance                            =  0.100E-15
diag: Orthogonalization factor                      =  0.100E-05
diag: Memory factor                                 =  1.0000


ts: **************************************************************
ts: Save H and S matrices                           =    F
ts: Save DM and EDM matrices                        =    F
ts: Only save the overlap matrix S                  =    F
ts: **************************************************************

************************ Begin: TS CHECKS AND WARNINGS ************************
************************ End: TS CHECKS AND WARNINGS **************************


                     ====================================
                        Begin MD step =      1
                     ====================================

outcoor: Atomic coordinates (Ang):                          
    1.54422681    2.83871864    0.00000000   1       1  H
    0.83774008    2.04868246    0.00000000   2       2  N
   -0.89254683    2.49004637    0.00000000   3       3  Si
   -1.04832651    3.98003863    0.00000000   1       4  H
   -2.41586845    0.93113885    0.00000000   3       5  Si
   -3.89905608    1.17396921    0.00000000   1       6  H
   -1.21747759   -0.98213731    0.00000000   3       7  Si
   -1.98350305   -2.51485405    0.00000000   2       8  N
   -1.39325650   -3.47206708    0.00000000   1       9  H
   -3.03512537   -2.59531428    0.00000000   1      10  H
    0.49872247   -0.92696300    0.00000000   2      11  N
    1.57374509    0.40337584    0.00000000   3      12  Si
    3.18241841    0.38456558    0.00000000   4      13  O
    5.61644830   -7.44953905    0.00000000   1      14  H
    4.58206954   -7.23203760    0.00000000   2      15  N
    3.29666389   -8.49263600    0.00000000   3      16  Si
    3.80117524   -9.90371886    0.00000000   1      17  H
    1.65934232   -8.01362137    0.00000000   2      18  N
    1.68097912   -6.20463398    0.00000000   3      19  Si
    0.54543521   -4.28636135    0.00000000   3      20  Si
   -1.03431493   -3.94450034    0.00000000   4      21  O
    1.73226934   -2.87719605    0.00000000   2      22  N
    1.20957366   -1.92961761    0.00000000   1      23  H
    3.50853448   -2.77677601    0.00000000   3      24  Si
    4.13684451   -1.17938608    0.00000000   2      25  N
    3.54296161   -0.26248101    0.00000000   1      26  H
    5.18364407   -1.05231197    0.00000000   1      27  H
    4.63288658   -4.07521596    0.00000000   2      28  N
    3.79410501   -5.58634043    0.00000000   3      29  Si

outcell: Unit cell vectors (Ang):
       30.000000    0.000000    0.000000
        0.000000   45.000000    0.000000
        0.000000    0.000000   10.000000

outcell: Cell vector modules (Ang)   :   30.000000   45.000000   10.000000
outcell: Cell angles (23,13,12) (deg):     90.0000     90.0000     90.0000
outcell: Cell volume (Ang**3)        :  13500.0000
<dSpData1D:S at geom step 1
  <sparsity:sparsity for geom step 1
    nrows_g=297 nrows=48 sparsity=.1455 nnzs=12832, refcount: 8>
  <dData1D:(new from dSpData1D) n=12832, refcount: 1>
refcount: 1>
new_DM -- step:     1
Initializing Density Matrix...

Attempting to read DM from file... Failed...
DM filled with atomic data:
<dSpData2D:DM initialized from atoms
  <sparsity:sparsity for geom step 1
    nrows_g=297 nrows=48 sparsity=.1455 nnzs=12832, refcount: 9>
  <dData2D:DM n=12832 m=8, refcount: 1>
refcount: 1>
     spin moment: S , {S} =   56.00000   0.00000   0.00000  56.00000
No. of atoms with KB's overlaping orbs in proc 0. Max # of overlaps:      27     232

Initializing spin-orbit part of the Hamiltonian
  Adding spin-orbit effects for H 
  Adding spin-orbit effects for N 
  Adding spin-orbit effects for Si
  Adding spin-orbit effects for O 


New grid distribution:   1
           1       1:  180    1:  125    1:   15
           2       1:  180    1:  125   16:   30
           3       1:  180    1:  125   31:   45
           4       1:  180    1:  125   46:   60
           5       1:  180  126:  250    1:   15
           6       1:  180  126:  250   16:   30
           7       1:  180  126:  250   31:   45
           8       1:  180  126:  250   46:   60

InitMesh: MESH =   360 x   500 x   120 =    21600000
InitMesh: (bp) =   180 x   250 x    60 =     2700000
InitMesh: Mesh cutoff (required, used) =   340.000   341.206 Ry
ExtMesh (bp) on 0 =   288 x   225 x   123 =     7970400
New grid distribution:   2
           1      22:  180    1:  189    1:   60
           2       1:   21    1:  199    1:   60
           3       1:   21  200:  224    1:   60
           4       1:   21  239:  250    1:   60
           5      22:  180  190:  224    1:   60
           6      22:  180  225:  238    1:   60
           7      22:  180  239:  250    1:   60
           8       1:   21  225:  238    1:   60
New grid distribution:   3
           1      34:  180   19:  206    1:   60
           2      34:  180    1:   18    1:   60
           3       1:   33    1:   31    1:   60
           4       1:   35  229:  250    1:   60
           5       1:   33   32:  206    1:   60
           6      36:  180  207:  232    1:   60
           7      36:  180  233:  250    1:   60
           8       1:   35  207:  228    1:   60
Setting up quadratic distribution...
ExtMesh (bp) on 0 =   267 x   289 x   168 =    12963384
PhiOnMesh: Number of (b)points on node 0 =              1803060
PhiOnMesh: nlist on node 0 =              1791635

stepf: Fermi-Dirac step function

siesta: Program's energy decomposition (eV):
siesta: Ebs     =      -514.479166
siesta: Eions   =      3585.165840
siesta: Ena     =       435.058853
siesta: Ekin    =      3512.355258
siesta: Enl     =     -3450.753782
siesta: Eso     =        -0.003480
siesta: Edftu   =         0.000000
siesta: DEna    =       158.496401
siesta: DUscf   =        96.767771
siesta: DUext   =         0.000000
siesta: Exc     =     -1232.292332
siesta: eta*DQ  =         0.000000
siesta: Emadel  =         0.000000
siesta: Emeta   =         0.000000
siesta: Emolmec =         0.000000
siesta: Ekinion =         0.000000
siesta: Eharris =     -3938.341811
siesta: Etot    =     -4065.537151
siesta: FreeEng =     -4065.539018

        iscf     Eharris(eV)        E_KS(eV)     FreeEng(eV)     dDmax    Ef(eV) dHmax(eV)
   scf:    1    -3938.341811    -4065.537151    -4065.539018  0.942853 -4.936974 27.005684
     spin moment: S , {S} =    2.01127  -0.00000  -0.00000   2.01127
timer: Routine,Calls,Time,% = IterSCF        1      17.084  25.32
   scf:    2    -4109.335382    -4107.290510    -4107.324242  0.484357 -3.922619 13.918060
     spin moment: S , {S} =    3.99080  -0.00000  -0.00000   3.99080
   scf:    3    -4109.259467    -4114.143053    -4114.149173  0.463934 -3.772454 12.488475
     spin moment: S , {S} =    0.05080   0.00000   0.00000   0.05080
   scf:    4    -4120.353218    -4117.939003    -4117.939664  0.102888 -3.493289  5.404884
     spin moment: S , {S} =    0.00359   0.00000   0.00000   0.00359
   scf:    5    -4119.228464    -4118.803286    -4118.803325  0.065252 -3.404772  3.344408
     spin moment: S , {S} =    0.00020   0.00000   0.00000   0.00020
   scf:    6    -4119.447929    -4119.122111    -4119.122111  0.028900 -3.450597  1.208343
     spin moment: S , {S} =    0.00002   0.00000  -0.00000   0.00002
   scf:    7    -4119.291608    -4119.207867    -4119.207867  0.013189 -3.513569  0.547796
     spin moment: S , {S} =    0.00001   0.00000  -0.00000   0.00001
   scf:    8    -4119.319760    -4119.261210    -4119.261210  0.012523 -3.585980  0.199308
     spin moment: S , {S} =    0.00000  -0.00000  -0.00000   0.00000
   scf:    9    -4119.285166    -4119.272817    -4119.272817  0.004929 -3.591025  0.116962
     spin moment: S , {S} =    0.00000  -0.00000  -0.00000   0.00000
   scf:   10    -4119.294468    -4119.282974    -4119.282974  0.006029 -3.593122  0.079933
     spin moment: S , {S} =    0.00000   0.00000  -0.00000   0.00000
   scf:   11    -4119.299560    -4119.290217    -4119.290217  0.008159 -3.594542  0.053069
     spin moment: S , {S} =    0.00000  -0.00000  -0.00000   0.00000
   scf:   12    -4119.294516    -4119.292043    -4119.292043  0.005386 -3.592509  0.026610
     spin moment: S , {S} =    0.00000  -0.00000  -0.00000   0.00000
   scf:   13    -4119.292901    -4119.292419    -4119.292419  0.002768 -3.590517  0.019275
     spin moment: S , {S} =    0.00000  -0.00000  -0.00000   0.00000
   scf:   14    -4119.292677    -4119.292534    -4119.292534  0.001564 -3.588668  0.013620
     spin moment: S , {S} =    0.00000   0.00000  -0.00000   0.00000
   scf:   15    -4119.292659    -4119.292589    -4119.292589  0.001203 -3.589545  0.008728
     spin moment: S , {S} =    0.00000   0.00000   0.00000   0.00000
   scf:   16    -4119.292650    -4119.292616    -4119.292616  0.000879 -3.589604  0.005325
     spin moment: S , {S} =    0.00000   0.00000   0.00000   0.00000
   scf:   17    -4119.292641    -4119.292627    -4119.292627  0.000591 -3.589977  0.003092
     spin moment: S , {S} =    0.00000   0.00000   0.00000  -0.00000
   scf:   18    -4119.292640    -4119.292632    -4119.292632  0.000491 -3.590273  0.001470
     spin moment: S , {S} =    0.00000   0.00000   0.00000  -0.00000
   scf:   19    -4119.292637    -4119.292634    -4119.292634  0.000261 -3.590195  0.000971
     spin moment: S , {S} =    0.00000   0.00000   0.00000  -0.00000
   scf:   20    -4119.292636    -4119.292635    -4119.292635  0.000150 -3.590039  0.000660
     spin moment: S , {S} =    0.00000   0.00000   0.00000  -0.00000
   scf:   21    -4119.292635    -4119.292635    -4119.292635  0.000062 -3.590000  0.000449
     spin moment: S , {S} =    0.00000   0.00000   0.00000  -0.00000
   scf:   22    -4119.292635    -4119.292635    -4119.292635  0.000036 -3.589957  0.000303
     spin moment: S , {S} =    0.00000   0.00000   0.00000  -0.00000
   scf:   23    -4119.292635    -4119.292635    -4119.292635  0.000020 -3.589998  0.000206
     spin moment: S , {S} =    0.00000   0.00000  -0.00000  -0.00000
   scf:   24    -4119.292635    -4119.292635    -4119.292635  0.000014 -3.590012  0.000125
     spin moment: S , {S} =    0.00000   0.00000  -0.00000  -0.00000
mix: Pulay -- resetting history
   scf:   25    -4119.292635    -4119.292635    -4119.292635  0.000013 -3.590019  0.000079
     spin moment: S , {S} =    0.00000   0.00000  -0.00000  -0.00000
   scf:   26    -4119.292635    -4119.292635    -4119.292635  0.000011 -3.590011  0.000040
     spin moment: S , {S} =    0.00000   0.00000   0.00000  -0.00000
   scf:   27    -4119.292635    -4119.292635    -4119.292635  0.000006 -3.590008  0.000012
     spin moment: S , {S} =    0.00000   0.00000   0.00000  -0.00000
   scf:   28    -4119.292635    -4119.292635    -4119.292635  0.000001 -3.590008  0.000006
     spin moment: S , {S} =    0.00000   0.00000   0.00000  -0.00000
   scf:   29    -4119.292635    -4119.292635    -4119.292635  0.000001 -3.590007  0.000004
     spin moment: S , {S} =    0.00000   0.00000   0.00000  -0.00000
   scf:   30    -4119.292635    -4119.292635    -4119.292635  0.000001 -3.590006  0.000003
     spin moment: S , {S} =    0.00000   0.00000   0.00000  -0.00000
   scf:   31    -4119.292635    -4119.292635    -4119.292635  0.000000 -3.590006  0.000002
     spin moment: S , {S} =    0.00000   0.00000   0.00000   0.00000
   scf:   32    -4119.292635    -4119.292635    -4119.292635  0.000000 -3.590006  0.000001
     spin moment: S , {S} =    0.00000   0.00000   0.00000   0.00000
   scf:   33    -4119.292635    -4119.292635    -4119.292635  0.000000 -3.590006  0.000001
     spin moment: S , {S} =    0.00000   0.00000   0.00000   0.00000

SCF Convergence by DM+H criterion
max |DM_out - DM_in|         :     0.0000001293
max |H_out - H_in|      (eV) :     0.0000009172
SCF cycle converged after 33 iterations

Using DM_out to compute the final energy and forces
No. of atoms with KB's overlaping orbs in proc 0. Max # of overlaps:      27     232

siesta: E_KS(eV) =            -4119.2926

siesta: E_KS - E_eggbox =     -4119.2926
     spin moment: S , {S} =    0.00000   0.00000   0.00000   0.00000

siesta: Atomic forces (eV/Ang):
     1    0.021029    0.019108   -0.000000
     2    0.747108   -0.542083   -0.000000
     3   -0.840437    0.188471    0.000000
     4    0.163838    0.209275    0.000000
     5    0.499603    0.269974   -0.000000
     6   -0.043916   -0.029822   -0.000000
     7   -2.794090   -0.453277   -0.000000
     8  -11.161712   19.347595   -0.000000
     9  -54.474044   71.337325    0.000000
    10   -0.339754    0.682112    0.000000
    11   -1.367111    4.635386    0.000000
    12   -2.469733    1.707573    0.000000
    13  -25.414819   37.369480   -0.000000
    14   -0.024371    0.039204   -0.000000
    15   -0.155864   -0.136411   -0.000000
    16   -0.018153    0.038209    0.000000
    17   -0.018717    0.020494    0.000000
    18   -0.036323   -0.054259    0.000000
    19   -0.515572   -0.057138    0.000000
    20    2.963913   -0.657196   -0.000000
    21   66.887677  -94.221844   -0.000000
    22    1.998327   -5.150244    0.000000
    23   -0.151961   -0.160039   -0.000000
    24    1.023768    0.593420    0.000000
    25    8.512158  -14.985333   -0.000000
    26   14.200328  -25.927856    0.000000
    27    0.189680   -0.676335   -0.000000
    28    0.124732   -1.297316   -0.000000
    29    0.524843    0.541313   -0.000000
----------------------------------------
   Tot   -1.969572   -7.350212   -0.000000
----------------------------------------
   Max   94.221844
   Res   17.021824    sqrt( Sum f_i^2 / 3N )
----------------------------------------
   Max   94.221844    constrained

Stress tensor Voigt[x,y,z,yz,xz,xy] (kbar):       -6.18      -13.75       -0.03       -0.00        0.00        9.65
(Free)E + p*V (eV/cell)    -4063.2325
Target enthalpy (eV/cell)    -4119.2926

siesta: Stress tensor (static) (eV/Ang**3):
        -0.003855    0.006025   -0.000000
         0.006025   -0.008581    0.000000
         0.000000   -0.000000   -0.000021

siesta: Pressure (static):          6.65327633  kBar

siesta: Stress tensor (total) (eV/Ang**3):
        -0.003855    0.006025   -0.000000
         0.006025   -0.008581    0.000000
         0.000000   -0.000000   -0.000021

siesta: Pressure (total):          6.65327633  kBar

siesta: Temp_ion =       0.000 K

siesta: Eigenvalues (eV):
ik =     1
  -29.3878  -29.3878  -27.8531  -27.8531  -21.8722  -21.8722  -21.3975  -21.3975  -21.0279  -21.0279
  -19.9902  -19.9902  -19.5210  -19.5210  -19.2131  -19.2131  -18.9874  -18.9874  -18.8289  -18.8289
  -16.3990  -16.3990  -15.4647  -15.4647  -14.4574  -14.4574  -13.4953  -13.4953  -13.2866  -13.2866
  -12.9677  -12.9677  -12.8862  -12.8862  -12.4736  -12.4736  -12.0657  -12.0657  -11.9346  -11.9346
  -11.1257  -11.1257  -10.9185  -10.9185  -10.4859  -10.4859  -10.2524  -10.2524   -9.9703   -9.9703
   -9.8080   -9.8080   -9.7282   -9.7282   -9.3850   -9.3850   -9.3106   -9.3106   -8.9068   -8.9068
   -8.7361   -8.7361   -8.5811   -8.5811   -8.4091   -8.4091   -8.3973   -8.3973   -8.1409   -8.1409
   -7.9083   -7.9083   -7.8284   -7.8284   -7.2648   -7.2648   -7.2287   -7.2287   -6.5422   -6.5422
   -6.3109   -6.3109   -6.2028   -6.2028   -5.8602   -5.8602   -5.7587   -5.7587   -5.2409   -5.2409
   -5.1413   -5.1413   -4.8950   -4.8950   -4.7161   -4.7161   -4.1481   -4.1481   -3.0302   -3.0302
   -2.4192   -2.4192   -2.3448   -2.3448   -2.1920   -2.1920   -2.0495   -2.0495   -1.9990   -1.9990
   -1.7643   -1.7643   -1.4771   -1.4771   -1.3723   -1.3723   -1.0759   -1.0759   -0.8023   -0.8023
   -0.7718   -0.7718   -0.6192   -0.6192   -0.2402   -0.2402   -0.1239   -0.1239    0.5465    0.5465
    0.5767    0.5767    0.6703    0.6703    0.7401    0.7401    0.8157    0.8157    1.3089    1.3089
    1.5097    1.5097    1.5762    1.5762    1.6252    1.6252    1.7839    1.7839    2.2444    2.2444
    2.4653    2.4653    2.6781    2.6781    2.6862    2.6862    2.7691    2.7691    3.0556    3.0556
    3.1649    3.1649    3.4541    3.4541    3.5561    3.5561    3.7610    3.7610    3.8314    3.8314
    4.1948    4.1948    4.3060    4.3060    4.4306    4.4306    4.4716    4.4716    4.6979    4.6979
    4.7694    4.7694    4.9254    4.9254    5.0524    5.0524    5.3539    5.3539    5.5426    5.5426
    5.7579    5.7579    5.7639    5.7639    5.8271    5.8271    5.9348    5.9348    6.0758    6.0758
    6.1934    6.1934    6.5111    6.5111    6.5782    6.5782    6.8686    6.8686    6.9280    6.9280
    7.3318    7.3318    7.3538    7.3538    7.4215    7.4215    7.6433    7.6433    7.8634    7.8634
    7.9068    7.9068    7.9382    7.9382    8.1763    8.1763    8.3736    8.3736    8.6002    8.6002
    8.7571    8.7571    8.7702    8.7702    8.9031    8.9031    8.9304    8.9304    9.2978    9.2978
    9.4105    9.4105    9.4141    9.4141    9.8608    9.8608    9.9154    9.9154   10.2489   10.2489
   10.4588   10.4588   10.5465   10.5465   10.5631   10.5631   11.0039   11.0039   11.3115   11.3115
   11.3224   11.3224   11.4232   11.4232   11.6951   11.6951   11.7384   11.7384   12.1634   12.1634
   12.5483   12.5483   12.7598   12.7598   12.8971   12.8971   12.9305   12.9305   13.0625   13.0625
   13.1772   13.1772   13.6189   13.6189   13.7392   13.7392   14.2036   14.2036   14.2987   14.2987
   14.6079   14.6079   14.7704   14.7704   14.9416   14.9416   15.5261   15.5261   15.7267   15.7267
   16.0291   16.0291   16.4185   16.4185   16.7790   16.7790   16.9309   16.9309   17.3613   17.3613
   17.8426   17.8426   17.9217   17.9217   18.6621   18.6621   18.8632   18.8632   19.1019   19.1019
   19.3637   19.3637   19.8106   19.8106   19.8465   19.8465   20.1107   20.1107   20.6562   20.6562
   21.0829   21.0829   21.3424   21.3424   21.7745   21.7745   22.1304   22.1304   22.3479   22.3479
   22.7344   22.7344   23.4985   23.4985   23.8013   23.8013   24.4837   24.4837   24.9044   24.9044
   25.1521   25.1521   25.4847   25.4847   25.8443   25.8443   26.9948   26.9948   27.5895   27.5895
   27.9076   27.9076   28.9576   28.9576   29.5049   29.5049   29.7919   29.7919   29.9585   29.9585
   30.4381   30.4381   30.7197   30.7197   30.8531   30.8531   31.2098   31.2098   31.2314   31.2314
   31.6134   31.6134   32.0549   32.0549   32.3074   32.3074   32.8599   32.8599   33.4191   33.4191
   33.6957   33.6957   34.6277   34.6277   35.0763   35.0763   35.3773   35.3773   36.1670   36.1670
   36.8566   36.8566   37.0385   37.0385   37.2555   37.2555   37.6124   37.6124   38.4670   38.4670
   38.7916   38.7916   39.0947   39.0947   39.6715   39.6715   40.2542   40.2542   40.3814   40.3814
   40.5798   40.5798   40.8948   40.8948   41.1271   41.1271   41.3733   41.3733   41.6465   41.6465
   42.5906   42.5906   42.7763   42.7763   43.0121   43.0121   43.3480   43.3480   43.5532   43.5532
   44.0004   44.0004   44.1523   44.1523   44.6667   44.6667   44.8804   44.8804   45.5140   45.5140
   45.8188   45.8188   45.8656   45.8656   46.5930   46.5930   46.9668   46.9668   47.1843   47.1843
   47.6265   47.6265   47.6688   47.6688   47.7080   47.7080   48.6870   48.6870   48.8517   48.8517
   49.1258   49.1258   49.6403   49.6403   50.1769   50.1769   50.4201   50.4201   50.9409   50.9409
   52.0244   52.0244   52.2492   52.2492   53.6928   53.6928   54.4318   54.4318   54.4562   54.4562
   55.0318   55.0318   55.3025   55.3025   55.8725   55.8725   55.9993   55.9993   57.0551   57.0551
   57.0598   57.0598   57.3191   57.3191   58.5053   58.5053   60.0580   60.0580   60.2021   60.2021
   61.0125   61.0125   61.7050   61.7050   62.1369   62.1369   62.3000   62.3000   64.7051   64.7051
   65.0016   65.0016   65.4455   65.4455   66.2925   66.2925   67.4868   67.4868   68.4183   68.4183
   69.3099   69.3099   69.6029   69.6029   71.0181   71.0181   72.3201   72.3201   73.1717   73.1717
   76.0761   76.0761   76.9897   76.9897   78.3334   78.3334   80.9348   80.9348   83.7206   83.7206
   90.4953   90.4953   90.8332   90.8332   92.0730   92.0730   93.4759   93.4759   94.4252   94.4252
   96.6445   96.6445  100.7331  100.7331  104.2125  104.2125  106.7670  106.7670  110.1084  110.1084
  115.4840  115.4840  119.1356  119.1356  123.5042  123.5042  127.0193  127.0193  132.0002  132.0002
  133.3063  133.3063  136.6727  136.6727  145.6597  145.6597  150.6949  150.6949  157.4696  157.4696
  208.8698  208.8698  308.5676  308.5676
siesta: Fermi energy =      -3.590006 eV

siesta: Program's energy decomposition (eV):
siesta: Ebs     =     -1161.424216
siesta: Eions   =      3585.165840
siesta: Ena     =       435.058853
siesta: Ekin    =      3003.838779
siesta: Enl     =     -2894.768544
siesta: Eso     =        -0.004477
siesta: Edftu   =         0.000000
siesta: DEna    =        47.728923
siesta: DUscf   =        16.132628
siesta: DUext   =         0.000000
siesta: Exc     =     -1142.112958
siesta: eta*DQ  =         0.000000
siesta: Emadel  =         0.000000
siesta: Emeta   =         0.000000
siesta: Emolmec =         0.000000
siesta: Ekinion =         0.000000
siesta: Eharris =     -4119.292635
siesta: Etot    =     -4119.292635
siesta: FreeEng =     -4119.292635

siesta: Final energy (eV):
siesta:  Band Struct. =   -1161.424216
siesta:       Kinetic =    3003.838779
siesta:       Hartree =   17266.086354
siesta:       Edftu   =       0.000000
siesta:       Eso     =      -0.004477
siesta:    Ext. field =       0.000000
siesta:   Exch.-corr. =   -1142.112958
siesta:  Ion-electron =  -37214.065280
siesta:       Ion-ion =   13966.964947
siesta:       Ekinion =       0.000000
siesta:         Total =   -4119.292635
siesta:         Fermi =      -3.590006

siesta: Atomic forces (eV/Ang):
siesta:      1    0.021029    0.019108   -0.000000
siesta:      2    0.747108   -0.542083   -0.000000
siesta:      3   -0.840437    0.188471    0.000000
siesta:      4    0.163838    0.209275    0.000000
siesta:      5    0.499603    0.269974   -0.000000
siesta:      6   -0.043916   -0.029822   -0.000000
siesta:      7   -2.794090   -0.453277   -0.000000
siesta:      8  -11.161712   19.347595   -0.000000
siesta:      9  -54.474044   71.337325    0.000000
siesta:     10   -0.339754    0.682112    0.000000
siesta:     11   -1.367111    4.635386    0.000000
siesta:     12   -2.469733    1.707573    0.000000
siesta:     13  -25.414819   37.369480   -0.000000
siesta:     14   -0.024371    0.039204   -0.000000
siesta:     15   -0.155864   -0.136411   -0.000000
siesta:     16   -0.018153    0.038209    0.000000
siesta:     17   -0.018717    0.020494    0.000000
siesta:     18   -0.036323   -0.054259    0.000000
siesta:     19   -0.515572   -0.057138    0.000000
siesta:     20    2.963913   -0.657196   -0.000000
siesta:     21   66.887677  -94.221844   -0.000000
siesta:     22    1.998327   -5.150244    0.000000
siesta:     23   -0.151961   -0.160039   -0.000000
siesta:     24    1.023768    0.593420    0.000000
siesta:     25    8.512158  -14.985333   -0.000000
siesta:     26   14.200328  -25.927856    0.000000
siesta:     27    0.189680   -0.676335   -0.000000
siesta:     28    0.124732   -1.297316   -0.000000
siesta:     29    0.524843    0.541313   -0.000000
siesta: ----------------------------------------
siesta:    Tot   -1.969572   -7.350212   -0.000000

siesta: Stress tensor (static) (eV/Ang**3):
siesta:    -0.003855    0.006025   -0.000000
siesta:     0.006025   -0.008581    0.000000
siesta:     0.000000   -0.000000   -0.000021

siesta: Cell volume =      13500.000000 Ang**3

siesta: Pressure (static):
siesta:                Solid            Molecule  Units
siesta:           0.00004523          0.00000269  Ry/Bohr**3
siesta:           0.00415260          0.00024691  eV/Ang**3
siesta:           6.65327633          0.39560263  kBar
(Free)E+ p_basis*V_orbitals  =       -4099.442218
(Free)Eharris+ p_basis*V_orbitals  =       -4099.442218
     spin moment: S , {S} =    0.00000   0.00000   0.00000   0.00000

siesta: Electric dipole (a.u.)  =   -0.043044    1.315573   -0.000000
siesta: Electric dipole (Debye) =   -0.109406    3.343856   -0.000000

cite: Please see "GC.bib" for an exhaustive BiBTeX file.
cite: Please clearly indicate Siesta version in published work: v4.1.5-1-g384057250
cite: This calculation has made use of the following articles
cite: which are encouraged to be cited in a published work.
        Primary SIESTA paper
          DOI: www.doi.org/10.1088/0953-8984/14/11/302
        Spin-orbit coupling (on-site approximation)
          DOI: www.doi.org/10.1088/0953-8984/19/19/489001


WARNING: alloc-realloc-dealloc name mismatch
         Name: atomlist isa
         Size:              -116. Bytes
         Node:     0
         Subsequent mismatches will not be reported
>> End of run:   1-FEB-2024  20:49:35
Job completed
