Siesta Version  : v4.1.5-1-g384057250
Architecture    : gcc
Compiler version: GNU Fortran (Ubuntu 11.3.0-1ubuntu1~22.04) 11.3.0
Compiler flags  : mpifort -O2 -fPIC -ftree-vectorize -fallow-argument-mismatch
PP flags        : -DFC_HAVE_ABORT -DMPI -DSIESTA__FLOOK -DSIESTA__METIS -DSIESTA__MUMPS -DCDF -DNCDF -DNCDF_4 -DNCDF_PARALLEL -DSIESTA__MRRR -DSIESTA__ELPA
Libraries       : libncdf.a libfdict.a  -lflookall -ldl -lnetcdff -lnetcdf -lhdf5_hl -lhdf5 -lhdf5_fortran -lz -lscalapack-openmpi -lopenblas -lmetis -lzmumps -lcmumps -ldmumps -lmumps_common -lpord -lsmumps -lesmumps -lscotch -lscotcherr -fopenmp -lelpa
PARALLEL version
NetCDF support
NetCDF-4 support
NetCDF-4 MPI-IO support
METIS ordering support
Lua support

* Running on 4 nodes in parallel
>> Start of run:  22-MAY-2023  19:11:32

                           ***********************       
                           *  WELCOME TO SIESTA  *       
                           ***********************       

reinit: Reading from standard input
reinit: Dumped input in INPUT_TMP.17839
************************** Dump of input data file ****************************
SystemLabel      GC
NumberOfAtoms    29
NumberOfSpecies  4
%block ChemicalSpeciesLabel
    1    8  O
    2    7  N
    3   14  Si
    4    1  H
%endblock ChemicalSpeciesLabel
# Single point calculation
MD.TypeOfRun                CG
MD.Steps                    0
SCF.MustConverge            F # In case it does not. There can be 2 very close atoms
AtomicCoordinatesFormat NotScaledCartesianAng
%block AtomicCoordinatesAndAtomicSpecies
0.854927710    3.902811360    0.000000000       1
-3.151486600   0.823854130    0.000000000       2
1.928518680    1.174000900    0.000000000       2
0.979899500    -1.830275890   0.000000000       2
-2.159258930   -2.028004800   0.000000000       2
3.785319770    -1.112700660   0.000000000       2
-1.345933810   0.976250250    0.000000000       3
-0.599439880   -1.096077170   0.000000000       3
0.453182890    2.350510230    0.000000000       3
2.133302030    -0.576510800   0.000000000       3
-3.516065660   -0.842056510   0.000000000       3
2.824527830    1.754723110    0.000000000       4
-4.877551690   -1.469214660   0.000000000       4
3.994952020    -2.143204000   0.000000000       4
4.620903610    -0.483666060   0.000000000       4
-2.279085180   -3.081514090   0.000000000       4
6.920911046    6.530456171    -0.000000000      3
8.789870536    7.790099801    -0.000000000      3
8.330938156    3.788717951    -0.000000000      3
10.398530876   6.295309171    -0.000000000      3
6.980440996    4.845503711    -0.000000000      2
5.290911846    7.160516401    -0.000000000      2
9.974827026    4.579808361    -0.000000000      2
9.070234236    9.260322321    -0.000000000      4
11.893942256   6.514161711    -0.000000000      4
5.046452856    8.178982351    -0.000000000      4
4.464170666    6.503668271    -0.000000000      4
8.390213916    2.206275921    -0.000000000      1
10.746482616   3.852841001    -0.000000000      4
%endblock AtomicCoordinatesAndAtomicSpecies
%include ../../../Defaults.fdf
************************** End of input data file *****************************

reinit: -----------------------------------------------------------------------
reinit: System Name: 
reinit: -----------------------------------------------------------------------
reinit: System Label: GC
reinit: -----------------------------------------------------------------------

initatom: Reading input for the pseudopotentials and atomic orbitals ----------
Species number:   1 Atomic number:    8 Label: O
Species number:   2 Atomic number:    7 Label: N
Species number:   3 Atomic number:   14 Label: Si
Species number:   4 Atomic number:    1 Label: H

Ground state valence configuration:   2s02  2p04
Reading pseudopotential information in formatted form from O.psf

Pseudopotential generated from a relativistic atomic calculation

Valence configuration for pseudopotential generation:
2s( 2.00) rc: 0.45
2p( 4.00) rc: 0.92
3d( 0.00) rc: 2.24
4f( 0.00) rc: 0.25
Ground state valence configuration:   2s02  2p03
Reading pseudopotential information in formatted form from N.psf

Pseudopotential generated from a relativistic atomic calculation

Valence configuration for pseudopotential generation:
2s( 2.00) rc: 0.94
2p( 3.00) rc: 0.59
3d( 0.00) rc: 3.46
4f( 0.00) rc: 2.47
Ground state valence configuration:   3s02  3p02
Reading pseudopotential information in formatted form from Si.psf

Pseudopotential generated from a relativistic atomic calculation

Valence configuration for pseudopotential generation:
3s( 2.00) rc: 1.67
3p( 2.00) rc: 2.04
3d( 0.00) rc: 2.89
4f( 0.00) rc: 2.49
Ground state valence configuration:   1s01
Reading pseudopotential information in formatted form from H.psf

Pseudopotential generated from a relativistic atomic calculation

Valence configuration for pseudopotential generation:
1s( 1.00) rc: 0.01
2p( 0.00) rc: 0.60
3d( 0.00) rc: 1.99
4f( 0.00) rc: 2.49
For O, standard SIESTA heuristics set lmxkb to 3
 (one more than the basis l, including polarization orbitals).
Use PS.lmax or PS.KBprojectors blocks to override.
For N, standard SIESTA heuristics set lmxkb to 3
 (one more than the basis l, including polarization orbitals).
Use PS.lmax or PS.KBprojectors blocks to override.
For Si, standard SIESTA heuristics set lmxkb to 3
 (one more than the basis l, including polarization orbitals).
Use PS.lmax or PS.KBprojectors blocks to override.
For H, standard SIESTA heuristics set lmxkb to 2
 (one more than the basis l, including polarization orbitals).
Use PS.lmax or PS.KBprojectors blocks to override.

<basis_specs>
===============================================================================
O                    Z=   8    Mass=  16.000        Charge= 0.17977+309
Lmxo=1 Lmxkb= 3    BasisType=split      Semic=F
L=0  Nsemic=0  Cnfigmx=2
          i=1  nzeta=2  polorb=0  (2s)
            splnorm:   0.28000    
               vcte:    0.0000    
               rinn:    0.0000    
               qcoe:    0.0000    
               qyuk:    0.0000    
               qwid:   0.10000E-01
                rcs:    0.0000      0.0000    
            lambdas:    1.0000      1.0000    
L=1  Nsemic=0  Cnfigmx=2
          i=1  nzeta=2  polorb=1  (2p)
            splnorm:   0.28000    
               vcte:    0.0000    
               rinn:    0.0000    
               qcoe:    0.0000    
               qyuk:    0.0000    
               qwid:   0.10000E-01
                rcs:    0.0000      0.0000    
            lambdas:    1.0000      1.0000    
-------------------------------------------------------------------------------
L=0  Nkbl=1  erefs: 0.17977+309
L=1  Nkbl=1  erefs: 0.17977+309
L=2  Nkbl=1  erefs: 0.17977+309
L=3  Nkbl=1  erefs: 0.17977+309
===============================================================================
</basis_specs>

atom: Called for O                     (Z =   8)

read_vps: Pseudopotential generation method:
read_vps: ATM4.2.7  Troullier-Martins                       
Valence charge for ps generation:    6.00000

xc_check: Exchange-correlation functional:
xc_check: GGA Perdew, Burke & Ernzerhof 1996
V l=0 = -2*Zval/r beyond r=  1.1000
V l=1 = -2*Zval/r beyond r=  1.1000
V l=2 = -2*Zval/r beyond r=  2.2154
V l=3 = -2*Zval/r beyond r=  1.1000
All V_l potentials equal beyond r=  2.2154
This should be close to max(r_c) in ps generation
All pots = -2*Zval/r beyond r=  2.2154

VLOCAL1: 99.0% of the norm of Vloc inside      8.845 Ry
VLOCAL1: 99.9% of the norm of Vloc inside     20.157 Ry
atom: Maximum radius for 4*pi*r*r*local-pseudopot. charge    2.67231
atom: Maximum radius for r*vlocal+2*Zval:    2.32897
GHOST: No ghost state for L =  0
GHOST: No ghost state for L =  1
GHOST: No ghost state for L =  2
GHOST: No ghost state for L =  3

KBgen: Kleinman-Bylander projectors: 
   l= 0   rc=  2.243238   el= -1.759686   Ekb=**********   kbcos= -0.171774
   l= 1   rc=  2.328968   el= -0.663873   Ekb=-14.506792   kbcos= -0.519897
   l= 2   rc=  2.573941   el=  0.002031   Ekb= -1.137373   kbcos= -0.019581
   l= 3   rc=  2.606321   el=  0.003153   Ekb= -1.013546   kbcos= -0.003122

KBgen: Total number of Kleinman-Bylander projectors:   16
atom: -------------------------------------------------------------------------

atom: SANKEY-TYPE ORBITALS:
atom: Selected multiple-zeta basis: split     

SPLIT: Orbitals with angular momentum L= 0

SPLIT: Basis orbitals for state 2s

SPLIT: PAO cut-off radius determined from an
SPLIT: energy shift=  0.002000 Ry

   izeta = 1
                 lambda =    1.000000
                     rc =    4.243912
                 energy =   -1.758270
                kinetic =    3.286084
    potential(screened) =   -5.044353
       potential(ionic) =  -12.921184

   izeta = 2
                 rmatch =    2.187845
              splitnorm =    0.280000
                 energy =   -0.885018
                kinetic =    8.134434
    potential(screened) =   -9.019452
       potential(ionic) =  -17.710645

SPLIT: Orbitals with angular momentum L= 1

SPLIT: Basis orbitals for state 2p

SPLIT: PAO cut-off radius determined from an
SPLIT: energy shift=  0.002000 Ry

   izeta = 1
                 lambda =    1.000000
                     rc =    5.314825
                 energy =   -0.661986
                kinetic =    4.917472
    potential(screened) =   -5.579458
       potential(ionic) =  -13.236259

   izeta = 2
                 rmatch =    2.160663
              splitnorm =    0.280000
                 energy =   -0.068760
                kinetic =    9.183374
    potential(screened) =   -9.252135
       potential(ionic) =  -18.274251

POLgen: Perturbative polarization orbital with L=  2

POLgen: Polarization orbital for state 2p

   izeta = 1
                     rc =    5.314825
                 energy =    1.970580
                kinetic =    3.886128
    potential(screened) =   -1.915547
       potential(ionic) =   -7.749584
atom: Total number of Sankey-type orbitals: 13

atm_pop: Valence configuration (for local Pseudopot. screening):
 2s( 2.00)                                                            
 2p( 4.00)                                                            
Vna: chval, zval:    6.00000   6.00000

Vna:  Cut-off radius for the neutral-atom potential:   5.314825

atom: _________________________________________________________________________

<basis_specs>
===============================================================================
N                    Z=   7    Mass=  14.010        Charge= 0.17977+309
Lmxo=1 Lmxkb= 3    BasisType=split      Semic=F
L=0  Nsemic=0  Cnfigmx=2
          i=1  nzeta=2  polorb=0  (2s)
            splnorm:   0.28000    
               vcte:    0.0000    
               rinn:    0.0000    
               qcoe:    0.0000    
               qyuk:    0.0000    
               qwid:   0.10000E-01
                rcs:    0.0000      0.0000    
            lambdas:    1.0000      1.0000    
L=1  Nsemic=0  Cnfigmx=2
          i=1  nzeta=2  polorb=1  (2p)
            splnorm:   0.28000    
               vcte:    0.0000    
               rinn:    0.0000    
               qcoe:    0.0000    
               qyuk:    0.0000    
               qwid:   0.10000E-01
                rcs:    0.0000      0.0000    
            lambdas:    1.0000      1.0000    
-------------------------------------------------------------------------------
L=0  Nkbl=1  erefs: 0.17977+309
L=1  Nkbl=1  erefs: 0.17977+309
L=2  Nkbl=1  erefs: 0.17977+309
L=3  Nkbl=1  erefs: 0.17977+309
===============================================================================
</basis_specs>

atom: Called for N                     (Z =   7)

read_vps: Pseudopotential generation method:
read_vps: ATM4.2.7  Troullier-Martins                       
Valence charge for ps generation:    5.00000

xc_check: Exchange-correlation functional:
xc_check: GGA Perdew, Burke & Ernzerhof 1996
V l=0 = -2*Zval/r beyond r=  1.2889
V l=1 = -2*Zval/r beyond r=  1.2889
V l=2 = -2*Zval/r beyond r=  3.4178
V l=3 = -2*Zval/r beyond r=  2.4084
All V_l potentials equal beyond r=  3.3753
This should be close to max(r_c) in ps generation
All pots = -2*Zval/r beyond r=  3.4178

VLOCAL1: 99.0% of the norm of Vloc inside      3.810 Ry
VLOCAL1: 99.9% of the norm of Vloc inside      8.683 Ry
atom: Maximum radius for 4*pi*r*r*local-pseudopot. charge    4.02088
atom: Maximum radius for r*vlocal+2*Zval:    3.54838
GHOST: No ghost state for L =  0
GHOST: No ghost state for L =  1
GHOST: No ghost state for L =  2
GHOST: No ghost state for L =  3

KBgen: Kleinman-Bylander projectors: 
   l= 0   rc=  3.417763   el= -1.365098   Ekb= -4.433130   kbcos= -0.707855
   l= 1   rc=  3.375302   el= -0.521201   Ekb=-13.264039   kbcos= -0.535594
   l= 2   rc=  3.872880   el=  0.001991   Ekb= -0.641094   kbcos= -0.062456
   l= 3   rc=  3.970931   el=  0.003093   Ekb= -0.474517   kbcos= -0.018236

KBgen: Total number of Kleinman-Bylander projectors:   16
atom: -------------------------------------------------------------------------

atom: SANKEY-TYPE ORBITALS:
atom: Selected multiple-zeta basis: split     

SPLIT: Orbitals with angular momentum L= 0

SPLIT: Basis orbitals for state 2s

SPLIT: PAO cut-off radius determined from an
SPLIT: energy shift=  0.002000 Ry

   izeta = 1
                 lambda =    1.000000
                     rc =    4.730425
                 energy =   -1.363399
                kinetic =    1.245246
    potential(screened) =   -2.608645
       potential(ionic) =   -8.121105

   izeta = 2
                 rmatch =    2.531849
              splitnorm =    0.280000
                 energy =   -0.959908
                kinetic =    2.409435
    potential(screened) =   -3.369343
       potential(ionic) =   -9.427975

SPLIT: Orbitals with angular momentum L= 1

SPLIT: Basis orbitals for state 2p

SPLIT: PAO cut-off radius determined from an
SPLIT: energy shift=  0.002000 Ry

   izeta = 1
                 lambda =    1.000000
                     rc =    5.924108
                 energy =   -0.519262
                kinetic =    3.672940
    potential(screened) =   -4.192202
       potential(ionic) =   -9.518354

   izeta = 2
                 rmatch =    2.531849
              splitnorm =    0.280000
                 energy =   -0.104258
                kinetic =    6.807538
    potential(screened) =   -6.911796
       potential(ionic) =  -13.149920

POLgen: Perturbative polarization orbital with L=  2

POLgen: Polarization orbital for state 2p

   izeta = 1
                     rc =    5.924108
                 energy =    1.427508
                kinetic =    2.872379
    potential(screened) =   -1.444871
       potential(ionic) =   -5.563644
atom: Total number of Sankey-type orbitals: 13

atm_pop: Valence configuration (for local Pseudopot. screening):
 2s( 2.00)                                                            
 2p( 3.00)                                                            
Vna: chval, zval:    5.00000   5.00000

Vna:  Cut-off radius for the neutral-atom potential:   5.924108

atom: _________________________________________________________________________

<basis_specs>
===============================================================================
Si                   Z=  14    Mass=  28.090        Charge= 0.17977+309
Lmxo=1 Lmxkb= 3    BasisType=split      Semic=F
L=0  Nsemic=0  Cnfigmx=3
          i=1  nzeta=2  polorb=0  (3s)
            splnorm:   0.28000    
               vcte:    0.0000    
               rinn:    0.0000    
               qcoe:    0.0000    
               qyuk:    0.0000    
               qwid:   0.10000E-01
                rcs:    0.0000      0.0000    
            lambdas:    1.0000      1.0000    
L=1  Nsemic=0  Cnfigmx=3
          i=1  nzeta=2  polorb=1  (3p)
            splnorm:   0.28000    
               vcte:    0.0000    
               rinn:    0.0000    
               qcoe:    0.0000    
               qyuk:    0.0000    
               qwid:   0.10000E-01
                rcs:    0.0000      0.0000    
            lambdas:    1.0000      1.0000    
-------------------------------------------------------------------------------
L=0  Nkbl=1  erefs: 0.17977+309
L=1  Nkbl=1  erefs: 0.17977+309
L=2  Nkbl=1  erefs: 0.17977+309
L=3  Nkbl=1  erefs: 0.17977+309
===============================================================================
</basis_specs>

atom: Called for Si                    (Z =  14)

read_vps: Pseudopotential generation method:
read_vps: ATM4.2.7  Troullier-Martins                       
Valence charge for ps generation:    4.00000

xc_check: Exchange-correlation functional:
xc_check: GGA Perdew, Burke & Ernzerhof 1996
V l=0 = -2*Zval/r beyond r=  2.7826
V l=1 = -2*Zval/r beyond r=  2.7826
V l=2 = -2*Zval/r beyond r=  2.9253
V l=3 = -2*Zval/r beyond r=  2.7826
All V_l potentials equal beyond r=  2.8530
This should be close to max(r_c) in ps generation
All pots = -2*Zval/r beyond r=  2.9253

VLOCAL1: 99.0% of the norm of Vloc inside      5.333 Ry
VLOCAL1: 99.9% of the norm of Vloc inside     12.154 Ry
atom: Maximum radius for 4*pi*r*r*local-pseudopot. charge    3.39869
atom: Maximum radius for r*vlocal+2*Zval:    2.96205
GHOST: No ghost state for L =  0
GHOST: No ghost state for L =  1
GHOST: No ghost state for L =  2
GHOST: No ghost state for L =  3

KBgen: Kleinman-Bylander projectors: 
   l= 0   rc=  3.075247   el= -0.794092   Ekb=  5.879390   kbcos=  0.167461
   l= 1   rc=  3.153101   el= -0.300068   Ekb=  2.642817   kbcos=  0.058301
   l= 2   rc=  3.273594   el=  0.001958   Ekb= -1.185135   kbcos= -0.104411
   l= 3   rc=  3.232927   el=  0.003046   Ekb= -0.497174   kbcos= -0.015889

KBgen: Total number of Kleinman-Bylander projectors:   16
atom: -------------------------------------------------------------------------

atom: SANKEY-TYPE ORBITALS:
atom: Selected multiple-zeta basis: split     

SPLIT: Orbitals with angular momentum L= 0

SPLIT: Basis orbitals for state 3s

SPLIT: PAO cut-off radius determined from an
SPLIT: energy shift=  0.002000 Ry

   izeta = 1
                 lambda =    1.000000
                     rc =    6.429618
                 energy =   -0.792283
                kinetic =    0.525293
    potential(screened) =   -1.317576
       potential(ionic) =   -3.744923

   izeta = 2
                 rmatch =    3.998416
              splitnorm =    0.280000
                 energy =   -0.583081
                kinetic =    1.069570
    potential(screened) =   -1.652651
       potential(ionic) =   -4.235185

SPLIT: Orbitals with angular momentum L= 1

SPLIT: Basis orbitals for state 3p

SPLIT: PAO cut-off radius determined from an
SPLIT: energy shift=  0.002000 Ry

   izeta = 1
                 lambda =    1.000000
                     rc =    8.464845
                 energy =   -0.298236
                kinetic =    0.785360
    potential(screened) =   -1.083596
       potential(ionic) =   -3.273779

   izeta = 2
                 rmatch =    4.587816
              splitnorm =    0.280000
                 energy =   -0.131871
                kinetic =    1.403687
    potential(screened) =   -1.535557
       potential(ionic) =   -4.015310

POLgen: Perturbative polarization orbital with L=  2

POLgen: Polarization orbital for state 3p

   izeta = 1
                     rc =    8.464845
                 energy =    0.321949
                kinetic =    1.055677
    potential(screened) =   -0.733728
       potential(ionic) =   -2.672950
atom: Total number of Sankey-type orbitals: 13

atm_pop: Valence configuration (for local Pseudopot. screening):
 3s( 2.00)                                                            
 3p( 2.00)                                                            
Vna: chval, zval:    4.00000   4.00000

Vna:  Cut-off radius for the neutral-atom potential:   8.464845

atom: _________________________________________________________________________

<basis_specs>
===============================================================================
H                    Z=   1    Mass=  1.0100        Charge= 0.17977+309
Lmxo=0 Lmxkb= 2    BasisType=split      Semic=F
L=0  Nsemic=0  Cnfigmx=1
          i=1  nzeta=2  polorb=1  (1s)
            splnorm:   0.62000    
               vcte:    0.0000    
               rinn:    0.0000    
               qcoe:    0.0000    
               qyuk:    0.0000    
               qwid:   0.10000E-01
                rcs:    0.0000      0.0000    
            lambdas:    1.0000      1.0000    
-------------------------------------------------------------------------------
L=0  Nkbl=1  erefs: 0.17977+309
L=1  Nkbl=1  erefs: 0.17977+309
L=2  Nkbl=1  erefs: 0.17977+309
===============================================================================
</basis_specs>

atom: Called for H                     (Z =   1)

read_vps: Pseudopotential generation method:
read_vps: ATM4.2.7  Troullier-Martins                       
Valence charge for ps generation:    1.00000

xc_check: Exchange-correlation functional:
xc_check: GGA Perdew, Burke & Ernzerhof 1996
V l=0 = -2*Zval/r beyond r=  0.0098
V l=1 = -2*Zval/r beyond r=  0.5817
V l=2 = -2*Zval/r beyond r=  1.9372
All V_l potentials equal beyond r=  1.9372
This should be close to max(r_c) in ps generation
All pots = -2*Zval/r beyond r=  1.9372

VLOCAL1: 99.0% of the norm of Vloc inside     11.567 Ry
VLOCAL1: 99.9% of the norm of Vloc inside     26.362 Ry
atom: Maximum radius for 4*pi*r*r*local-pseudopot. charge    2.25106
atom: Maximum radius for r*vlocal+2*Zval:    1.91306
GHOST: No ghost state for L =  0
GHOST: No ghost state for L =  1
GHOST: No ghost state for L =  2

KBgen: Kleinman-Bylander projectors: 
   l= 0   rc=  2.036604   el= -0.477180   Ekb= -6.081590   kbcos= -0.277285
   l= 1   rc=  2.195416   el=  0.001076   Ekb= -0.926943   kbcos= -0.034643
   l= 2   rc=  2.251056   el=  0.002010   Ekb= -0.130941   kbcos= -0.009788

KBgen: Total number of Kleinman-Bylander projectors:    9
atom: -------------------------------------------------------------------------

atom: SANKEY-TYPE ORBITALS:
atom: Selected multiple-zeta basis: split     

SPLIT: Orbitals with angular momentum L= 0

SPLIT: Basis orbitals for state 1s

SPLIT: PAO cut-off radius determined from an
SPLIT: energy shift=  0.002000 Ry

   izeta = 1
                 lambda =    1.000000
                     rc =    6.518340
                 energy =   -0.475305
                kinetic =    0.912139
    potential(screened) =   -1.387444
       potential(ionic) =   -1.907295

   izeta = 2
                 rmatch =    2.141150
              splitnorm =    0.620000
                 energy =    0.566467
                kinetic =    3.772856
    potential(screened) =   -3.206389
       potential(ionic) =   -3.759093

POLgen: Perturbative polarization orbital with L=  1

POLgen: Polarization orbital for state 1s

   izeta = 1
                     rc =    6.518340
                 energy =    0.533861
                kinetic =    1.121086
    potential(screened) =   -0.587225
       potential(ionic) =   -1.053027
atom: Total number of Sankey-type orbitals:  5

atm_pop: Valence configuration (for local Pseudopot. screening):
 1s( 1.00)                                                            
Vna: chval, zval:    1.00000   1.00000

Vna:  Cut-off radius for the neutral-atom potential:   6.518340

atom: _________________________________________________________________________

prinput: Basis input ----------------------------------------------------------

PAO.BasisType split     

%block ChemicalSpeciesLabel
    1    8 O                       # Species index, atomic number, species label
    2    7 N                       # Species index, atomic number, species label
    3   14 Si                      # Species index, atomic number, species label
    4    1 H                       # Species index, atomic number, species label
%endblock ChemicalSpeciesLabel

%block PAO.Basis                 # Define Basis set
O                     2                    # Species label, number of l-shells
 n=2   0   2                         # n, l, Nzeta 
   4.244      2.188   
   1.000      1.000   
 n=2   1   2 P   1                   # n, l, Nzeta, Polarization, NzetaPol
   5.315      2.161   
   1.000      1.000   
N                     2                    # Species label, number of l-shells
 n=2   0   2                         # n, l, Nzeta 
   4.730      2.532   
   1.000      1.000   
 n=2   1   2 P   1                   # n, l, Nzeta, Polarization, NzetaPol
   5.924      2.532   
   1.000      1.000   
Si                    2                    # Species label, number of l-shells
 n=3   0   2                         # n, l, Nzeta 
   6.430      3.998   
   1.000      1.000   
 n=3   1   2 P   1                   # n, l, Nzeta, Polarization, NzetaPol
   8.465      4.588   
   1.000      1.000   
H                     1                    # Species label, number of l-shells
 n=1   0   2 P   1                   # n, l, Nzeta, Polarization, NzetaPol
   6.518      2.141   
   1.000      1.000   
%endblock PAO.Basis

prinput: ----------------------------------------------------------------------

Dumping basis to NetCDF file O.ion.nc
Dumping basis to NetCDF file N.ion.nc
Dumping basis to NetCDF file Si.ion.nc
Dumping basis to NetCDF file H.ion.nc
coor:   Atomic-coordinates input format  =     Cartesian coordinates
coor:                                          (in Angstroms)

siesta: Atomic coordinates (Bohr) and species
siesta:      1.61558   7.37525   0.00000  1        1
siesta:     -5.95545   1.55686   0.00000  2        2
siesta:      3.64437   2.21854   0.00000  2        3
siesta:      1.85174  -3.45872   0.00000  2        4
siesta:     -4.08041  -3.83238   0.00000  2        5
siesta:      7.15322  -2.10270   0.00000  2        6
siesta:     -2.54345   1.84485   0.00000  3        7
siesta:     -1.13278  -2.07129   0.00000  3        8
siesta:      0.85639   4.44182   0.00000  3        9
siesta:      4.03136  -1.08945   0.00000  3       10
siesta:     -6.64440  -1.59126   0.00000  3       11
siesta:      5.33759   3.31595   0.00000  4       12
siesta:     -9.21724  -2.77641   0.00000  4       13
siesta:      7.54937  -4.05007   0.00000  4       14
siesta:      8.73225  -0.91400   0.00000  4       15
siesta:     -4.30685  -5.82322   0.00000  4       16
siesta:     13.07863  12.34078  -0.00000  3       17
siesta:     16.61045  14.72116  -0.00000  3       18
siesta:     15.74320   7.15964  -0.00000  3       19
siesta:     19.65038  11.89641  -0.00000  3       20
siesta:     13.19113   9.15668  -0.00000  2       21
siesta:      9.99838  13.53142  -0.00000  2       22
siesta:     18.84970   8.65459  -0.00000  2       23
siesta:     17.14027  17.49948  -0.00000  4       24
siesta:     22.47630  12.30999  -0.00000  4       25
siesta:      9.53642  15.45604  -0.00000  4       26
siesta:      8.43606  12.29016  -0.00000  4       27
siesta:     15.85521   4.16926  -0.00000  1       28
siesta:     20.30792   7.28082  -0.00000  4       29

siesta: Automatic unit cell vectors (Ang):
siesta:   26.037226    0.000000    0.000000
siesta:    0.000000   21.164603    0.000000
siesta:    0.000000    0.000000    9.854683

siesta: System type = molecule  

initatomlists: Number of atoms, orbitals, and projectors:     29   297   394

siesta: ******************** Simulation parameters ****************************
siesta:
siesta: The following are some of the parameters of the simulation.
siesta: A complete list of the parameters used, including default values,
siesta: can be found in file out.fdf
siesta:
redata: Spin configuration                          = spin-orbit
redata: Number of spin components                   = 8
redata: Time-Reversal Symmetry                      = F
redata: Spin spiral                                 = F
############################################################
This spin-orbit implementation uses a local approximation.
From 4.2 and onwards the full non-local approximation is implemented
You are strongly advised to use >=4.2 versions!
############################################################
redata: Long output                                 =   F
redata: Number of Atomic Species                    =        4
redata: Charge density info will appear in .RHO file
redata: Write Mulliken Pop.                         = Atomic and Orbital charges
redata: Matel table size (NRTAB)                    =     1024
redata: Mesh Cutoff                                 =   340.0000 Ry
redata: Net charge of the system                    =     0.0000 |e|
redata: Min. number of SCF Iter                     =        1
redata: Max. number of SCF Iter                     =      200
redata: SCF mix quantity                            = Hamiltonian
redata: Mix DM or H after convergence               =   F
redata: Recompute H after scf cycle                 =   F
redata: Mix DM in first SCF step                    =   T
redata: Write Pulay info on disk                    =   F
redata: New DM Occupancy tolerance                  = 0.000000000001
redata: No kicks to SCF
redata: DM Mixing Weight for Kicks                  =     0.5000
redata: Require Harris convergence for SCF          =   F
redata: Harris energy tolerance for SCF             =     0.000100 eV
redata: Require DM convergence for SCF              =   T
redata: DM tolerance for SCF                        =     0.000008
redata: Require EDM convergence for SCF             =   F
redata: EDM tolerance for SCF                       =     0.001000 eV
redata: Require H convergence for SCF               =   T
redata: Hamiltonian tolerance for SCF               =     0.000001 eV
redata: Require (free) Energy convergence for SCF   =   F
redata: (free) Energy tolerance for SCF             =     0.000100 eV
redata: Using Saved Data (generic)                  =   F
redata: Use continuation files for DM               =   F
redata: Neglect nonoverlap interactions             =   F
redata: Method of Calculation                       = Diagonalization
redata: Electronic Temperature                      =   299.9978 K
redata: Fix the spin of the system                  =   F
redata: Dynamics option                             = Single-point calculation
mix.SCF: Pulay mixing                            = Pulay
mix.SCF:    Variant                              = stable
mix.SCF:    History steps                        = 6
mix.SCF:    Linear mixing weight                 =     0.250000
mix.SCF:    Mixing weight                        =     0.250000
mix.SCF:    SVD condition                        = 0.1000E-07
mix.SCF:    Restart steps                        = 24
mix.SCF:    Restart save steps                   = 3
mix.SCF: Spin-component mixing                   all
redata: Save all siesta data in one NC              =   F
redata: ***********************************************************************

%block SCF.Mixers
  Pulay
%endblock SCF.Mixers

%block SCF.Mixer.Pulay
  # Mixing method
  method pulay
  variant stable

  # Mixing options
  weight 0.2500
  weight.linear 0.2500
  history 6
  restart 24
  restart.save 3
%endblock SCF.Mixer.Pulay

DM_history_depth set to one: no extrapolation allowed by default for geometry relaxation
Size of DM history Fstack: 1
Total number of electrons:    98.000000
Total ionic charge:    98.000000

* ProcessorY, Blocksize:    2  24


* Orbital distribution balance (max,min):    81    72


Time-reversal symmetry not used.

siesta: k-grid: Number of k-points =     1
siesta: k-grid: Cutoff (effective) =     4.927 Ang
siesta: k-grid: Supercell and displacements
siesta: k-grid:    1   0   0      0.000
siesta: k-grid:    0   1   0      0.000
siesta: k-grid:    0   0   1      0.000

diag: Algorithm                                     = ELPA-1stage
diag: Parallel over k                               =   F
diag: Use parallel 2D distribution                  =   T
diag: Parallel block-size                           = 24
diag: Parallel distribution                         =     2 x     2
diag: Used triangular part                          = Lower
diag: Absolute tolerance                            =  0.100E-15
diag: Orthogonalization factor                      =  0.100E-05
diag: Memory factor                                 =  1.0000


ts: **************************************************************
ts: Save H and S matrices                           =    F
ts: Save DM and EDM matrices                        =    F
ts: Only save the overlap matrix S                  =    F
ts: **************************************************************

************************ Begin: TS CHECKS AND WARNINGS ************************
************************ End: TS CHECKS AND WARNINGS **************************


                     ====================================
                        Single-point calculation
                     ====================================

outcoor: Atomic coordinates (Ang):                          
    0.85492771    3.90281136    0.00000000   1       1  O
   -3.15148660    0.82385413    0.00000000   2       2  N
    1.92851868    1.17400090    0.00000000   2       3  N
    0.97989950   -1.83027589    0.00000000   2       4  N
   -2.15925893   -2.02800480    0.00000000   2       5  N
    3.78531977   -1.11270066    0.00000000   2       6  N
   -1.34593381    0.97625025    0.00000000   3       7  Si
   -0.59943988   -1.09607717    0.00000000   3       8  Si
    0.45318289    2.35051023    0.00000000   3       9  Si
    2.13330203   -0.57651080    0.00000000   3      10  Si
   -3.51606566   -0.84205651    0.00000000   3      11  Si
    2.82452783    1.75472311    0.00000000   4      12  H
   -4.87755169   -1.46921466    0.00000000   4      13  H
    3.99495202   -2.14320400    0.00000000   4      14  H
    4.62090361   -0.48366606    0.00000000   4      15  H
   -2.27908518   -3.08151409    0.00000000   4      16  H
    6.92091105    6.53045617    0.00000000   3      17  Si
    8.78987054    7.79009980    0.00000000   3      18  Si
    8.33093816    3.78871795    0.00000000   3      19  Si
   10.39853088    6.29530917    0.00000000   3      20  Si
    6.98044100    4.84550371    0.00000000   2      21  N
    5.29091185    7.16051640    0.00000000   2      22  N
    9.97482703    4.57980836    0.00000000   2      23  N
    9.07023424    9.26032232    0.00000000   4      24  H
   11.89394226    6.51416171    0.00000000   4      25  H
    5.04645286    8.17898235    0.00000000   4      26  H
    4.46417067    6.50366827    0.00000000   4      27  H
    8.39021392    2.20627592    0.00000000   1      28  O
   10.74648262    3.85284100    0.00000000   4      29  H

outcell: Unit cell vectors (Ang):
       26.037226    0.000000    0.000000
        0.000000   21.164603    0.000000
        0.000000    0.000000    9.854683

outcell: Cell vector modules (Ang)   :   26.037226   21.164603    9.854683
outcell: Cell angles (23,13,12) (deg):     90.0000     90.0000     90.0000
outcell: Cell volume (Ang**3)        :   5430.5962
<dSpData1D:S at geom step 0
  <sparsity:sparsity for geom step 0
    nrows_g=297 nrows=81 sparsity=.1537 nnzs=13554, refcount: 8>
  <dData1D:(new from dSpData1D) n=13554, refcount: 1>
refcount: 1>
new_DM -- step:     1
Initializing Density Matrix...
DM filled with atomic data:
<dSpData2D:DM initialized from atoms
  <sparsity:sparsity for geom step 0
    nrows_g=297 nrows=81 sparsity=.1537 nnzs=13554, refcount: 9>
  <dData2D:DM n=13554 m=8, refcount: 1>
refcount: 1>
     spin moment: S , {S} =   56.00000   0.00000   0.00000  56.00000
No. of atoms with KB's overlaping orbs in proc 0. Max # of overlaps:      29     142

Initializing spin-orbit part of the Hamiltonian
  Adding spin-orbit effects for O 
  Adding spin-orbit effects for N 
  Adding spin-orbit effects for Si
  Adding spin-orbit effects for H 


New grid distribution:   1
           1       1:  150    1:   60    1:   30
           2       1:  150    1:   60   31:   60
           3       1:  150   61:  120    1:   30
           4       1:  150   61:  120   31:   60

InitMesh: MESH =   300 x   240 x   120 =     8640000
InitMesh: (bp) =   150 x   120 x    60 =     1080000
InitMesh: Mesh cutoff (required, used) =   340.000   355.389 Ry
ExtMesh (bp) on 0 =   254 x   164 x   142 =     5915152
New grid distribution:   2
           1      49:  150    1:   35    1:   60
           2       1:   48    1:   34    1:   60
           3      49:  150   36:  120    1:   60
           4       1:   48   35:  120    1:   60
New grid distribution:   3
           1      52:  150    1:   38    1:   60
           2       1:   51    1:   39    1:   60
           3      52:  150   39:  120    1:   60
           4       1:   51   40:  120    1:   60
Setting up quadratic distribution...
ExtMesh (bp) on 0 =   206 x   139 x   172 =     4925048
PhiOnMesh: Number of (b)points on node 0 =               214200
PhiOnMesh: nlist on node 0 =              2569667

stepf: Fermi-Dirac step function

siesta: Program's energy decomposition (eV):
siesta: Ebs     =      -618.213993
siesta: Eions   =      3585.165840
siesta: Ena     =       384.948824
siesta: Ekin    =      3377.488400
siesta: Enl     =     -3309.154229
siesta: Eso     =        -0.003377
siesta: Edftu   =         0.000000
siesta: DEna    =       154.851296
siesta: DUscf   =        82.369986
siesta: DUext   =         0.000000
siesta: Exc     =     -1205.664849
siesta: eta*DQ  =         0.000000
siesta: Emadel  =         0.000000
siesta: Emeta   =         0.000000
siesta: Emolmec =         0.000000
siesta: Ekinion =         0.000000
siesta: Eharris =     -4020.124881
siesta: Etot    =     -4100.329789
siesta: FreeEng =     -4100.331299

        iscf     Eharris(eV)        E_KS(eV)     FreeEng(eV)     dDmax    Ef(eV) dHmax(eV)
   scf:    1    -4020.124881    -4100.329789    -4100.331299  0.965117 -4.889056 21.637465
     spin moment: S , {S} =    2.00786  -0.00000   0.00000   2.00786
timer: Routine,Calls,Time,% = IterSCF        1      13.232  18.43
   scf:    2    -4148.399676    -4136.422768    -4136.427512  0.457762 -4.231715 11.557957
     spin moment: S , {S} =    1.96400   0.00000   0.00000   1.96400
   scf:    3    -4107.583596    -4133.580161    -4133.605508  0.430344 -4.352605 11.889510
     spin moment: S , {S} =    2.16053   0.00000  -0.00000   2.16053
   scf:    4    -4149.982228    -4145.228543    -4145.228543  0.303896 -3.937517  5.952413
     spin moment: S , {S} =    0.00010  -0.00000  -0.00000   0.00010
   scf:    5    -4146.555871    -4146.006429    -4146.006429  0.039608 -3.728879  4.117450
     spin moment: S , {S} =    0.00006  -0.00000  -0.00000   0.00006
   scf:    6    -4146.744849    -4146.382913    -4146.382913  0.023443 -3.567101  2.139095
     spin moment: S , {S} =    0.00003   0.00000   0.00000   0.00003
   scf:    7    -4146.752053    -4146.565052    -4146.565052  0.022702 -3.750648  0.876890
     spin moment: S , {S} =    0.00001  -0.00000   0.00000   0.00001
   scf:    8    -4146.678586    -4146.620164    -4146.620164  0.012064 -3.679155  0.509877
     spin moment: S , {S} =    0.00000  -0.00000   0.00000   0.00000
   scf:    9    -4146.661878    -4146.640252    -4146.640252  0.007127 -3.813786  0.361221
     spin moment: S , {S} =    0.00000  -0.00000   0.00000   0.00000
   scf:   10    -4146.691525    -4146.659950    -4146.659950  0.020912 -3.805915  0.223655
     spin moment: S , {S} =    0.00000  -0.00000  -0.00000  -0.00000
   scf:   11    -4146.663439    -4146.661645    -4146.661645  0.005952 -3.800367  0.061270
     spin moment: S , {S} =    0.00000   0.00000   0.00000  -0.00000
   scf:   12    -4146.662739    -4146.662208    -4146.662208  0.001068 -3.799389  0.024731
     spin moment: S , {S} =    0.00000  -0.00000   0.00000   0.00000
   scf:   13    -4146.662634    -4146.662417    -4146.662417  0.001383 -3.795614  0.016062
     spin moment: S , {S} =    0.00000   0.00000   0.00000   0.00000
   scf:   14    -4146.662664    -4146.662534    -4146.662534  0.001141 -3.793732  0.012487
     spin moment: S , {S} =    0.00000  -0.00000  -0.00000   0.00000
   scf:   15    -4146.662649    -4146.662587    -4146.662587  0.001011 -3.793763  0.009446
     spin moment: S , {S} =    0.00000   0.00000   0.00000   0.00000
   scf:   16    -4146.662665    -4146.662622    -4146.662622  0.001021 -3.793910  0.006557
     spin moment: S , {S} =    0.00000   0.00000   0.00000   0.00000
   scf:   17    -4146.662647    -4146.662633    -4146.662633  0.000588 -3.793909  0.004714
     spin moment: S , {S} =    0.00000   0.00000   0.00000   0.00000
   scf:   18    -4146.662645    -4146.662638    -4146.662638  0.000409 -3.793894  0.002892
     spin moment: S , {S} =    0.00000   0.00000   0.00000   0.00000
   scf:   19    -4146.662644    -4146.662641    -4146.662641  0.000293 -3.793905  0.001805
     spin moment: S , {S} =    0.00000   0.00000   0.00000   0.00000
   scf:   20    -4146.662643    -4146.662642    -4146.662642  0.000173 -3.793917  0.001149
     spin moment: S , {S} =    0.00000   0.00000   0.00000   0.00000
   scf:   21    -4146.662643    -4146.662642    -4146.662642  0.000182 -3.793937  0.000506
     spin moment: S , {S} =    0.00000   0.00000  -0.00000   0.00000
   scf:   22    -4146.662643    -4146.662643    -4146.662643  0.000105 -3.793963  0.000256
     spin moment: S , {S} =    0.00000   0.00000  -0.00000   0.00000
   scf:   23    -4146.662643    -4146.662643    -4146.662643  0.000026 -3.793973  0.000201
     spin moment: S , {S} =    0.00000   0.00000   0.00000   0.00000
   scf:   24    -4146.662643    -4146.662643    -4146.662643  0.000008 -3.793976  0.000116
     spin moment: S , {S} =    0.00000   0.00000   0.00000   0.00000
mix: Pulay -- resetting history
   scf:   25    -4146.662643    -4146.662643    -4146.662643  0.000007 -3.793971  0.000052
     spin moment: S , {S} =    0.00000   0.00000   0.00000   0.00000
   scf:   26    -4146.662643    -4146.662643    -4146.662643  0.000008 -3.793966  0.000031
     spin moment: S , {S} =    0.00000   0.00000   0.00000   0.00000
   scf:   27    -4146.662643    -4146.662643    -4146.662643  0.000002 -3.793964  0.000023
     spin moment: S , {S} =    0.00000   0.00000   0.00000   0.00000
   scf:   28    -4146.662643    -4146.662643    -4146.662643  0.000002 -3.793961  0.000015
     spin moment: S , {S} =    0.00000   0.00000   0.00000   0.00000
   scf:   29    -4146.662643    -4146.662643    -4146.662643  0.000001 -3.793961  0.000010
     spin moment: S , {S} =    0.00000   0.00000   0.00000   0.00000
   scf:   30    -4146.662643    -4146.662643    -4146.662643  0.000001 -3.793960  0.000005
     spin moment: S , {S} =    0.00000   0.00000   0.00000   0.00000
   scf:   31    -4146.662643    -4146.662643    -4146.662643  0.000001 -3.793960  0.000002
     spin moment: S , {S} =    0.00000   0.00000   0.00000   0.00000
   scf:   32    -4146.662643    -4146.662643    -4146.662643  0.000000 -3.793960  0.000001
     spin moment: S , {S} =    0.00000   0.00000   0.00000   0.00000
   scf:   33    -4146.662643    -4146.662643    -4146.662643  0.000000 -3.793960  0.000001
     spin moment: S , {S} =    0.00000   0.00000   0.00000   0.00000

SCF Convergence by DM+H criterion
max |DM_out - DM_in|         :     0.0000001359
max |H_out - H_in|      (eV) :     0.0000005926
SCF cycle converged after 33 iterations

Using DM_out to compute the final energy and forces
No. of atoms with KB's overlaping orbs in proc 0. Max # of overlaps:      29     142

siesta: E_KS(eV) =            -4146.6626

siesta: E_KS - E_eggbox =     -4146.6626
     spin moment: S , {S} =    0.00000   0.00000   0.00000   0.00000

siesta: Atomic forces (eV/Ang):
     1    2.331834   -3.005447   -0.000000
     2   -0.013950   -0.009863    0.000000
     3   -0.074304    0.043927   -0.000000
     4   -0.078531   -0.035848    0.000000
     5    0.060332   -0.028661    0.000000
     6   -0.100586   -0.000668   -0.000000
     7   -0.007390    0.004988   -0.000000
     8    0.054899    0.021292    0.000000
     9    0.076870   -0.043084    0.000000
    10    0.181151    0.021738   -0.000000
    11   -0.027115    0.029036    0.000000
    12   -0.092912   -0.036033    0.000000
    13    0.055099    0.050513    0.000000
    14    0.001717    0.092785    0.000000
    15    0.184733    0.120242   -0.000000
    16    0.123402    0.126985   -0.000000
    17   -0.125632    0.041290    0.000000
    18    0.017583   -0.017315    0.000000
    19   -0.008335    0.105951   -0.000000
    20   -0.015752    0.019746    0.000000
    21    0.045752   -0.086336   -0.000000
    22    0.097311    0.013121   -0.000000
    23   -0.047979   -0.090914   -0.000000
    24   -0.035463    0.097968    0.000000
    25   -0.137312    0.145595   -0.000000
    26   -0.091781    0.221725    0.000000
    27    0.031019    0.037197    0.000000
    28    1.810436   -0.377682    0.000000
    29    0.098264    0.088566    0.000000
----------------------------------------
   Tot    4.313362   -2.449185   -0.000000
----------------------------------------
   Max    3.005447
   Res    0.458115    sqrt( Sum f_i^2 / 3N )
----------------------------------------
   Max    3.005447    constrained

Stress tensor Voigt[x,y,z,yz,xz,xy] (kbar):        0.28        0.03       -0.10        0.00        0.00        0.41
(Free)E + p*V (eV/cell)    -4146.9050
Target enthalpy (eV/cell)    -4146.6626

mulliken: Atomic and Orbital Populations:

Species: O                   

Atom      Orb        Charge      Spin       Svec
----------------------------------------------------------------
    1  1 2s         1.74391   0.00000      0.000   0.000   0.000
    1  2 2s         0.06822   0.00000     -0.000  -0.000   0.000
    1  3 2py        1.43054   0.00000      0.000  -0.000   0.000
    1  4 2pz        1.54319   0.00000     -0.000  -0.000   0.000
    1  5 2px        1.61644   0.00000      0.000   0.000  -0.000
    1  6 2py        0.04046   0.00000     -0.000   0.000   0.000
    1  7 2pz       -0.00336   0.00000     -0.000   0.000   0.000
    1  8 2px        0.00743   0.00000      0.000   0.000   0.000
    1  9 3Pdxy      0.00744   0.00000      0.000  -0.000   0.000
    1 10 3Pdyz      0.00942   0.00000      0.000   0.000  -0.000
    1 11 3Pdz2      0.00169   0.00000     -0.000  -0.000   0.000
    1 12 3Pdxz      0.00042   0.00000     -0.000  -0.000  -0.000
    1 13 3Pdx2-y2   0.00710   0.00000     -0.000  -0.000  -0.000
    1     Total     6.47292   0.00000     -0.000  -0.000   0.000

   28  1 2s         1.73267   0.00000      0.000   0.000   0.000
   28  2 2s         0.07339   0.00000     -0.000  -0.000   0.000
   28  3 2py        1.42280   0.00000     -0.000   0.000   0.000
   28  4 2pz        1.53854   0.00000     -0.000  -0.000   0.000
   28  5 2px        1.63316   0.00000     -0.000   0.000  -0.000
   28  6 2py        0.04320   0.00000     -0.000  -0.000   0.000
   28  7 2pz       -0.00151   0.00000     -0.000  -0.000   0.000
   28  8 2px        0.01511   0.00000      0.000  -0.000   0.000
   28  9 3Pdxy      0.00705   0.00000      0.000  -0.000   0.000
   28 10 3Pdyz      0.01034   0.00000     -0.000   0.000  -0.000
   28 11 3Pdz2      0.00128   0.00000      0.000  -0.000  -0.000
   28 12 3Pdxz     -0.00017   0.00000     -0.000   0.000  -0.000
   28 13 3Pdx2-y2   0.00778   0.00000      0.000   0.000  -0.000
   28     Total     6.48365   0.00000     -0.000   0.000   0.000

----------------------------------------------------------------
Total              12.95656   0.00000     -0.000  -0.000   0.000


Species: N                   

Atom      Orb        Charge      Spin       Svec
----------------------------------------------------------------
    2  1 2s         1.54985   0.00000     -0.000   0.000  -0.000
    2  2 2s         0.08429   0.00000      0.000  -0.000   0.000
    2  3 2py        1.03176   0.00000      0.000   0.000  -0.000
    2  4 2pz        1.22387   0.00000      0.000   0.000   0.000
    2  5 2px        1.00545   0.00000      0.000  -0.000  -0.000
    2  6 2py        0.19279   0.00000     -0.000   0.000   0.000
    2  7 2pz        0.05460   0.00000      0.000  -0.000   0.000
    2  8 2px        0.19076   0.00000     -0.000   0.000   0.000
    2  9 3Pdxy      0.00842   0.00000      0.000  -0.000   0.000
    2 10 3Pdyz      0.01083   0.00000     -0.000  -0.000  -0.000
    2 11 3Pdz2      0.00196   0.00000     -0.000  -0.000  -0.000
    2 12 3Pdxz      0.00754   0.00000      0.000  -0.000   0.000
    2 13 3Pdx2-y2   0.00892   0.00000      0.000  -0.000  -0.000
    2     Total     5.37104   0.00000      0.000   0.000   0.000

    3  1 2s         1.40715   0.00000      0.000   0.000  -0.000
    3  2 2s         0.11443   0.00000     -0.000  -0.000   0.000
    3  3 2py        0.94004   0.00000      0.000  -0.000  -0.000
    3  4 2pz        1.53845   0.00000     -0.000   0.000  -0.000
    3  5 2px        1.09809   0.00000      0.000   0.000  -0.000
    3  6 2py        0.24803   0.00000     -0.000   0.000   0.000
    3  7 2pz        0.00867   0.00000      0.000  -0.000   0.000
    3  8 2px        0.16896   0.00000     -0.000   0.000   0.000
    3  9 3Pdxy      0.00428   0.00000     -0.000  -0.000   0.000
    3 10 3Pdyz      0.00415   0.00000      0.000  -0.000  -0.000
    3 11 3Pdz2      0.00082   0.00000      0.000   0.000   0.000
    3 12 3Pdxz      0.00266   0.00000     -0.000  -0.000  -0.000
    3 13 3Pdx2-y2   0.00304   0.00000      0.000   0.000  -0.000
    3     Total     5.53876   0.00000      0.000   0.000  -0.000

    4  1 2s         1.46868   0.00000     -0.000   0.000  -0.000
    4  2 2s         0.11677   0.00000      0.000  -0.000   0.000
    4  3 2py        1.10488   0.00000     -0.000   0.000   0.000
    4  4 2pz        1.29263   0.00000      0.000   0.000  -0.000
    4  5 2px        0.84200   0.00000     -0.000   0.000  -0.000
    4  6 2py        0.15567   0.00000     -0.000   0.000   0.000
    4  7 2pz        0.05370   0.00000     -0.000   0.000   0.000
    4  8 2px        0.28650   0.00000      0.000  -0.000   0.000
    4  9 3Pdxy      0.00855   0.00000     -0.000  -0.000   0.000
    4 10 3Pdyz      0.01080   0.00000     -0.000  -0.000  -0.000
    4 11 3Pdz2      0.00132   0.00000      0.000  -0.000   0.000
    4 12 3Pdxz      0.00494   0.00000     -0.000  -0.000  -0.000
    4 13 3Pdx2-y2   0.00851   0.00000     -0.000  -0.000  -0.000
    4     Total     5.35492   0.00000     -0.000   0.000   0.000

    5  1 2s         1.37365   0.00000     -0.000   0.000  -0.000
    5  2 2s         0.12890   0.00000      0.000  -0.000   0.000
    5  3 2py        1.02713   0.00000     -0.000   0.000  -0.000
    5  4 2pz        1.50097   0.00000     -0.000   0.000  -0.000
    5  5 2px        1.05905   0.00000      0.000  -0.000  -0.000
    5  6 2py        0.20326   0.00000      0.000  -0.000   0.000
    5  7 2pz        0.01348   0.00000      0.000  -0.000   0.000
    5  8 2px        0.20248   0.00000     -0.000   0.000   0.000
    5  9 3Pdxy      0.00369   0.00000      0.000   0.000  -0.000
    5 10 3Pdyz      0.00249   0.00000     -0.000   0.000   0.000
    5 11 3Pdz2      0.00137   0.00000     -0.000   0.000  -0.000
    5 12 3Pdxz      0.00685   0.00000      0.000   0.000  -0.000
    5 13 3Pdx2-y2   0.00571   0.00000      0.000  -0.000   0.000
    5     Total     5.52902   0.00000     -0.000   0.000  -0.000

    6  1 2s         1.26662   0.00000     -0.000  -0.000  -0.000
    6  2 2s         0.18006   0.00000      0.000   0.000   0.000
    6  3 2py        1.08095   0.00000      0.000  -0.000  -0.000
    6  4 2pz        1.57549   0.00000     -0.000  -0.000  -0.000
    6  5 2px        0.97222   0.00000      0.000   0.000  -0.000
    6  6 2py        0.18731   0.00000     -0.000  -0.000   0.000
    6  7 2pz        0.02934   0.00000     -0.000   0.000   0.000
    6  8 2px        0.25259   0.00000     -0.000  -0.000   0.000
    6  9 3Pdxy      0.00262   0.00000      0.000  -0.000   0.000
    6 10 3Pdyz      0.00012   0.00000      0.000   0.000  -0.000
    6 11 3Pdz2      0.00165   0.00000     -0.000  -0.000   0.000
    6 12 3Pdxz      0.00290   0.00000      0.000  -0.000  -0.000
    6 13 3Pdx2-y2   0.00302   0.00000      0.000  -0.000   0.000
    6     Total     5.55490   0.00000      0.000  -0.000  -0.000

   21  1 2s         1.41125   0.00000      0.000   0.000  -0.000
   21  2 2s         0.13244   0.00000     -0.000   0.000   0.000
   21  3 2py        0.87197   0.00000     -0.000  -0.000  -0.000
   21  4 2pz        1.29403   0.00000      0.000   0.000   0.000
   21  5 2px        1.15625   0.00000      0.000  -0.000  -0.000
   21  6 2py        0.28075   0.00000     -0.000   0.000  -0.000
   21  7 2pz        0.04999   0.00000     -0.000  -0.000   0.000
   21  8 2px        0.16511   0.00000     -0.000   0.000   0.000
   21  9 3Pdxy      0.00651   0.00000      0.000  -0.000   0.000
   21 10 3Pdyz      0.00520   0.00000     -0.000  -0.000  -0.000
   21 11 3Pdz2     -0.00003   0.00000      0.000  -0.000   0.000
   21 12 3Pdxz      0.00581   0.00000     -0.000   0.000  -0.000
   21 13 3Pdx2-y2   0.00558   0.00000     -0.000  -0.000  -0.000
   21     Total     5.38485   0.00000      0.000  -0.000   0.000

   22  1 2s         1.28691   0.00000      0.000   0.000   0.000
   22  2 2s         0.17104   0.00000     -0.000  -0.000  -0.000
   22  3 2py        1.07030   0.00000     -0.000   0.000  -0.000
   22  4 2pz        1.55902   0.00000      0.000   0.000  -0.000
   22  5 2px        1.00349   0.00000      0.000  -0.000  -0.000
   22  6 2py        0.19304   0.00000     -0.000  -0.000   0.000
   22  7 2pz        0.02777   0.00000     -0.000   0.000   0.000
   22  8 2px        0.23248   0.00000     -0.000   0.000   0.000
   22  9 3Pdxy      0.00353   0.00000     -0.000  -0.000   0.000
   22 10 3Pdyz      0.00013   0.00000     -0.000   0.000   0.000
   22 11 3Pdz2      0.00258   0.00000     -0.000   0.000   0.000
   22 12 3Pdxz      0.00281   0.00000     -0.000   0.000  -0.000
   22 13 3Pdx2-y2   0.00335   0.00000      0.000   0.000  -0.000
   22     Total     5.55645   0.00000      0.000   0.000  -0.000

   23  1 2s         1.39818   0.00000     -0.000  -0.000   0.000
   23  2 2s         0.11712   0.00000      0.000   0.000  -0.000
   23  3 2py        0.99638   0.00000      0.000   0.000   0.000
   23  4 2pz        1.51913   0.00000      0.000   0.000  -0.000
   23  5 2px        1.07529   0.00000     -0.000  -0.000  -0.000
   23  6 2py        0.22125   0.00000     -0.000  -0.000  -0.000
   23  7 2pz        0.00541   0.00000     -0.000  -0.000   0.000
   23  8 2px        0.19226   0.00000      0.000   0.000   0.000
   23  9 3Pdxy      0.00526   0.00000      0.000   0.000   0.000
   23 10 3Pdyz      0.00451   0.00000     -0.000  -0.000  -0.000
   23 11 3Pdz2      0.00052   0.00000     -0.000  -0.000  -0.000
   23 12 3Pdxz      0.00229   0.00000      0.000  -0.000  -0.000
   23 13 3Pdx2-y2   0.00118   0.00000     -0.000  -0.000  -0.000
   23     Total     5.53877   0.00000     -0.000  -0.000  -0.000

----------------------------------------------------------------
Total              56.78528   0.00000      0.000   0.000  -0.000


Species: Si                  

Atom      Orb        Charge      Spin       Svec
----------------------------------------------------------------
    7  1 3s         0.68905   0.00000      0.000   0.000   0.000
    7  2 3s         0.35779   0.00000     -0.000  -0.000   0.000
    7  3 3py        0.47626   0.00000      0.000  -0.000   0.000
    7  4 3pz        0.70079   0.00000      0.000   0.000   0.000
    7  5 3px        0.13696   0.00000      0.000  -0.000  -0.000
    7  6 3py        0.27056   0.00000     -0.000   0.000   0.000
    7  7 3pz        0.25764   0.00000     -0.000  -0.000   0.000
    7  8 3px        0.42175   0.00000      0.000   0.000   0.000
    7  9 3Pdxy      0.24272   0.00000     -0.000   0.000   0.000
    7 10 3Pdyz      0.03033   0.00000     -0.000   0.000  -0.000
    7 11 3Pdz2      0.01208   0.00000     -0.000   0.000  -0.000
    7 12 3Pdxz      0.13849   0.00000     -0.000   0.000   0.000
    7 13 3Pdx2-y2   0.11315   0.00000      0.000  -0.000   0.000
    7     Total     3.84759   0.00000      0.000   0.000   0.000

    8  1 3s         0.64812   0.00000     -0.000  -0.000  -0.000
    8  2 3s         0.37134   0.00000      0.000   0.000   0.000
    8  3 3py        0.38699   0.00000     -0.000   0.000  -0.000
    8  4 3pz        0.52561   0.00000      0.000   0.000  -0.000
    8  5 3px       -0.03172   0.00000      0.000   0.000  -0.000
    8  6 3py        0.30463   0.00000      0.000  -0.000   0.000
    8  7 3pz        0.20237   0.00000     -0.000  -0.000   0.000
    8  8 3px        0.52021   0.00000     -0.000  -0.000   0.000
    8  9 3Pdxy      0.25872   0.00000      0.000   0.000   0.000
    8 10 3Pdyz      0.11049   0.00000      0.000   0.000  -0.000
    8 11 3Pdz2      0.01332   0.00000      0.000   0.000  -0.000
    8 12 3Pdxz      0.15586   0.00000      0.000  -0.000  -0.000
    8 13 3Pdx2-y2   0.18803   0.00000     -0.000   0.000  -0.000
    8     Total     3.65396   0.00000      0.000   0.000  -0.000

    9  1 3s         0.63042   0.00000     -0.000   0.000   0.000
    9  2 3s         0.35547   0.00000      0.000  -0.000  -0.000
    9  3 3py        0.08526   0.00000     -0.000  -0.000   0.000
    9  4 3pz        0.48310   0.00000     -0.000  -0.000  -0.000
    9  5 3px        0.37247   0.00000     -0.000  -0.000  -0.000
    9  6 3py        0.43923   0.00000     -0.000   0.000  -0.000
    9  7 3pz        0.18415   0.00000     -0.000  -0.000  -0.000
    9  8 3px        0.26739   0.00000      0.000   0.000  -0.000
    9  9 3Pdxy      0.31441   0.00000     -0.000  -0.000  -0.000
    9 10 3Pdyz      0.19181   0.00000     -0.000  -0.000  -0.000
    9 11 3Pdz2      0.01624   0.00000     -0.000  -0.000   0.000
    9 12 3Pdxz      0.08805   0.00000     -0.000   0.000   0.000
    9 13 3Pdx2-y2   0.15492   0.00000      0.000  -0.000   0.000
    9     Total     3.58292   0.00000     -0.000  -0.000  -0.000

   10  1 3s         0.48343   0.00000      0.000  -0.000   0.000
   10  2 3s         0.37977   0.00000      0.000   0.000   0.000
   10  3 3py        0.23934   0.00000     -0.000   0.000   0.000
   10  4 3pz        0.40948   0.00000     -0.000  -0.000   0.000
   10  5 3px        0.10252   0.00000      0.000  -0.000  -0.000
   10  6 3py        0.33609   0.00000      0.000  -0.000   0.000
   10  7 3pz        0.22083   0.00000      0.000  -0.000   0.000
   10  8 3px        0.42231   0.00000      0.000   0.000   0.000
   10  9 3Pdxy      0.16303   0.00000     -0.000  -0.000  -0.000
   10 10 3Pdyz      0.14906   0.00000      0.000   0.000   0.000
   10 11 3Pdz2      0.01134   0.00000      0.000   0.000   0.000
   10 12 3Pdxz      0.16989   0.00000     -0.000   0.000   0.000
   10 13 3Pdx2-y2   0.32157   0.00000      0.000  -0.000  -0.000
   10     Total     3.40865   0.00000     -0.000  -0.000   0.000

   11  1 3s         0.55853   0.00000      0.000  -0.000   0.000
   11  2 3s         0.38199   0.00000     -0.000   0.000   0.000
   11  3 3py        0.30416   0.00000     -0.000   0.000  -0.000
   11  4 3pz        0.54351   0.00000      0.000  -0.000  -0.000
   11  5 3px        0.13837   0.00000      0.000  -0.000   0.000
   11  6 3py        0.30296   0.00000      0.000  -0.000   0.000
   11  7 3pz        0.17687   0.00000     -0.000   0.000  -0.000
   11  8 3px        0.43197   0.00000     -0.000   0.000   0.000
   11  9 3Pdxy      0.24373   0.00000      0.000   0.000   0.000
   11 10 3Pdyz      0.12475   0.00000      0.000   0.000  -0.000
   11 11 3Pdz2      0.00939   0.00000     -0.000   0.000   0.000
   11 12 3Pdxz      0.05265   0.00000     -0.000   0.000   0.000
   11 13 3Pdx2-y2   0.18377   0.00000     -0.000  -0.000   0.000
   11     Total     3.45265   0.00000      0.000  -0.000  -0.000

   17  1 3s         0.64838   0.00000      0.000  -0.000   0.000
   17  2 3s         0.35805   0.00000     -0.000  -0.000  -0.000
   17  3 3py        0.25004   0.00000     -0.000   0.000   0.000
   17  4 3pz        0.42677   0.00000     -0.000  -0.000   0.000
   17  5 3px        0.22819   0.00000     -0.000  -0.000   0.000
   17  6 3py        0.37047   0.00000     -0.000  -0.000  -0.000
   17  7 3pz        0.21297   0.00000      0.000  -0.000   0.000
   17  8 3px        0.37644   0.00000      0.000   0.000  -0.000
   17  9 3Pdxy      0.29578   0.00000     -0.000   0.000   0.000
   17 10 3Pdyz      0.13965   0.00000     -0.000  -0.000   0.000
   17 11 3Pdz2      0.00978   0.00000      0.000   0.000   0.000
   17 12 3Pdxz      0.14759   0.00000     -0.000  -0.000   0.000
   17 13 3Pdx2-y2   0.16967   0.00000     -0.000  -0.000   0.000
   17     Total     3.63379   0.00000     -0.000  -0.000   0.000

   18  1 3s         0.74654   0.00000     -0.000   0.000   0.000
   18  2 3s         0.33801   0.00000      0.000  -0.000   0.000
   18  3 3py        0.08918   0.00000      0.000  -0.000   0.000
   18  4 3pz        0.83142   0.00000      0.000  -0.000   0.000
   18  5 3px        0.54551   0.00000     -0.000  -0.000   0.000
   18  6 3py        0.51340   0.00000     -0.000   0.000   0.000
   18  7 3pz        0.19717   0.00000      0.000   0.000   0.000
   18  8 3px        0.25204   0.00000      0.000   0.000   0.000
   18  9 3Pdxy      0.10892   0.00000      0.000  -0.000  -0.000
   18 10 3Pdyz      0.02768   0.00000      0.000   0.000  -0.000
   18 11 3Pdz2      0.00940   0.00000     -0.000   0.000  -0.000
   18 12 3Pdxz      0.02917   0.00000      0.000   0.000  -0.000
   18 13 3Pdx2-y2   0.10659   0.00000     -0.000  -0.000   0.000
   18     Total     3.79504   0.00000     -0.000   0.000   0.000

   19  1 3s         0.45497   0.00000      0.000   0.000   0.000
   19  2 3s         0.36514   0.00000     -0.000   0.000  -0.000
   19  3 3py        0.07949   0.00000     -0.000  -0.000  -0.000
   19  4 3pz        0.41939   0.00000      0.000   0.000  -0.000
   19  5 3px        0.34835   0.00000      0.000   0.000  -0.000
   19  6 3py        0.47080   0.00000      0.000  -0.000  -0.000
   19  7 3pz        0.18688   0.00000      0.000  -0.000  -0.000
   19  8 3px        0.24201   0.00000      0.000  -0.000   0.000
   19  9 3Pdxy      0.34852   0.00000      0.000   0.000  -0.000
   19 10 3Pdyz      0.19000   0.00000      0.000   0.000  -0.000
   19 11 3Pdz2      0.01590   0.00000      0.000  -0.000  -0.000
   19 12 3Pdxz      0.08454   0.00000      0.000  -0.000   0.000
   19 13 3Pdx2-y2   0.22869   0.00000     -0.000   0.000  -0.000
   19     Total     3.43468   0.00000      0.000   0.000  -0.000

   20  1 3s         0.67299   0.00000     -0.000   0.000  -0.000
   20  2 3s         0.37991   0.00000      0.000  -0.000  -0.000
   20  3 3py        0.33804   0.00000     -0.000  -0.000  -0.000
   20  4 3pz        0.57977   0.00000      0.000  -0.000  -0.000
   20  5 3px        0.13841   0.00000      0.000  -0.000  -0.000
   20  6 3py        0.29034   0.00000      0.000  -0.000   0.000
   20  7 3pz        0.16339   0.00000     -0.000   0.000  -0.000
   20  8 3px        0.49920   0.00000     -0.000   0.000   0.000
   20  9 3Pdxy      0.10283   0.00000     -0.000   0.000  -0.000
   20 10 3Pdyz      0.13507   0.00000     -0.000  -0.000  -0.000
   20 11 3Pdz2      0.00731   0.00000     -0.000   0.000   0.000
   20 12 3Pdxz      0.02690   0.00000      0.000  -0.000  -0.000
   20 13 3Pdx2-y2   0.17069   0.00000      0.000  -0.000  -0.000
   20     Total     3.50486   0.00000     -0.000   0.000  -0.000

----------------------------------------------------------------
Total              89.09942   0.00000     -0.000   0.000   0.000


Species: H                   

Atom      Orb        Charge      Spin       Svec
----------------------------------------------------------------
   12  1 1s         0.49010   0.00000     -0.000  -0.000  -0.000
   12  2 1s         0.18593   0.00000      0.000   0.000   0.000
   12  3 2Ppy       0.02872   0.00000     -0.000   0.000  -0.000
   12  4 2Ppz       0.03543   0.00000      0.000  -0.000  -0.000
   12  5 2Ppx       0.02317   0.00000     -0.000  -0.000  -0.000
   12     Total     0.76336   0.00000     -0.000  -0.000  -0.000

   13  1 1s         1.02038   0.00000     -0.000   0.000  -0.000
   13  2 1s         0.09461   0.00000      0.000  -0.000   0.000
   13  3 2Ppy       0.01983   0.00000      0.000  -0.000  -0.000
   13  4 2Ppz       0.02015   0.00000     -0.000   0.000  -0.000
   13  5 2Ppx       0.03322   0.00000      0.000  -0.000   0.000
   13     Total     1.18819   0.00000     -0.000   0.000  -0.000

   14  1 1s         0.46465   0.00000     -0.000   0.000  -0.000
   14  2 1s         0.19971   0.00000      0.000   0.000   0.000
   14  3 2Ppy       0.01833   0.00000     -0.000   0.000  -0.000
   14  4 2Ppz       0.04709   0.00000     -0.000   0.000   0.000
   14  5 2Ppx       0.01735   0.00000     -0.000  -0.000   0.000
   14     Total     0.74713   0.00000     -0.000   0.000  -0.000

   15  1 1s         0.46510   0.00000      0.000   0.000  -0.000
   15  2 1s         0.19968   0.00000      0.000  -0.000   0.000
   15  3 2Ppy       0.00516   0.00000     -0.000   0.000  -0.000
   15  4 2Ppz       0.04793   0.00000     -0.000  -0.000  -0.000
   15  5 2Ppx       0.02782   0.00000      0.000  -0.000   0.000
   15     Total     0.74568   0.00000      0.000  -0.000  -0.000

   16  1 1s         0.50797   0.00000     -0.000   0.000  -0.000
   16  2 1s         0.18761   0.00000      0.000   0.000   0.000
   16  3 2Ppy       0.03002   0.00000      0.000  -0.000   0.000
   16  4 2Ppz       0.03954   0.00000      0.000  -0.000   0.000
   16  5 2Ppx       0.02320   0.00000      0.000  -0.000  -0.000
   16     Total     0.78834   0.00000      0.000  -0.000  -0.000

   24  1 1s         1.05782   0.00000     -0.000  -0.000  -0.000
   24  2 1s         0.07621   0.00000      0.000   0.000   0.000
   24  3 2Ppy       0.03146   0.00000      0.000   0.000   0.000
   24  4 2Ppz       0.03139   0.00000      0.000   0.000   0.000
   24  5 2Ppx       0.01752   0.00000      0.000   0.000  -0.000
   24     Total     1.21439   0.00000     -0.000  -0.000  -0.000

   25  1 1s         1.04748   0.00000      0.000   0.000  -0.000
   25  2 1s         0.08431   0.00000     -0.000  -0.000  -0.000
   25  3 2Ppy       0.01170   0.00000     -0.000   0.000  -0.000
   25  4 2Ppz       0.01785   0.00000     -0.000  -0.000  -0.000
   25  5 2Ppx       0.03642   0.00000     -0.000   0.000   0.000
   25     Total     1.19776   0.00000      0.000   0.000  -0.000

   26  1 1s         0.47620   0.00000      0.000   0.000   0.000
   26  2 1s         0.19886   0.00000     -0.000  -0.000   0.000
   26  3 2Ppy       0.01871   0.00000      0.000  -0.000   0.000
   26  4 2Ppz       0.05173   0.00000     -0.000   0.000   0.000
   26  5 2Ppx       0.01613   0.00000      0.000   0.000  -0.000
   26     Total     0.76164   0.00000      0.000   0.000   0.000

   27  1 1s         0.46470   0.00000      0.000   0.000   0.000
   27  2 1s         0.19710   0.00000     -0.000  -0.000   0.000
   27  3 2Ppy       0.00591   0.00000     -0.000  -0.000  -0.000
   27  4 2Ppz       0.04322   0.00000     -0.000  -0.000   0.000
   27  5 2Ppx       0.02862   0.00000      0.000   0.000  -0.000
   27     Total     0.73955   0.00000      0.000   0.000  -0.000

   29  1 1s         0.48301   0.00000     -0.000  -0.000  -0.000
   29  2 1s         0.18841   0.00000      0.000   0.000   0.000
   29  3 2Ppy       0.02519   0.00000      0.000  -0.000  -0.000
   29  4 2Ppz       0.03415   0.00000     -0.000  -0.000  -0.000
   29  5 2Ppx       0.02378   0.00000      0.000   0.000  -0.000
   29     Total     0.75454   0.00000     -0.000  -0.000  -0.000

----------------------------------------------------------------
Total              98.00000   0.00000      0.000   0.000   0.000


siesta: Eigenvalues (eV):
ik =     1
  -22.0257  -22.0257  -21.9001  -21.9001  -21.6908  -21.6908  -21.4781  -21.4781  -21.3044  -21.3044
  -21.0719  -21.0719  -20.7928  -20.7928  -19.8436  -19.8436  -19.4848  -19.4848  -19.3723  -19.3723
  -14.7138  -14.7138  -13.8873  -13.8873  -13.2940  -13.2940  -13.1620  -13.1620  -13.0984  -13.0984
  -12.7888  -12.7888  -12.7799  -12.7799  -12.4540  -12.4540  -12.3461  -12.3461  -11.9483  -11.9483
  -11.4068  -11.4068  -10.7705  -10.7705  -10.7323  -10.7323  -10.6559  -10.6559  -10.0757  -10.0757
   -9.5622   -9.5622   -9.1749   -9.1749   -8.9688   -8.9688   -8.7556   -8.7556   -8.6226   -8.6226
   -8.6022   -8.6022   -8.3985   -8.3985   -8.1859   -8.1859   -7.7705   -7.7705   -7.7033   -7.7033
   -7.6880   -7.6880   -7.4280   -7.4280   -7.2544   -7.2544   -6.8089   -6.8089   -6.7771   -6.7771
   -6.5486   -6.5486   -6.5408   -6.5408   -6.2691   -6.2691   -6.1830   -6.1830   -6.1672   -6.1672
   -5.9327   -5.9327   -5.8802   -5.8802   -5.4473   -5.4473   -4.3754   -4.3754   -3.2096   -3.2096
   -2.3959   -2.3959   -2.2985   -2.2985   -2.2461   -2.2461   -1.9713   -1.9713   -1.8636   -1.8636
   -1.8476   -1.8476   -1.7635   -1.7635   -1.5859   -1.5859   -1.4837   -1.4837   -1.2461   -1.2461
   -0.9520   -0.9520   -0.7811   -0.7811   -0.4594   -0.4594   -0.1860   -0.1860    0.2983    0.2983
    0.3276    0.3276    0.3386    0.3386    0.6508    0.6508    0.7640    0.7640    0.8464    0.8464
    1.1891    1.1891    1.3249    1.3249    1.4041    1.4041    1.4573    1.4573    1.5291    1.5291
    1.7179    1.7179    1.9181    1.9181    2.2604    2.2604    2.4380    2.4380    2.6380    2.6380
    2.6998    2.6998    2.9605    2.9605    3.0518    3.0518    3.1468    3.1468    3.3153    3.3153
    3.3863    3.3863    3.7545    3.7545    3.9074    3.9074    4.1417    4.1417    4.3519    4.3519
    4.4533    4.4533    4.5175    4.5175    4.5663    4.5663    4.7428    4.7428    4.7764    4.7764
    4.8501    4.8501    5.1536    5.1536    5.2333    5.2333    5.5514    5.5514    5.5972    5.5972
    5.6068    5.6068    5.7817    5.7817    5.9481    5.9481    5.9855    5.9855    6.1231    6.1231
    6.2350    6.2350    6.3236    6.3236    6.5964    6.5964    6.6130    6.6130    6.8569    6.8569
    7.1324    7.1324    7.1728    7.1728    7.2634    7.2634    7.5117    7.5117    7.7547    7.7547
    7.8196    7.8196    8.0340    8.0340    8.1175    8.1175    8.2014    8.2014    8.2826    8.2826
    8.5839    8.5839    8.6892    8.6892    8.7069    8.7069    8.9442    8.9442    9.1648    9.1648
    9.2066    9.2066    9.2837    9.2837    9.7130    9.7130    9.7483    9.7483    9.7742    9.7742
    9.8091    9.8091   10.1849   10.1849   10.3433   10.3433   10.8104   10.8104   10.8800   10.8800
   10.9706   10.9706   11.0104   11.0104   11.1348   11.1348   11.7949   11.7949   11.9703   11.9703
   12.0009   12.0009   12.0164   12.0164   12.1002   12.1002   12.3433   12.3433   12.4277   12.4277
   12.7796   12.7796   12.8240   12.8240   13.3885   13.3885   13.5897   13.5897   13.7470   13.7470
   13.9245   13.9245   14.0403   14.0403   14.0893   14.0893   14.1518   14.1518   14.6727   14.6727
   15.0266   15.0266   15.5325   15.5325   15.8238   15.8238   16.1751   16.1751   16.7630   16.7630
   16.9248   16.9248   17.3626   17.3626   18.0954   18.0954   18.2386   18.2386   18.3664   18.3664
   18.4861   18.4861   19.2399   19.2399   19.4924   19.4924   20.1148   20.1148   20.2138   20.2138
   20.9918   20.9918   21.1958   21.1958   21.8087   21.8087   22.3564   22.3564   22.5625   22.5625
   23.0087   23.0087   23.1536   23.1536   23.5908   23.5908   23.7820   23.7820   23.9409   23.9409
   24.7647   24.7647   24.8110   24.8110   26.2419   26.2419   26.9159   26.9159   28.7831   28.7831
   28.9122   28.9122   28.9717   28.9717   29.4649   29.4649   29.8521   29.8521   30.0196   30.0196
   30.2904   30.2904   30.4316   30.4316   30.7382   30.7382   30.8765   30.8765   30.9824   30.9824
   31.1964   31.1964   31.2122   31.2122   31.5348   31.5348   31.7358   31.7358   32.3616   32.3616
   32.8404   32.8404   34.1340   34.1340   34.2674   34.2674   34.5541   34.5541   34.8013   34.8014
   35.0836   35.0836   35.1731   35.1731   35.3006   35.3006   35.4544   35.4544   35.9740   35.9740
   36.6067   36.6067   36.9043   36.9043   37.2806   37.2806   37.3827   37.3827   37.6867   37.6867
   38.0537   38.0537   38.2577   38.2577   39.1930   39.1930   39.3883   39.3883   39.9652   39.9652
   40.0987   40.0987   40.7226   40.7226   40.7904   40.7904   40.8640   40.8640   41.2080   41.2080
   41.3812   41.3812   41.4360   41.4360   42.5487   42.5487   42.9185   42.9185   43.2724   43.2724
   43.2830   43.2830   43.7098   43.7098   43.9467   43.9467   44.0072   44.0072   44.1146   44.1146
   44.6833   44.6833   44.7057   44.7057   44.8842   44.8842   45.3891   45.3891   46.2606   46.2606
   46.5292   46.5292   46.7849   46.7849   47.3917   47.3917   49.0567   49.0567   49.2127   49.2127
   49.4402   49.4402   50.4138   50.4138   50.9694   50.9694   50.9900   50.9900   51.1387   51.1387
   51.3008   51.3008   51.7711   51.7711   52.5045   52.5045   52.9361   52.9361   54.5364   54.5364
   54.9418   54.9418   55.0022   55.0022   55.2682   55.2682   55.7430   55.7430   55.8562   55.8562
   55.9592   55.9592   56.5876   56.5876   56.7307   56.7307   58.1968   58.1968   58.7300   58.7300
   59.2564   59.2564   60.2388   60.2388   60.3221   60.3221   61.0593   61.0593   61.4571   61.4571
   61.9904   61.9904   62.0144   62.0144   62.2488   62.2488   64.3068   64.3068   66.3542   66.3542
   67.1943   67.1943   67.2315   67.2315   68.7361   68.7361   68.9513   68.9513   70.6689   70.6689
   73.4606   73.4606   80.8210   80.8210   90.1288   90.1288   91.7099   91.7099   93.3931   93.3931
   98.2464   98.2464   99.2950   99.2950  100.3668  100.3668  103.2375  103.2375  103.5155  103.5155
  110.4752  110.4752  111.3438  111.3438  123.8513  123.8513  126.2138  126.2138  130.9014  130.9014
  139.8838  139.8838  141.2545  141.2545
siesta: Fermi energy =      -3.793960 eV

siesta: Program's energy decomposition (eV):
siesta: Ebs     =     -1136.247055
siesta: Eions   =      3585.165840
siesta: Ena     =       384.948824
siesta: Ekin    =      2907.858452
siesta: Enl     =     -2795.290835
siesta: Eso     =        -0.004256
siesta: Edftu   =         0.000000
siesta: DEna    =        47.474916
siesta: DUscf   =        14.347002
siesta: DUext   =         0.000000
siesta: Exc     =     -1120.830906
siesta: eta*DQ  =         0.000000
siesta: Emadel  =         0.000000
siesta: Emeta   =         0.000000
siesta: Emolmec =         0.000000
siesta: Ekinion =         0.000000
siesta: Eharris =     -4146.662643
siesta: Etot    =     -4146.662643
siesta: FreeEng =     -4146.662643

siesta: Final energy (eV):
siesta:  Band Struct. =   -1136.247055
siesta:       Kinetic =    2907.858452
siesta:       Hartree =    8261.043950
siesta:       Edftu   =       0.000000
siesta:       Eso     =      -0.004256
siesta:    Ext. field =       0.000000
siesta:   Exch.-corr. =   -1120.830906
siesta:  Ion-electron =  -19111.228818
siesta:       Ion-ion =    4916.498935
siesta:       Ekinion =       0.000000
siesta:         Total =   -4146.662643
siesta:         Fermi =      -3.793960

siesta: Atomic forces (eV/Ang):
siesta:      1    2.331834   -3.005447   -0.000000
siesta:      2   -0.013950   -0.009863    0.000000
siesta:      3   -0.074304    0.043927   -0.000000
siesta:      4   -0.078531   -0.035848    0.000000
siesta:      5    0.060332   -0.028661    0.000000
siesta:      6   -0.100586   -0.000668   -0.000000
siesta:      7   -0.007390    0.004988   -0.000000
siesta:      8    0.054899    0.021292    0.000000
siesta:      9    0.076870   -0.043084    0.000000
siesta:     10    0.181151    0.021738   -0.000000
siesta:     11   -0.027115    0.029036    0.000000
siesta:     12   -0.092912   -0.036033    0.000000
siesta:     13    0.055099    0.050513    0.000000
siesta:     14    0.001717    0.092785    0.000000
siesta:     15    0.184733    0.120242   -0.000000
siesta:     16    0.123402    0.126985   -0.000000
siesta:     17   -0.125632    0.041290    0.000000
siesta:     18    0.017583   -0.017315    0.000000
siesta:     19   -0.008335    0.105951   -0.000000
siesta:     20   -0.015752    0.019746    0.000000
siesta:     21    0.045752   -0.086336   -0.000000
siesta:     22    0.097311    0.013121   -0.000000
siesta:     23   -0.047979   -0.090914   -0.000000
siesta:     24   -0.035463    0.097968    0.000000
siesta:     25   -0.137312    0.145595   -0.000000
siesta:     26   -0.091781    0.221725    0.000000
siesta:     27    0.031019    0.037197    0.000000
siesta:     28    1.810436   -0.377682    0.000000
siesta:     29    0.098264    0.088566    0.000000
siesta: ----------------------------------------
siesta:    Tot    4.313362   -2.449185   -0.000000

siesta: Stress tensor (static) (eV/Ang**3):
siesta:     0.000176    0.000253   -0.000000
siesta:     0.000253    0.000017    0.000000
siesta:     0.000000    0.000000   -0.000060

siesta: Cell volume =       5430.596176 Ang**3

siesta: Pressure (static):
siesta:                Solid            Molecule  Units
siesta:          -0.00000049          0.00000223  Ry/Bohr**3
siesta:          -0.00004462          0.00020468  eV/Ang**3
siesta:          -0.07149372          0.32793177  kBar
(Free)E+ p_basis*V_orbitals  =       -4126.812225
(Free)Eharris+ p_basis*V_orbitals  =       -4126.812225
     spin moment: S , {S} =    0.00000   0.00000   0.00000   0.00000

siesta: Electric dipole (a.u.)  =    1.418127    0.008605    0.000000
siesta: Electric dipole (Debye) =    3.604521    0.021871    0.000000

cite: Please see "GC.bib" for an exhaustive BiBTeX file.
cite: Please clearly indicate Siesta version in published work: v4.1.5-1-g384057250
cite: This calculation has made use of the following articles
cite: which are encouraged to be cited in a published work.
        Primary SIESTA paper
          DOI: www.doi.org/10.1088/0953-8984/14/11/302
        Spin-orbit coupling (on-site approximation)
          DOI: www.doi.org/10.1088/0953-8984/19/19/489001


WARNING: alloc-realloc-dealloc name mismatch
         Name: atomlist isa
         Size:              -116. Bytes
         Node:     0
         Subsequent mismatches will not be reported
>> End of run:  22-MAY-2023  19:16:38
Job completed
