Siesta Version  : v4.1.5-1-g384057250
Architecture    : gcc
Compiler version: GNU Fortran (Ubuntu 11.4.0-1ubuntu1~22.04) 11.4.0
Compiler flags  : mpifort -O2 -fPIC -ftree-vectorize -fallow-argument-mismatch
PP flags        : -DFC_HAVE_ABORT -DMPI -DSIESTA__FLOOK -DSIESTA__METIS -DSIESTA__MUMPS -DCDF -DNCDF -DNCDF_4 -DNCDF_PARALLEL -DSIESTA__MRRR -DSIESTA__ELPA
Libraries       : libncdf.a libfdict.a  -lflookall -ldl -lnetcdff -lnetcdf -lhdf5_hl -lhdf5 -lhdf5_fortran -lz -lscalapack-openmpi -lopenblas -lmetis -lzmumps -lcmumps -ldmumps -lmumps_common -lpord -lsmumps -lesmumps -lscotch -lscotcherr -fopenmp -lelpa
PARALLEL version
NetCDF support
NetCDF-4 support
NetCDF-4 MPI-IO support
METIS ordering support
Lua support

* Running on 8 nodes in parallel
>> Start of run:   1-FEB-2024  17:47:26

                           ***********************       
                           *  WELCOME TO SIESTA  *       
                           ***********************       

reinit: Reading from standard input
reinit: Dumped input in INPUT_TMP.37083
************************** Dump of input data file ****************************
# mpirun -np 4 siesta-4.1.5 < AT.fdf > AT.out &
SystemLabel      AT
NumberOfAtoms    30
NumberOfSpecies  4
%block ChemicalSpeciesLabel
    1    1  H
    2    7  N
    3   14  Si
    4    8  O
%endblock ChemicalSpeciesLabel
############################################
# This overrides Defaults.fdf configuration
############################################
MD.TypeOfRun                Verlet # CG, Verlet
MD.Steps                    0
MaxSCFIterations            200
SCF.MustConverge            F
AtomicCoordinatesFormat NotScaledCartesianAng
%block AtomicCoordinatesAndAtomicSpecies
    2.28494382 -5.19529124 0.0  1  1  H
    1.37433094 -4.6647107 0.0  2  2  N
    -0.21830245 -5.49458215 0.0  3  3  Si
    -0.17484108 -6.98516892 0.0  1  4  H
    -1.66171682 -4.58600741 0.0  2  5  N
    -1.09026419 -2.87456374 0.0  3  6  Si
    -1.53038332 -0.70765692 0.0  3  7  Si
    -3.14415959 -0.09186471 0.0  2  8  N
    -3.40268075 0.95848335 0.0  1  9  H
    -3.95073599 -0.76720972 0.0  1  10  H
    -0.17836637 0.41349951 0.0  2  11  N
    1.49520211 -0.0473996 0.0  3  12  Si
    2.45603905 1.10727302 0.0  1  13  H
    2.30451743 -1.58574382 0.0  2  14  N
    1.10725559 -2.84610319 0.0  3  15  Si
    0.7507134802898513 6.252370902676653 0.0  1  16  H
    -0.05799719971014869 5.560165022676653 0.0  2  17  N
    -1.7145870397101486 6.273285122676653 0.0  3  18  Si
    -1.6177218697101485 7.784010332676653 0.0  1  19  H
    -3.4407433897101485 4.930236992676653 0.0  3  20  Si
    -5.795197639710149 4.922250062676653 0.0  3  21  Si
    -6.357615759710149 5.656739712676653 -1.20183078  1  22  H
    -6.095011389710149 3.4431589326766527 -0.08618332  1  23  H
    -6.357728219710149 5.487082522676653 1.28814761  1  24  H
    -2.5113527497101487 2.859665762676653 0.0  3  25  Si
    -3.4608211097101487 1.5711296326766528 0.0  4  26  O
    -0.7204078797101487 2.685930292676653 0.0  2  27  N
    -0.3894165197101487 1.6535733126766532 0.0  1  28  H
    0.5880503402898513 3.8804767126766526 0.0  3  29  Si
    2.1539872702898513 3.6132298626766532 0.0  4  30  O
%endblock AtomicCoordinatesAndAtomicSpecies
#############
# Unit Cell
#############
LatticeConstant 1.0 Ang
%block LatticeVectors
    30.00000    0.000000    0.000000
    0.000000    45.00000    0.000000
    0.000000    0.000000    10.00000
%endblock LatticeVectors
%include ../../../../Defaults.fdf
************************** End of input data file *****************************

reinit: -----------------------------------------------------------------------
reinit: System Name: 
reinit: -----------------------------------------------------------------------
reinit: System Label: AT
reinit: -----------------------------------------------------------------------

initatom: Reading input for the pseudopotentials and atomic orbitals ----------
Species number:   1 Atomic number:    1 Label: H
Species number:   2 Atomic number:    7 Label: N
Species number:   3 Atomic number:   14 Label: Si
Species number:   4 Atomic number:    8 Label: O

Ground state valence configuration:   1s01
Reading pseudopotential information in formatted form from H.psf

Pseudopotential generated from a relativistic atomic calculation

Valence configuration for pseudopotential generation:
1s( 1.00) rc: 0.01
2p( 0.00) rc: 0.60
3d( 0.00) rc: 1.99
4f( 0.00) rc: 2.49
Ground state valence configuration:   2s02  2p03
Reading pseudopotential information in formatted form from N.psf

Pseudopotential generated from a relativistic atomic calculation

Valence configuration for pseudopotential generation:
2s( 2.00) rc: 0.94
2p( 3.00) rc: 0.59
3d( 0.00) rc: 3.46
4f( 0.00) rc: 2.47
Ground state valence configuration:   3s02  3p02
Reading pseudopotential information in formatted form from Si.psf

Pseudopotential generated from a relativistic atomic calculation

Valence configuration for pseudopotential generation:
3s( 2.00) rc: 1.67
3p( 2.00) rc: 2.04
3d( 0.00) rc: 2.89
4f( 0.00) rc: 2.49
Ground state valence configuration:   2s02  2p04
Reading pseudopotential information in formatted form from O.psf

Pseudopotential generated from a relativistic atomic calculation

Valence configuration for pseudopotential generation:
2s( 2.00) rc: 0.45
2p( 4.00) rc: 0.92
3d( 0.00) rc: 2.24
4f( 0.00) rc: 0.25
For H, standard SIESTA heuristics set lmxkb to 2
 (one more than the basis l, including polarization orbitals).
Use PS.lmax or PS.KBprojectors blocks to override.
For N, standard SIESTA heuristics set lmxkb to 3
 (one more than the basis l, including polarization orbitals).
Use PS.lmax or PS.KBprojectors blocks to override.
For Si, standard SIESTA heuristics set lmxkb to 3
 (one more than the basis l, including polarization orbitals).
Use PS.lmax or PS.KBprojectors blocks to override.
For O, standard SIESTA heuristics set lmxkb to 3
 (one more than the basis l, including polarization orbitals).
Use PS.lmax or PS.KBprojectors blocks to override.

<basis_specs>
===============================================================================
H                    Z=   1    Mass=  1.0100        Charge= 0.17977+309
Lmxo=0 Lmxkb= 2    BasisType=split      Semic=F
L=0  Nsemic=0  Cnfigmx=1
          i=1  nzeta=2  polorb=1  (1s)
            splnorm:   0.62000    
               vcte:    0.0000    
               rinn:    0.0000    
               qcoe:    0.0000    
               qyuk:    0.0000    
               qwid:   0.10000E-01
                rcs:    0.0000      0.0000    
            lambdas:    1.0000      1.0000    
-------------------------------------------------------------------------------
L=0  Nkbl=1  erefs: 0.17977+309
L=1  Nkbl=1  erefs: 0.17977+309
L=2  Nkbl=1  erefs: 0.17977+309
===============================================================================
</basis_specs>

atom: Called for H                     (Z =   1)

read_vps: Pseudopotential generation method:
read_vps: ATM4.2.7  Troullier-Martins                       
Valence charge for ps generation:    1.00000

xc_check: Exchange-correlation functional:
xc_check: GGA Perdew, Burke & Ernzerhof 1996
V l=0 = -2*Zval/r beyond r=  0.0098
V l=1 = -2*Zval/r beyond r=  0.5817
V l=2 = -2*Zval/r beyond r=  1.9372
All V_l potentials equal beyond r=  1.9372
This should be close to max(r_c) in ps generation
All pots = -2*Zval/r beyond r=  1.9372

VLOCAL1: 99.0% of the norm of Vloc inside     11.567 Ry
VLOCAL1: 99.9% of the norm of Vloc inside     26.362 Ry
atom: Maximum radius for 4*pi*r*r*local-pseudopot. charge    2.25106
atom: Maximum radius for r*vlocal+2*Zval:    1.91306
GHOST: No ghost state for L =  0
GHOST: No ghost state for L =  1
GHOST: No ghost state for L =  2

KBgen: Kleinman-Bylander projectors: 
   l= 0   rc=  2.036604   el= -0.477180   Ekb= -6.081590   kbcos= -0.277285
   l= 1   rc=  2.195416   el=  0.001076   Ekb= -0.926943   kbcos= -0.034643
   l= 2   rc=  2.251056   el=  0.002010   Ekb= -0.130941   kbcos= -0.009788

KBgen: Total number of Kleinman-Bylander projectors:    9
atom: -------------------------------------------------------------------------

atom: SANKEY-TYPE ORBITALS:
atom: Selected multiple-zeta basis: split     

SPLIT: Orbitals with angular momentum L= 0

SPLIT: Basis orbitals for state 1s

SPLIT: PAO cut-off radius determined from an
SPLIT: energy shift=  0.002000 Ry

   izeta = 1
                 lambda =    1.000000
                     rc =    6.518340
                 energy =   -0.475305
                kinetic =    0.912139
    potential(screened) =   -1.387444
       potential(ionic) =   -1.907295

   izeta = 2
                 rmatch =    2.141150
              splitnorm =    0.620000
                 energy =    0.566467
                kinetic =    3.772856
    potential(screened) =   -3.206389
       potential(ionic) =   -3.759093

POLgen: Perturbative polarization orbital with L=  1

POLgen: Polarization orbital for state 1s

   izeta = 1
                     rc =    6.518340
                 energy =    0.533861
                kinetic =    1.121086
    potential(screened) =   -0.587225
       potential(ionic) =   -1.053027
atom: Total number of Sankey-type orbitals:  5

atm_pop: Valence configuration (for local Pseudopot. screening):
 1s( 1.00)                                                            
Vna: chval, zval:    1.00000   1.00000

Vna:  Cut-off radius for the neutral-atom potential:   6.518340

atom: _________________________________________________________________________

<basis_specs>
===============================================================================
N                    Z=   7    Mass=  14.010        Charge= 0.17977+309
Lmxo=1 Lmxkb= 3    BasisType=split      Semic=F
L=0  Nsemic=0  Cnfigmx=2
          i=1  nzeta=2  polorb=0  (2s)
            splnorm:   0.28000    
               vcte:    0.0000    
               rinn:    0.0000    
               qcoe:    0.0000    
               qyuk:    0.0000    
               qwid:   0.10000E-01
                rcs:    0.0000      0.0000    
            lambdas:    1.0000      1.0000    
L=1  Nsemic=0  Cnfigmx=2
          i=1  nzeta=2  polorb=1  (2p)
            splnorm:   0.28000    
               vcte:    0.0000    
               rinn:    0.0000    
               qcoe:    0.0000    
               qyuk:    0.0000    
               qwid:   0.10000E-01
                rcs:    0.0000      0.0000    
            lambdas:    1.0000      1.0000    
-------------------------------------------------------------------------------
L=0  Nkbl=1  erefs: 0.17977+309
L=1  Nkbl=1  erefs: 0.17977+309
L=2  Nkbl=1  erefs: 0.17977+309
L=3  Nkbl=1  erefs: 0.17977+309
===============================================================================
</basis_specs>

atom: Called for N                     (Z =   7)

read_vps: Pseudopotential generation method:
read_vps: ATM4.2.7  Troullier-Martins                       
Valence charge for ps generation:    5.00000

xc_check: Exchange-correlation functional:
xc_check: GGA Perdew, Burke & Ernzerhof 1996
V l=0 = -2*Zval/r beyond r=  1.2889
V l=1 = -2*Zval/r beyond r=  1.2889
V l=2 = -2*Zval/r beyond r=  3.4178
V l=3 = -2*Zval/r beyond r=  2.4084
All V_l potentials equal beyond r=  3.3753
This should be close to max(r_c) in ps generation
All pots = -2*Zval/r beyond r=  3.4178

VLOCAL1: 99.0% of the norm of Vloc inside      3.810 Ry
VLOCAL1: 99.9% of the norm of Vloc inside      8.683 Ry
atom: Maximum radius for 4*pi*r*r*local-pseudopot. charge    4.02088
atom: Maximum radius for r*vlocal+2*Zval:    3.54838
GHOST: No ghost state for L =  0
GHOST: No ghost state for L =  1
GHOST: No ghost state for L =  2
GHOST: No ghost state for L =  3

KBgen: Kleinman-Bylander projectors: 
   l= 0   rc=  3.417763   el= -1.365098   Ekb= -4.433130   kbcos= -0.707855
   l= 1   rc=  3.375302   el= -0.521201   Ekb=-13.264039   kbcos= -0.535594
   l= 2   rc=  3.872880   el=  0.001991   Ekb= -0.641094   kbcos= -0.062456
   l= 3   rc=  3.970931   el=  0.003093   Ekb= -0.474517   kbcos= -0.018236

KBgen: Total number of Kleinman-Bylander projectors:   16
atom: -------------------------------------------------------------------------

atom: SANKEY-TYPE ORBITALS:
atom: Selected multiple-zeta basis: split     

SPLIT: Orbitals with angular momentum L= 0

SPLIT: Basis orbitals for state 2s

SPLIT: PAO cut-off radius determined from an
SPLIT: energy shift=  0.002000 Ry

   izeta = 1
                 lambda =    1.000000
                     rc =    4.730425
                 energy =   -1.363399
                kinetic =    1.245246
    potential(screened) =   -2.608645
       potential(ionic) =   -8.121105

   izeta = 2
                 rmatch =    2.531849
              splitnorm =    0.280000
                 energy =   -0.959908
                kinetic =    2.409435
    potential(screened) =   -3.369343
       potential(ionic) =   -9.427975

SPLIT: Orbitals with angular momentum L= 1

SPLIT: Basis orbitals for state 2p

SPLIT: PAO cut-off radius determined from an
SPLIT: energy shift=  0.002000 Ry

   izeta = 1
                 lambda =    1.000000
                     rc =    5.924108
                 energy =   -0.519262
                kinetic =    3.672940
    potential(screened) =   -4.192202
       potential(ionic) =   -9.518354

   izeta = 2
                 rmatch =    2.531849
              splitnorm =    0.280000
                 energy =   -0.104258
                kinetic =    6.807538
    potential(screened) =   -6.911796
       potential(ionic) =  -13.149920

POLgen: Perturbative polarization orbital with L=  2

POLgen: Polarization orbital for state 2p

   izeta = 1
                     rc =    5.924108
                 energy =    1.427508
                kinetic =    2.872379
    potential(screened) =   -1.444871
       potential(ionic) =   -5.563644
atom: Total number of Sankey-type orbitals: 13

atm_pop: Valence configuration (for local Pseudopot. screening):
 2s( 2.00)                                                            
 2p( 3.00)                                                            
Vna: chval, zval:    5.00000   5.00000

Vna:  Cut-off radius for the neutral-atom potential:   5.924108

atom: _________________________________________________________________________

<basis_specs>
===============================================================================
Si                   Z=  14    Mass=  28.090        Charge= 0.17977+309
Lmxo=1 Lmxkb= 3    BasisType=split      Semic=F
L=0  Nsemic=0  Cnfigmx=3
          i=1  nzeta=2  polorb=0  (3s)
            splnorm:   0.28000    
               vcte:    0.0000    
               rinn:    0.0000    
               qcoe:    0.0000    
               qyuk:    0.0000    
               qwid:   0.10000E-01
                rcs:    0.0000      0.0000    
            lambdas:    1.0000      1.0000    
L=1  Nsemic=0  Cnfigmx=3
          i=1  nzeta=2  polorb=1  (3p)
            splnorm:   0.28000    
               vcte:    0.0000    
               rinn:    0.0000    
               qcoe:    0.0000    
               qyuk:    0.0000    
               qwid:   0.10000E-01
                rcs:    0.0000      0.0000    
            lambdas:    1.0000      1.0000    
-------------------------------------------------------------------------------
L=0  Nkbl=1  erefs: 0.17977+309
L=1  Nkbl=1  erefs: 0.17977+309
L=2  Nkbl=1  erefs: 0.17977+309
L=3  Nkbl=1  erefs: 0.17977+309
===============================================================================
</basis_specs>

atom: Called for Si                    (Z =  14)

read_vps: Pseudopotential generation method:
read_vps: ATM4.2.7  Troullier-Martins                       
Valence charge for ps generation:    4.00000

xc_check: Exchange-correlation functional:
xc_check: GGA Perdew, Burke & Ernzerhof 1996
V l=0 = -2*Zval/r beyond r=  2.7826
V l=1 = -2*Zval/r beyond r=  2.7826
V l=2 = -2*Zval/r beyond r=  2.9253
V l=3 = -2*Zval/r beyond r=  2.7826
All V_l potentials equal beyond r=  2.8530
This should be close to max(r_c) in ps generation
All pots = -2*Zval/r beyond r=  2.9253

VLOCAL1: 99.0% of the norm of Vloc inside      5.333 Ry
VLOCAL1: 99.9% of the norm of Vloc inside     12.154 Ry
atom: Maximum radius for 4*pi*r*r*local-pseudopot. charge    3.39869
atom: Maximum radius for r*vlocal+2*Zval:    2.96205
GHOST: No ghost state for L =  0
GHOST: No ghost state for L =  1
GHOST: No ghost state for L =  2
GHOST: No ghost state for L =  3

KBgen: Kleinman-Bylander projectors: 
   l= 0   rc=  3.075247   el= -0.794092   Ekb=  5.879390   kbcos=  0.167461
   l= 1   rc=  3.153101   el= -0.300068   Ekb=  2.642817   kbcos=  0.058301
   l= 2   rc=  3.273594   el=  0.001958   Ekb= -1.185135   kbcos= -0.104411
   l= 3   rc=  3.232927   el=  0.003046   Ekb= -0.497174   kbcos= -0.015889

KBgen: Total number of Kleinman-Bylander projectors:   16
atom: -------------------------------------------------------------------------

atom: SANKEY-TYPE ORBITALS:
atom: Selected multiple-zeta basis: split     

SPLIT: Orbitals with angular momentum L= 0

SPLIT: Basis orbitals for state 3s

SPLIT: PAO cut-off radius determined from an
SPLIT: energy shift=  0.002000 Ry

   izeta = 1
                 lambda =    1.000000
                     rc =    6.429618
                 energy =   -0.792283
                kinetic =    0.525293
    potential(screened) =   -1.317576
       potential(ionic) =   -3.744923

   izeta = 2
                 rmatch =    3.998416
              splitnorm =    0.280000
                 energy =   -0.583081
                kinetic =    1.069570
    potential(screened) =   -1.652651
       potential(ionic) =   -4.235185

SPLIT: Orbitals with angular momentum L= 1

SPLIT: Basis orbitals for state 3p

SPLIT: PAO cut-off radius determined from an
SPLIT: energy shift=  0.002000 Ry

   izeta = 1
                 lambda =    1.000000
                     rc =    8.464845
                 energy =   -0.298236
                kinetic =    0.785360
    potential(screened) =   -1.083596
       potential(ionic) =   -3.273779

   izeta = 2
                 rmatch =    4.587816
              splitnorm =    0.280000
                 energy =   -0.131871
                kinetic =    1.403687
    potential(screened) =   -1.535557
       potential(ionic) =   -4.015310

POLgen: Perturbative polarization orbital with L=  2

POLgen: Polarization orbital for state 3p

   izeta = 1
                     rc =    8.464845
                 energy =    0.321949
                kinetic =    1.055677
    potential(screened) =   -0.733728
       potential(ionic) =   -2.672950
atom: Total number of Sankey-type orbitals: 13

atm_pop: Valence configuration (for local Pseudopot. screening):
 3s( 2.00)                                                            
 3p( 2.00)                                                            
Vna: chval, zval:    4.00000   4.00000

Vna:  Cut-off radius for the neutral-atom potential:   8.464845

atom: _________________________________________________________________________

<basis_specs>
===============================================================================
O                    Z=   8    Mass=  16.000        Charge= 0.17977+309
Lmxo=1 Lmxkb= 3    BasisType=split      Semic=F
L=0  Nsemic=0  Cnfigmx=2
          i=1  nzeta=2  polorb=0  (2s)
            splnorm:   0.28000    
               vcte:    0.0000    
               rinn:    0.0000    
               qcoe:    0.0000    
               qyuk:    0.0000    
               qwid:   0.10000E-01
                rcs:    0.0000      0.0000    
            lambdas:    1.0000      1.0000    
L=1  Nsemic=0  Cnfigmx=2
          i=1  nzeta=2  polorb=1  (2p)
            splnorm:   0.28000    
               vcte:    0.0000    
               rinn:    0.0000    
               qcoe:    0.0000    
               qyuk:    0.0000    
               qwid:   0.10000E-01
                rcs:    0.0000      0.0000    
            lambdas:    1.0000      1.0000    
-------------------------------------------------------------------------------
L=0  Nkbl=1  erefs: 0.17977+309
L=1  Nkbl=1  erefs: 0.17977+309
L=2  Nkbl=1  erefs: 0.17977+309
L=3  Nkbl=1  erefs: 0.17977+309
===============================================================================
</basis_specs>

atom: Called for O                     (Z =   8)

read_vps: Pseudopotential generation method:
read_vps: ATM4.2.7  Troullier-Martins                       
Valence charge for ps generation:    6.00000

xc_check: Exchange-correlation functional:
xc_check: GGA Perdew, Burke & Ernzerhof 1996
V l=0 = -2*Zval/r beyond r=  1.1000
V l=1 = -2*Zval/r beyond r=  1.1000
V l=2 = -2*Zval/r beyond r=  2.2154
V l=3 = -2*Zval/r beyond r=  1.1000
All V_l potentials equal beyond r=  2.2154
This should be close to max(r_c) in ps generation
All pots = -2*Zval/r beyond r=  2.2154

VLOCAL1: 99.0% of the norm of Vloc inside      8.845 Ry
VLOCAL1: 99.9% of the norm of Vloc inside     20.157 Ry
atom: Maximum radius for 4*pi*r*r*local-pseudopot. charge    2.67231
atom: Maximum radius for r*vlocal+2*Zval:    2.32897
GHOST: No ghost state for L =  0
GHOST: No ghost state for L =  1
GHOST: No ghost state for L =  2
GHOST: No ghost state for L =  3

KBgen: Kleinman-Bylander projectors: 
   l= 0   rc=  2.243238   el= -1.759686   Ekb=**********   kbcos= -0.171774
   l= 1   rc=  2.328968   el= -0.663873   Ekb=-14.506792   kbcos= -0.519897
   l= 2   rc=  2.573941   el=  0.002031   Ekb= -1.137373   kbcos= -0.019581
   l= 3   rc=  2.606321   el=  0.003153   Ekb= -1.013546   kbcos= -0.003122

KBgen: Total number of Kleinman-Bylander projectors:   16
atom: -------------------------------------------------------------------------

atom: SANKEY-TYPE ORBITALS:
atom: Selected multiple-zeta basis: split     

SPLIT: Orbitals with angular momentum L= 0

SPLIT: Basis orbitals for state 2s

SPLIT: PAO cut-off radius determined from an
SPLIT: energy shift=  0.002000 Ry

   izeta = 1
                 lambda =    1.000000
                     rc =    4.243912
                 energy =   -1.758270
                kinetic =    3.286084
    potential(screened) =   -5.044353
       potential(ionic) =  -12.921184

   izeta = 2
                 rmatch =    2.187845
              splitnorm =    0.280000
                 energy =   -0.885018
                kinetic =    8.134434
    potential(screened) =   -9.019452
       potential(ionic) =  -17.710645

SPLIT: Orbitals with angular momentum L= 1

SPLIT: Basis orbitals for state 2p

SPLIT: PAO cut-off radius determined from an
SPLIT: energy shift=  0.002000 Ry

   izeta = 1
                 lambda =    1.000000
                     rc =    5.314825
                 energy =   -0.661986
                kinetic =    4.917472
    potential(screened) =   -5.579458
       potential(ionic) =  -13.236259

   izeta = 2
                 rmatch =    2.160663
              splitnorm =    0.280000
                 energy =   -0.068760
                kinetic =    9.183374
    potential(screened) =   -9.252135
       potential(ionic) =  -18.274251

POLgen: Perturbative polarization orbital with L=  2

POLgen: Polarization orbital for state 2p

   izeta = 1
                     rc =    5.314825
                 energy =    1.970580
                kinetic =    3.886128
    potential(screened) =   -1.915547
       potential(ionic) =   -7.749584
atom: Total number of Sankey-type orbitals: 13

atm_pop: Valence configuration (for local Pseudopot. screening):
 2s( 2.00)                                                            
 2p( 4.00)                                                            
Vna: chval, zval:    6.00000   6.00000

Vna:  Cut-off radius for the neutral-atom potential:   5.314825

atom: _________________________________________________________________________

prinput: Basis input ----------------------------------------------------------

PAO.BasisType split     

%block ChemicalSpeciesLabel
    1    1 H                       # Species index, atomic number, species label
    2    7 N                       # Species index, atomic number, species label
    3   14 Si                      # Species index, atomic number, species label
    4    8 O                       # Species index, atomic number, species label
%endblock ChemicalSpeciesLabel

%block PAO.Basis                 # Define Basis set
H                     1                    # Species label, number of l-shells
 n=1   0   2 P   1                   # n, l, Nzeta, Polarization, NzetaPol
   6.518      2.141   
   1.000      1.000   
N                     2                    # Species label, number of l-shells
 n=2   0   2                         # n, l, Nzeta 
   4.730      2.532   
   1.000      1.000   
 n=2   1   2 P   1                   # n, l, Nzeta, Polarization, NzetaPol
   5.924      2.532   
   1.000      1.000   
Si                    2                    # Species label, number of l-shells
 n=3   0   2                         # n, l, Nzeta 
   6.430      3.998   
   1.000      1.000   
 n=3   1   2 P   1                   # n, l, Nzeta, Polarization, NzetaPol
   8.465      4.588   
   1.000      1.000   
O                     2                    # Species label, number of l-shells
 n=2   0   2                         # n, l, Nzeta 
   4.244      2.188   
   1.000      1.000   
 n=2   1   2 P   1                   # n, l, Nzeta, Polarization, NzetaPol
   5.315      2.161   
   1.000      1.000   
%endblock PAO.Basis

prinput: ----------------------------------------------------------------------

Dumping basis to NetCDF file H.ion.nc
Dumping basis to NetCDF file N.ion.nc
Dumping basis to NetCDF file Si.ion.nc
Dumping basis to NetCDF file O.ion.nc
coor:   Atomic-coordinates input format  =     Cartesian coordinates
coor:                                          (in Angstroms)

siesta: Atomic coordinates (Bohr) and species
siesta:      4.31792  -9.81768   0.00000  1        1
siesta:      2.59711  -8.81503   0.00000  2        2
siesta:     -0.41253 -10.38326   0.00000  3        3
siesta:     -0.33040 -13.20006   0.00000  1        4
siesta:     -3.14019  -8.66630   0.00000  2        5
siesta:     -2.06030  -5.43214   0.00000  3        6
siesta:     -2.89201  -1.33728   0.00000  3        7
siesta:     -5.94160  -0.17360   0.00000  2        8
siesta:     -6.43014   1.81127   0.00000  1        9
siesta:     -7.46581  -1.44982   0.00000  1       10
siesta:     -0.33706   0.78140   0.00000  2       11
siesta:      2.82552  -0.08957   0.00000  3       12
siesta:      4.64124   2.09244   0.00000  1       13
siesta:      4.35491  -2.99662   0.00000  2       14
siesta:      2.09241  -5.37836   0.00000  3       15
siesta:      1.41864  11.81527   0.00000  1       16
siesta:     -0.10960  10.50719   0.00000  2       17
siesta:     -3.24010  11.85480   0.00000  3       18
siesta:     -3.05705  14.70965   0.00000  1       19
siesta:     -6.50207   9.31680   0.00000  3       20
siesta:    -10.95134   9.30171   0.00000  3       21
siesta:    -12.01416  10.68969  -2.27113  1       22
siesta:    -11.51791   6.50663  -0.16286  1       23
siesta:    -12.01437  10.36909   2.43425  1       24
siesta:     -4.74577   5.40399   0.00000  3       25
siesta:     -6.54001   2.96901   0.00000  4       26
siesta:     -1.36137   5.07567   0.00000  2       27
siesta:     -0.73589   3.12480   0.00000  1       28
siesta:      1.11125   7.33304   0.00000  3       29
siesta:      4.07045   6.82802   0.00000  4       30

siesta: System type = molecule  

initatomlists: Number of atoms, orbitals, and projectors:     30   302   403

siesta: ******************** Simulation parameters ****************************
siesta:
siesta: The following are some of the parameters of the simulation.
siesta: A complete list of the parameters used, including default values,
siesta: can be found in file out.fdf
siesta:
redata: Spin configuration                          = spin-orbit
redata: Number of spin components                   = 8
redata: Time-Reversal Symmetry                      = F
redata: Spin spiral                                 = F
############################################################
This spin-orbit implementation uses a local approximation.
From 4.2 and onwards the full non-local approximation is implemented
You are strongly advised to use >=4.2 versions!
############################################################
redata: Long output                                 =   F
redata: Number of Atomic Species                    =        4
redata: Charge density info will appear in .RHO file
redata: Write Mulliken Pop.                         = NO
redata: Matel table size (NRTAB)                    =     1024
redata: Mesh Cutoff                                 =   340.0000 Ry
redata: Net charge of the system                    =     0.0000 |e|
redata: Min. number of SCF Iter                     =        1
redata: Max. number of SCF Iter                     =      200
redata: SCF mix quantity                            = Hamiltonian
redata: Mix DM or H after convergence               =   F
redata: Recompute H after scf cycle                 =   F
redata: Mix DM in first SCF step                    =   T
redata: Write Pulay info on disk                    =   F
redata: New DM Occupancy tolerance                  = 0.000000000001
redata: No kicks to SCF
redata: DM Mixing Weight for Kicks                  =     0.5000
redata: Require Harris convergence for SCF          =   F
redata: Harris energy tolerance for SCF             =     0.000100 eV
redata: Require DM convergence for SCF              =   T
redata: DM tolerance for SCF                        =     0.000008
redata: Require EDM convergence for SCF             =   F
redata: EDM tolerance for SCF                       =     0.001000 eV
redata: Require H convergence for SCF               =   T
redata: Hamiltonian tolerance for SCF               =     0.000001 eV
redata: Require (free) Energy convergence for SCF   =   F
redata: (free) Energy tolerance for SCF             =     0.000100 eV
redata: Using Saved Data (generic)                  =   F
redata: Use continuation files for DM               =   T
redata: Neglect nonoverlap interactions             =   F
redata: Method of Calculation                       = Diagonalization
redata: Electronic Temperature                      =   299.9978 K
redata: Fix the spin of the system                  =   F
redata: Dynamics option                             = Verlet MD run
redata: Initial MD time step                        =        1
redata:   Final MD time step                        =        1
redata: Length of MD time step                      =     0.5000 fs
redata: Initial Temperature of MD run               =     0.0000 K
redata: Perform a MD quench                         =   F
mix.SCF: Pulay mixing                            = Pulay
mix.SCF:    Variant                              = stable
mix.SCF:    History steps                        = 6
mix.SCF:    Linear mixing weight                 =     0.250000
mix.SCF:    Mixing weight                        =     0.250000
mix.SCF:    SVD condition                        = 0.1000E-07
mix.SCF:    Restart steps                        = 24
mix.SCF:    Restart save steps                   = 3
mix.SCF: Spin-component mixing                   all
redata: Save all siesta data in one NC              =   F
redata: ***********************************************************************

%block SCF.Mixers
  Pulay
%endblock SCF.Mixers

%block SCF.Mixer.Pulay
  # Mixing method
  method pulay
  variant stable

  # Mixing options
  weight 0.2500
  weight.linear 0.2500
  history 6
  restart 24
  restart.save 3
%endblock SCF.Mixer.Pulay

Size of DM history Fstack: 3
Total number of electrons:    98.000000
Total ionic charge:    98.000000

* ProcessorY, Blocksize:    2  24


* Orbital distribution balance (max,min):    48    24


Time-reversal symmetry not used.

siesta: k-grid: Number of k-points =     1
siesta: k-grid: Cutoff (effective) =     5.000 Ang
siesta: k-grid: Supercell and displacements
siesta: k-grid:    1   0   0      0.000
siesta: k-grid:    0   1   0      0.000
siesta: k-grid:    0   0   1      0.000

diag: Algorithm                                     = ELPA-1stage
diag: Parallel over k                               =   F
diag: Use parallel 2D distribution                  =   T
diag: Parallel block-size                           = 24
diag: Parallel distribution                         =     2 x     4
diag: Used triangular part                          = Lower
diag: Absolute tolerance                            =  0.100E-15
diag: Orthogonalization factor                      =  0.100E-05
diag: Memory factor                                 =  1.0000


ts: **************************************************************
ts: Save H and S matrices                           =    F
ts: Save DM and EDM matrices                        =    F
ts: Only save the overlap matrix S                  =    F
ts: **************************************************************

************************ Begin: TS CHECKS AND WARNINGS ************************
************************ End: TS CHECKS AND WARNINGS **************************


                     ====================================
                        Begin MD step =      1
                     ====================================

outcoor: Atomic coordinates (Ang):                          
    2.28494382   -5.19529124    0.00000000   1       1  H
    1.37433094   -4.66471070    0.00000000   2       2  N
   -0.21830245   -5.49458215    0.00000000   3       3  Si
   -0.17484108   -6.98516892    0.00000000   1       4  H
   -1.66171682   -4.58600741    0.00000000   2       5  N
   -1.09026419   -2.87456374    0.00000000   3       6  Si
   -1.53038332   -0.70765692    0.00000000   3       7  Si
   -3.14415959   -0.09186471    0.00000000   2       8  N
   -3.40268075    0.95848335    0.00000000   1       9  H
   -3.95073599   -0.76720972    0.00000000   1      10  H
   -0.17836637    0.41349951    0.00000000   2      11  N
    1.49520211   -0.04739960    0.00000000   3      12  Si
    2.45603905    1.10727302    0.00000000   1      13  H
    2.30451743   -1.58574382    0.00000000   2      14  N
    1.10725559   -2.84610319    0.00000000   3      15  Si
    0.75071348    6.25237090    0.00000000   1      16  H
   -0.05799720    5.56016502    0.00000000   2      17  N
   -1.71458704    6.27328512    0.00000000   3      18  Si
   -1.61772187    7.78401033    0.00000000   1      19  H
   -3.44074339    4.93023699    0.00000000   3      20  Si
   -5.79519764    4.92225006    0.00000000   3      21  Si
   -6.35761576    5.65673971   -1.20183078   1      22  H
   -6.09501139    3.44315893   -0.08618332   1      23  H
   -6.35772822    5.48708252    1.28814761   1      24  H
   -2.51135275    2.85966576    0.00000000   3      25  Si
   -3.46082111    1.57112963    0.00000000   4      26  O
   -0.72040788    2.68593029    0.00000000   2      27  N
   -0.38941652    1.65357331    0.00000000   1      28  H
    0.58805034    3.88047671    0.00000000   3      29  Si
    2.15398727    3.61322986    0.00000000   4      30  O

outcell: Unit cell vectors (Ang):
       30.000000    0.000000    0.000000
        0.000000   45.000000    0.000000
        0.000000    0.000000   10.000000

outcell: Cell vector modules (Ang)   :   30.000000   45.000000   10.000000
outcell: Cell angles (23,13,12) (deg):     90.0000     90.0000     90.0000
outcell: Cell volume (Ang**3)        :  13500.0000
<dSpData1D:S at geom step 1
  <sparsity:sparsity for geom step 1
    nrows_g=302 nrows=48 sparsity=.1138 nnzs=10381, refcount: 8>
  <dData1D:(new from dSpData1D) n=10381, refcount: 1>
refcount: 1>
new_DM -- step:     1
Initializing Density Matrix...

Attempting to read DM from file... Failed...
DM filled with atomic data:
<dSpData2D:DM initialized from atoms
  <sparsity:sparsity for geom step 1
    nrows_g=302 nrows=48 sparsity=.1138 nnzs=10381, refcount: 9>
  <dData2D:DM n=10381 m=8, refcount: 1>
refcount: 1>
     spin moment: S , {S} =   56.00000   0.00000   0.00000  56.00000
No. of atoms with KB's overlaping orbs in proc 0. Max # of overlaps:      28     214

Initializing spin-orbit part of the Hamiltonian
  Adding spin-orbit effects for H 
  Adding spin-orbit effects for N 
  Adding spin-orbit effects for Si
  Adding spin-orbit effects for O 


New grid distribution:   1
           1       1:  180    1:  125    1:   15
           2       1:  180    1:  125   16:   30
           3       1:  180    1:  125   31:   45
           4       1:  180    1:  125   46:   60
           5       1:  180  126:  250    1:   15
           6       1:  180  126:  250   16:   30
           7       1:  180  126:  250   31:   45
           8       1:  180  126:  250   46:   60

InitMesh: MESH =   360 x   500 x   120 =    21600000
InitMesh: (bp) =   180 x   250 x    60 =     2700000
InitMesh: Mesh cutoff (required, used) =   340.000   341.206 Ry
ExtMesh (bp) on 0 =   288 x   225 x   123 =     7970400
New grid distribution:   2
           1     156:  180   32:  230    1:   60
           2       1:  159   16:   31    1:   60
           3       1:  159    1:   15    1:   60
           4     160:  180   15:   31    1:   60
           5       1:  155   32:  230    1:   60
           6       1:  155  231:  250    1:   60
           7     156:  180  231:  250    1:   60
           8     160:  180    1:   14    1:   60
New grid distribution:   3
           1     147:  180   45:  222    1:   60
           2       1:  141   23:   44    1:   60
           3       1:  141    1:   22    1:   60
           4     142:  180    1:   23    1:   60
           5       1:  146   45:  225    1:   60
           6       1:  146  226:  250    1:   60
           7     147:  180  223:  250    1:   60
           8     142:  180   24:   44    1:   60
Setting up quadratic distribution...
ExtMesh (bp) on 0 =   133 x   299 x   168 =     6680856
PhiOnMesh: Number of (b)points on node 0 =               298500
PhiOnMesh: nlist on node 0 =              1701783

stepf: Fermi-Dirac step function

siesta: Program's energy decomposition (eV):
siesta: Ebs     =      -555.896516
siesta: Eions   =      3553.971015
siesta: Ena     =       408.758904
siesta: Ekin    =      3258.722397
siesta: Enl     =     -3078.512011
siesta: Eso     =        -0.003969
siesta: Edftu   =         0.000000
siesta: DEna    =       132.935987
siesta: DUscf   =        84.364046
siesta: DUext   =         0.000000
siesta: Exc     =     -1185.781604
siesta: eta*DQ  =         0.000000
siesta: Emadel  =         0.000000
siesta: Emeta   =         0.000000
siesta: Emolmec =         0.000000
siesta: Ekinion =         0.000000
siesta: Eharris =     -3833.265504
siesta: Etot    =     -3933.487265
siesta: FreeEng =     -3933.496396

        iscf     Eharris(eV)        E_KS(eV)     FreeEng(eV)     dDmax    Ef(eV) dHmax(eV)
   scf:    1    -3833.265504    -3933.487265    -3933.496396  0.965639 -5.012006 26.400507
     spin moment: S , {S} =    2.08553  -0.00000  -0.00000   2.08553
timer: Routine,Calls,Time,% = IterSCF        1      11.647  31.59
   scf:    2    -3938.530661    -3960.949934    -3960.950818  0.640687 -3.841322 16.820399
     spin moment: S , {S} =    4.00007  -0.00001  -0.00001   4.00007
   scf:    3    -3943.208118    -3970.049672    -3970.085599  0.577447 -4.195733 14.913804
     spin moment: S , {S} =    0.98090  -0.00000   0.00000   0.98090
   scf:    4    -3983.565605    -3978.054703    -3978.055381  0.145676 -3.834914  9.504107
     spin moment: S , {S} =    0.00356   0.00000   0.00000   0.00356
   scf:    5    -3980.584799    -3979.623083    -3979.637044  0.083865 -3.590184  3.373646
     spin moment: S , {S} =    0.15315   0.00000  -0.00001   0.15315
   scf:    6    -3980.860165    -3980.276847    -3980.284020  0.038049 -3.581136  1.726999
     spin moment: S , {S} =    0.06233   0.00000  -0.00001   0.06233
   scf:    7    -3980.718149    -3980.584252    -3980.585195  0.040820 -3.710898  1.315743
     spin moment: S , {S} =    0.00432   0.00000  -0.00001   0.00432
   scf:    8    -3980.745337    -3980.687898    -3980.688044  0.019100 -3.731113  0.481857
     spin moment: S , {S} =    0.00020   0.00000  -0.00000   0.00020
   scf:    9    -3980.739263    -3980.714970    -3980.715067  0.008965 -3.759239  0.362321
     spin moment: S , {S} =    0.00000   0.00000  -0.00000  -0.00000
   scf:   10    -3980.758590    -3980.736548    -3980.736665  0.009227 -3.769102  0.151920
     spin moment: S , {S} =    0.00021   0.00000  -0.00000  -0.00021
   scf:   11    -3980.756717    -3980.746324    -3980.746415  0.005476 -3.775762  0.117606
     spin moment: S , {S} =    0.00015   0.00000  -0.00000  -0.00015
   scf:   12    -3980.766563    -3980.755204    -3980.755291  0.008782 -3.777139  0.061171
     spin moment: S , {S} =    0.00009   0.00000  -0.00000  -0.00009
   scf:   13    -3980.760047    -3980.757306    -3980.757394  0.005076 -3.775968  0.038127
     spin moment: S , {S} =    0.00004  -0.00000  -0.00000  -0.00004
   scf:   14    -3980.758468    -3980.757819    -3980.757907  0.002697 -3.774477  0.019149
     spin moment: S , {S} =    0.00002  -0.00000  -0.00000  -0.00002
   scf:   15    -3980.758293    -3980.758025    -3980.758114  0.002098 -3.773067  0.013512
     spin moment: S , {S} =    0.00001  -0.00000  -0.00000  -0.00001
   scf:   16    -3980.758158    -3980.758085    -3980.758174  0.001048 -3.772541  0.008633
     spin moment: S , {S} =    0.00001  -0.00000  -0.00000  -0.00001
   scf:   17    -3980.758181    -3980.758126    -3980.758214  0.001115 -3.772281  0.004125
     spin moment: S , {S} =    0.00001  -0.00000  -0.00000  -0.00001
   scf:   18    -3980.758145    -3980.758134    -3980.758223  0.000466 -3.772432  0.002561
     spin moment: S , {S} =    0.00001  -0.00000  -0.00000  -0.00001
   scf:   19    -3980.758144    -3980.758138    -3980.758226  0.000438 -3.772428  0.001155
     spin moment: S , {S} =    0.00000  -0.00000  -0.00000  -0.00000
   scf:   20    -3980.758140    -3980.758139    -3980.758227  0.000107 -3.772502  0.000813
     spin moment: S , {S} =    0.00000  -0.00000  -0.00000  -0.00000
   scf:   21    -3980.758140    -3980.758139    -3980.758228  0.000083 -3.772459  0.000569
     spin moment: S , {S} =    0.00000  -0.00000  -0.00000  -0.00000
   scf:   22    -3980.758140    -3980.758140    -3980.758228  0.000055 -3.772449  0.000343
     spin moment: S , {S} =    0.00000  -0.00000  -0.00000  -0.00000
   scf:   23    -3980.758140    -3980.758140    -3980.758228  0.000030 -3.772459  0.000185
     spin moment: S , {S} =    0.00000  -0.00000  -0.00000  -0.00000
   scf:   24    -3980.758140    -3980.758140    -3980.758228  0.000016 -3.772467  0.000141
     spin moment: S , {S} =    0.00000  -0.00000  -0.00000  -0.00000
mix: Pulay -- resetting history
   scf:   25    -3980.758140    -3980.758140    -3980.758228  0.000011 -3.772469  0.000107
     spin moment: S , {S} =    0.00000  -0.00000  -0.00000  -0.00000
   scf:   26    -3980.758140    -3980.758140    -3980.758228  0.000007 -3.772467  0.000087
     spin moment: S , {S} =    0.00000  -0.00000  -0.00000  -0.00000
   scf:   27    -3980.758140    -3980.758140    -3980.758228  0.000011 -3.772466  0.000050
     spin moment: S , {S} =    0.00000  -0.00000  -0.00000  -0.00000
   scf:   28    -3980.758140    -3980.758140    -3980.758228  0.000009 -3.772463  0.000022
     spin moment: S , {S} =    0.00000  -0.00000  -0.00000  -0.00000
   scf:   29    -3980.758140    -3980.758140    -3980.758228  0.000002 -3.772463  0.000018
     spin moment: S , {S} =    0.00000  -0.00000  -0.00000  -0.00000
   scf:   30    -3980.758140    -3980.758140    -3980.758228  0.000004 -3.772464  0.000009
     spin moment: S , {S} =    0.00000  -0.00000  -0.00000  -0.00000
   scf:   31    -3980.758140    -3980.758140    -3980.758228  0.000002 -3.772464  0.000008
     spin moment: S , {S} =    0.00000  -0.00000  -0.00000  -0.00000
   scf:   32    -3980.758140    -3980.758140    -3980.758228  0.000001 -3.772464  0.000003
     spin moment: S , {S} =    0.00000  -0.00000  -0.00000  -0.00000
   scf:   33    -3980.758140    -3980.758140    -3980.758228  0.000000 -3.772464  0.000002
     spin moment: S , {S} =    0.00000  -0.00000  -0.00000  -0.00000
   scf:   34    -3980.758140    -3980.758140    -3980.758228  0.000000 -3.772464  0.000001
     spin moment: S , {S} =    0.00000  -0.00000  -0.00000  -0.00000
   scf:   35    -3980.758140    -3980.758140    -3980.758228  0.000000 -3.772464  0.000001
     spin moment: S , {S} =    0.00000  -0.00000  -0.00000  -0.00000
   scf:   36    -3980.758140    -3980.758140    -3980.758228  0.000000 -3.772464  0.000001
     spin moment: S , {S} =    0.00000  -0.00000  -0.00000  -0.00000

SCF Convergence by DM+H criterion
max |DM_out - DM_in|         :     0.0000001923
max |H_out - H_in|      (eV) :     0.0000007206
SCF cycle converged after 36 iterations

Using DM_out to compute the final energy and forces
No. of atoms with KB's overlaping orbs in proc 0. Max # of overlaps:      28     214

siesta: E_KS(eV) =            -3980.7581

siesta: E_KS - E_eggbox =     -3980.7581
     spin moment: S , {S} =    0.00000  -0.00000  -0.00000  -0.00000

siesta: Atomic forces (eV/Ang):
     1    0.157711   -0.105105   -0.000030
     2    0.128004   -0.050514   -0.000099
     3    0.069941    0.026412    0.000010
     4    0.066522   -0.135891    0.000002
     5   -0.005610    0.084916   -0.000064
     6    0.274950    0.008697   -0.000049
     7   -1.929331   -1.168241   -0.000477
     8    5.715783  -23.556821    0.001006
     9    6.401297  -75.589186    0.000002
    10    0.192923   -0.864890   -0.000491
    11    1.055933   -3.911948    0.000038
    12    0.761454   -0.363606    0.000007
    13   -0.237571   -0.003516    0.000008
    14   -0.077018    0.221140   -0.000081
    15   -0.059879   -0.291698    0.000405
    16   -0.110683    0.045415   -0.000881
    17    0.164017    0.168364   -0.000819
    18    0.119532    0.018163    0.003975
    19    0.066814   -0.093196   -0.000169
    20   -0.109854   -0.277374   -0.001552
    21    0.141212    0.116264   -0.002390
    22    0.057561   -0.003588    0.122832
    23    0.035855   -0.042968   -0.007826
    24    0.054495    0.028910   -0.098892
    25    1.504740    2.690072   -0.000218
    26  -12.811759   97.512984    0.000256
    27   -2.026481    5.267070   -0.000072
    28    0.473649   -1.442061   -0.000042
    29   -0.858066    0.049782    0.000122
    30    1.502082   -2.623244    0.000043
----------------------------------------
   Tot    0.718222   -4.285657    0.014553
----------------------------------------
   Max   97.512984
   Res   13.371766    sqrt( Sum f_i^2 / 3N )
----------------------------------------
   Max   97.512984    constrained

Stress tensor Voigt[x,y,z,yz,xz,xy] (kbar):        0.05      -12.58       -0.01       -0.01        0.00        1.90
(Free)E + p*V (eV/cell)    -3945.5639
Target enthalpy (eV/cell)    -3980.7582

siesta: Stress tensor (static) (eV/Ang**3):
         0.000034    0.001187    0.000000
         0.001187   -0.007852   -0.000004
         0.000000   -0.000004   -0.000003

siesta: Pressure (static):          4.17689972  kBar

siesta: Stress tensor (total) (eV/Ang**3):
         0.000034    0.001187    0.000000
         0.001187   -0.007852   -0.000004
         0.000000   -0.000004   -0.000003

siesta: Pressure (total):          4.17689972  kBar

siesta: Temp_ion =       0.000 K

siesta: Eigenvalues (eV):
ik =     1
  -29.6273  -29.6273  -22.7340  -22.7340  -21.5588  -21.5588  -21.2435  -21.2435  -20.8841  -20.8841
  -19.8774  -19.8774  -19.3645  -19.3645  -19.1419  -19.1419  -18.9319  -18.9319  -16.5084  -16.5084
  -14.8771  -14.8771  -14.0676  -14.0676  -13.4950  -13.4950  -13.3251  -13.3251  -12.7438  -12.7438
  -12.6742  -12.6742  -12.3770  -12.3770  -12.0855  -12.0855  -11.6502  -11.6502  -11.2579  -11.2579
  -10.9964  -10.9964  -10.4415  -10.4415  -10.2460  -10.2460   -9.8762   -9.8762   -9.6233   -9.6233
   -9.4305   -9.4305   -9.3253   -9.3253   -8.8719   -8.8719   -8.8012   -8.8012   -8.7131   -8.7131
   -8.6349   -8.6349   -8.5291   -8.5291   -8.3378   -8.3378   -8.1457   -8.1457   -8.0537   -8.0537
   -7.8399   -7.8399   -7.7014   -7.7014   -7.3254   -7.3254   -7.3083   -7.3083   -6.9538   -6.9538
   -6.6589   -6.6589   -6.5701   -6.5701   -6.2853   -6.2853   -6.1854   -6.1854   -5.7683   -5.7683
   -5.7012   -5.7012   -5.3790   -5.3790   -4.2686   -4.2686   -4.0157   -4.0157   -3.5292   -3.5292
   -2.6405   -2.6405   -2.4071   -2.4071   -2.3252   -2.3252   -2.0168   -2.0168   -2.0065   -2.0065
   -1.8608   -1.8608   -1.7294   -1.7294   -1.6069   -1.6069   -1.3834   -1.3834   -1.3120   -1.3120
   -0.9749   -0.9749   -0.5995   -0.5995   -0.2142   -0.2142   -0.1625   -0.1625   -0.0385   -0.0385
   -0.0185   -0.0185    0.0014    0.0014    0.2746    0.2746    0.6318    0.6318    0.6395    0.6395
    0.8940    0.8940    1.0950    1.0950    1.3898    1.3898    1.4060    1.4060    1.6069    1.6069
    1.7455    1.7455    1.8812    1.8812    2.2087    2.2087    2.3666    2.3666    2.5400    2.5400
    2.6096    2.6096    2.7911    2.7911    2.8610    2.8610    3.0758    3.0758    3.1455    3.1455
    3.2827    3.2827    3.3056    3.3056    3.4417    3.4417    3.7141    3.7141    3.8542    3.8542
    4.1176    4.1176    4.3948    4.3948    4.4005    4.4005    4.5723    4.5723    4.7040    4.7040
    4.8724    4.8724    5.1519    5.1519    5.2333    5.2333    5.2509    5.2509    5.3961    5.3961
    5.6652    5.6652    5.7650    5.7650    5.9205    5.9205    6.0552    6.0552    6.2475    6.2475
    6.2921    6.2921    6.4050    6.4050    6.6241    6.6241    6.8615    6.8615    6.9813    6.9813
    7.1631    7.1631    7.2614    7.2614    7.3506    7.3506    7.5600    7.5600    7.7270    7.7270
    7.7983    7.7983    7.9892    7.9892    8.1250    8.1250    8.4021    8.4021    8.5560    8.5560
    8.5938    8.5938    8.8399    8.8399    8.9044    8.9044    9.1452    9.1452    9.3377    9.3377
    9.4443    9.4443    9.6700    9.6700    9.6846    9.6846    9.8085    9.8085    9.9760    9.9760
   10.0281   10.0281   10.2205   10.2205   10.5697   10.5697   10.7304   10.7304   10.7543   10.7543
   11.2738   11.2738   11.5329   11.5329   11.6463   11.6463   11.8061   11.8061   11.8769   11.8769
   12.0678   12.0678   12.1169   12.1169   12.1223   12.1223   12.1742   12.1742   12.6823   12.6823
   12.7765   12.7765   12.9594   12.9594   13.3312   13.3312   13.3947   13.3947   13.6608   13.6608
   13.8985   13.8985   14.1929   14.1929   14.6300   14.6300   14.6509   14.6509   14.9269   14.9269
   15.1368   15.1368   15.5107   15.5107   15.8443   15.8443   15.8531   15.8531   16.1508   16.1508
   16.4385   16.4385   16.5562   16.5562   16.9231   16.9231   17.1132   17.1132   17.5227   17.5227
   17.7174   17.7174   17.9305   17.9305   18.2982   18.2982   18.3317   18.3317   18.6556   18.6556
   18.9527   18.9527   19.1462   19.1462   19.1906   19.1906   19.7134   19.7134   20.2502   20.2502
   20.3512   20.3512   20.6164   20.6164   21.1174   21.1174   21.1462   21.1462   21.6757   21.6757
   21.7040   21.7040   22.4862   22.4862   22.8427   22.8427   23.1431   23.1431   23.3818   23.3818
   23.5809   23.5809   24.0089   24.0089   24.5114   24.5114   24.9052   24.9052   25.2479   25.2479
   25.3716   25.3716   25.8694   25.8694   25.9571   25.9571   26.5288   26.5288   27.6412   27.6412
   27.7924   27.7924   28.3869   28.3869   28.6453   28.6453   29.4390   29.4390   29.9043   29.9043
   30.2801   30.2801   30.9733   30.9733   31.0683   31.0683   31.3610   31.3610   31.4355   31.4355
   31.7233   31.7233   32.2552   32.2552   32.7375   32.7375   32.7837   32.7837   33.5595   33.5595
   33.9870   33.9870   34.6121   34.6121   34.9626   34.9626   35.3059   35.3059   36.0304   36.0304
   36.5426   36.5426   37.3186   37.3186   37.4847   37.4847   37.6189   37.6189   38.2974   38.2974
   38.9044   38.9044   39.4596   39.4596   40.1937   40.1937   40.2829   40.2829   40.4127   40.4127
   41.3623   41.3623   41.5585   41.5585   41.8162   41.8162   42.7988   42.7988   42.9194   42.9194
   43.2571   43.2571   43.4868   43.4868   43.8183   43.8183   44.3163   44.3163   44.6540   44.6540
   44.8124   44.8124   45.2487   45.2487   45.4863   45.4863   45.7097   45.7097   46.3126   46.3126
   47.1998   47.1998   47.6426   47.6426   47.7356   47.7356   48.1903   48.1903   48.2170   48.2170
   48.5889   48.5889   49.2919   49.2919   49.4599   49.4599   49.8595   49.8595   50.1780   50.1780
   50.4530   50.4530   50.8397   50.8397   51.4178   51.4178   52.1481   52.1481   52.5772   52.5772
   52.8552   52.8552   54.1130   54.1130   54.3733   54.3733   54.6534   54.6534   55.7600   55.7600
   56.8147   56.8147   57.0736   57.0736   57.1467   57.1467   57.7774   57.7774   59.0969   59.0969
   59.2125   59.2125   60.6767   60.6767   61.3968   61.3968   61.7246   61.7246   62.4162   62.4162
   63.8231   63.8231   64.6673   64.6673   65.6866   65.6866   66.2588   66.2588   67.0860   67.0860
   68.4943   68.4943   68.7572   68.7572   68.8209   68.8209   69.2677   69.2677   71.3194   71.3194
   72.2494   72.2494   73.0639   73.0639   77.6879   77.6879   78.6824   78.6824   80.5239   80.5239
   89.3728   89.3728   92.1701   92.1701   93.5839   93.5839   94.9274   94.9274   98.7873   98.7873
  100.1716  100.1716  101.8463  101.8463  105.8935  105.8935  110.7865  110.7865  119.7769  119.7769
  123.7375  123.7375  127.6806  127.6806  130.5399  130.5399  136.4134  136.4134  144.4459  144.4459
  158.2056  158.2056  290.5430  290.5430
siesta: Fermi energy =      -3.772464 eV

siesta: Program's energy decomposition (eV):
siesta: Ebs     =     -1128.825918
siesta: Eions   =      3553.971015
siesta: Ena     =       408.758904
siesta: Ekin    =      2804.589126
siesta: Enl     =     -2587.975413
siesta: Eso     =        -0.004839
siesta: Edftu   =         0.000000
siesta: DEna    =        37.415793
siesta: DUscf   =        14.927946
siesta: DUext   =         0.000000
siesta: Exc     =     -1104.498642
siesta: eta*DQ  =         0.000000
siesta: Emadel  =         0.000000
siesta: Emeta   =         0.000000
siesta: Emolmec =         0.000000
siesta: Ekinion =         0.000000
siesta: Eharris =     -3980.758140
siesta: Etot    =     -3980.758140
siesta: FreeEng =     -3980.758228

siesta: Final energy (eV):
siesta:  Band Struct. =   -1128.825918
siesta:       Kinetic =    2804.589126
siesta:       Hartree =   16046.253914
siesta:       Edftu   =       0.000000
siesta:       Eso     =      -0.004839
siesta:    Ext. field =       0.000000
siesta:   Exch.-corr. =   -1104.498642
siesta:  Ion-electron =  -34591.958405
siesta:       Ion-ion =   12864.860706
siesta:       Ekinion =       0.000000
siesta:         Total =   -3980.758140
siesta:         Fermi =      -3.772464

siesta: Atomic forces (eV/Ang):
siesta:      1    0.157711   -0.105105   -0.000030
siesta:      2    0.128004   -0.050514   -0.000099
siesta:      3    0.069941    0.026412    0.000010
siesta:      4    0.066522   -0.135891    0.000002
siesta:      5   -0.005610    0.084916   -0.000064
siesta:      6    0.274950    0.008697   -0.000049
siesta:      7   -1.929331   -1.168241   -0.000477
siesta:      8    5.715783  -23.556821    0.001006
siesta:      9    6.401297  -75.589186    0.000002
siesta:     10    0.192923   -0.864890   -0.000491
siesta:     11    1.055933   -3.911948    0.000038
siesta:     12    0.761454   -0.363606    0.000007
siesta:     13   -0.237571   -0.003516    0.000008
siesta:     14   -0.077018    0.221140   -0.000081
siesta:     15   -0.059879   -0.291698    0.000405
siesta:     16   -0.110683    0.045415   -0.000881
siesta:     17    0.164017    0.168364   -0.000819
siesta:     18    0.119532    0.018163    0.003975
siesta:     19    0.066814   -0.093196   -0.000169
siesta:     20   -0.109854   -0.277374   -0.001552
siesta:     21    0.141212    0.116264   -0.002390
siesta:     22    0.057561   -0.003588    0.122832
siesta:     23    0.035855   -0.042968   -0.007826
siesta:     24    0.054495    0.028910   -0.098892
siesta:     25    1.504740    2.690072   -0.000218
siesta:     26  -12.811759   97.512984    0.000256
siesta:     27   -2.026481    5.267070   -0.000072
siesta:     28    0.473649   -1.442061   -0.000042
siesta:     29   -0.858066    0.049782    0.000122
siesta:     30    1.502082   -2.623244    0.000043
siesta: ----------------------------------------
siesta:    Tot    0.718222   -4.285657    0.014553

siesta: Stress tensor (static) (eV/Ang**3):
siesta:     0.000034    0.001187    0.000000
siesta:     0.001187   -0.007852   -0.000004
siesta:     0.000000   -0.000004   -0.000003

siesta: Cell volume =      13500.000000 Ang**3

siesta: Pressure (static):
siesta:                Solid            Molecule  Units
siesta:           0.00002839          0.00000005  Ry/Bohr**3
siesta:           0.00260699          0.00000428  eV/Ang**3
siesta:           4.17689972          0.00685470  kBar
(Free)E+ p_basis*V_orbitals  =       -3959.630143
(Free)Eharris+ p_basis*V_orbitals  =       -3959.630143
     spin moment: S , {S} =    0.00000  -0.00000  -0.00000  -0.00000

siesta: Electric dipole (a.u.)  =   -0.959075    1.557559   -0.001459
siesta: Electric dipole (Debye) =   -2.437727    3.958923   -0.003708

cite: Please see "AT.bib" for an exhaustive BiBTeX file.
cite: Please clearly indicate Siesta version in published work: v4.1.5-1-g384057250
cite: This calculation has made use of the following articles
cite: which are encouraged to be cited in a published work.
        Primary SIESTA paper
          DOI: www.doi.org/10.1088/0953-8984/14/11/302
        Spin-orbit coupling (on-site approximation)
          DOI: www.doi.org/10.1088/0953-8984/19/19/489001


WARNING: alloc-realloc-dealloc name mismatch
         Name: atomlist isa
         Size:              -120. Bytes
         Node:     0
         Subsequent mismatches will not be reported
>> End of run:   1-FEB-2024  17:51:48
Job completed
