Siesta Version  : v4.1.5-1-g384057250
Architecture    : gcc
Compiler version: GNU Fortran (Ubuntu 11.3.0-1ubuntu1~22.04) 11.3.0
Compiler flags  : mpifort -O2 -fPIC -ftree-vectorize -fallow-argument-mismatch
PP flags        : -DFC_HAVE_ABORT -DMPI -DSIESTA__FLOOK -DSIESTA__METIS -DSIESTA__MUMPS -DCDF -DNCDF -DNCDF_4 -DNCDF_PARALLEL -DSIESTA__MRRR -DSIESTA__ELPA
Libraries       : libncdf.a libfdict.a  -lflookall -ldl -lnetcdff -lnetcdf -lhdf5_hl -lhdf5 -lhdf5_fortran -lz -lscalapack-openmpi -lopenblas -lmetis -lzmumps -lcmumps -ldmumps -lmumps_common -lpord -lsmumps -lesmumps -lscotch -lscotcherr -fopenmp -lelpa
PARALLEL version
NetCDF support
NetCDF-4 support
NetCDF-4 MPI-IO support
METIS ordering support
Lua support

* Running on 4 nodes in parallel
>> Start of run:  28-JUN-2023  19:46:54

                           ***********************       
                           *  WELCOME TO SIESTA  *       
                           ***********************       

reinit: Reading from standard input
reinit: Dumped input in INPUT_TMP.72104
************************** Dump of input data file ****************************
SystemLabel      GC
NumberOfAtoms    29
NumberOfSpecies  4
%block ChemicalSpeciesLabel
    1    8  O
    2    7  N
    3   14  Si
    4    1  H
%endblock ChemicalSpeciesLabel
# Single point calculation
MD.TypeOfRun                CG
MD.Steps                    0
SCF.MustConverge            F # In case it does not. There can be 2 very close atoms
AtomicCoordinatesFormat NotScaledCartesianAng
%block AtomicCoordinatesAndAtomicSpecies
1.043624880    3.939228610    0.000000000       1
-3.040641290   1.071078170    0.000000000       2
2.054601450    1.213582070    0.000000000       2
0.999014100    -1.732643800   0.000000000       2
-2.132351640   -1.812968220   0.000000000       2
3.860190550    -1.112298180   0.000000000       2
-1.236183220   1.152964460    0.000000000       3
-0.532924260   -0.939006270   0.000000000       3
0.635660470    2.374516770    0.000000000       3
2.245170240    -0.549967100   0.000000000       3
-3.449816660   -0.583665030   0.000000000       3
2.963714090    1.790992630    0.000000000       4
-4.845591350   -1.123549660   0.000000000       4
4.007020910    -2.152308560   0.000000000       4
4.772194380    -0.502318160   0.000000000       4
-2.265399090   -2.864605110   0.000000000       4
6.604746812    6.038296584    0.000000000       3
8.509630782    7.244935524    0.000000000       3
8.013876642    3.271961614    0.000000000       3
10.091346932   5.741178774    0.000000000       3
6.664369482    4.320869014    0.000000000       2
5.065611752    6.791973894    0.000000000       2
9.666171902    4.001798834    0.000000000       2
8.700975582    8.737089274    0.000000000       4
11.575714912   5.959909594    0.000000000       4
4.954266472    7.841169004    0.000000000       4
4.133054042    6.167059714    0.000000000       4
8.003649812    1.663850494    0.000000000       1
10.441597782   3.275107274    0.000000000       4
%endblock AtomicCoordinatesAndAtomicSpecies
%include ../../../Defaults.fdf
************************** End of input data file *****************************

reinit: -----------------------------------------------------------------------
reinit: System Name: 
reinit: -----------------------------------------------------------------------
reinit: System Label: GC
reinit: -----------------------------------------------------------------------

initatom: Reading input for the pseudopotentials and atomic orbitals ----------
Species number:   1 Atomic number:    8 Label: O
Species number:   2 Atomic number:    7 Label: N
Species number:   3 Atomic number:   14 Label: Si
Species number:   4 Atomic number:    1 Label: H

Ground state valence configuration:   2s02  2p04
Reading pseudopotential information in formatted form from O.psf

Pseudopotential generated from a relativistic atomic calculation

Valence configuration for pseudopotential generation:
2s( 2.00) rc: 0.45
2p( 4.00) rc: 0.92
3d( 0.00) rc: 2.24
4f( 0.00) rc: 0.25
Ground state valence configuration:   2s02  2p03
Reading pseudopotential information in formatted form from N.psf

Pseudopotential generated from a relativistic atomic calculation

Valence configuration for pseudopotential generation:
2s( 2.00) rc: 0.94
2p( 3.00) rc: 0.59
3d( 0.00) rc: 3.46
4f( 0.00) rc: 2.47
Ground state valence configuration:   3s02  3p02
Reading pseudopotential information in formatted form from Si.psf

Pseudopotential generated from a relativistic atomic calculation

Valence configuration for pseudopotential generation:
3s( 2.00) rc: 1.67
3p( 2.00) rc: 2.04
3d( 0.00) rc: 2.89
4f( 0.00) rc: 2.49
Ground state valence configuration:   1s01
Reading pseudopotential information in formatted form from H.psf

Pseudopotential generated from a relativistic atomic calculation

Valence configuration for pseudopotential generation:
1s( 1.00) rc: 0.01
2p( 0.00) rc: 0.60
3d( 0.00) rc: 1.99
4f( 0.00) rc: 2.49
For O, standard SIESTA heuristics set lmxkb to 3
 (one more than the basis l, including polarization orbitals).
Use PS.lmax or PS.KBprojectors blocks to override.
For N, standard SIESTA heuristics set lmxkb to 3
 (one more than the basis l, including polarization orbitals).
Use PS.lmax or PS.KBprojectors blocks to override.
For Si, standard SIESTA heuristics set lmxkb to 3
 (one more than the basis l, including polarization orbitals).
Use PS.lmax or PS.KBprojectors blocks to override.
For H, standard SIESTA heuristics set lmxkb to 2
 (one more than the basis l, including polarization orbitals).
Use PS.lmax or PS.KBprojectors blocks to override.

<basis_specs>
===============================================================================
O                    Z=   8    Mass=  16.000        Charge= 0.17977+309
Lmxo=1 Lmxkb= 3    BasisType=split      Semic=F
L=0  Nsemic=0  Cnfigmx=2
          i=1  nzeta=2  polorb=0  (2s)
            splnorm:   0.28000    
               vcte:    0.0000    
               rinn:    0.0000    
               qcoe:    0.0000    
               qyuk:    0.0000    
               qwid:   0.10000E-01
                rcs:    0.0000      0.0000    
            lambdas:    1.0000      1.0000    
L=1  Nsemic=0  Cnfigmx=2
          i=1  nzeta=2  polorb=1  (2p)
            splnorm:   0.28000    
               vcte:    0.0000    
               rinn:    0.0000    
               qcoe:    0.0000    
               qyuk:    0.0000    
               qwid:   0.10000E-01
                rcs:    0.0000      0.0000    
            lambdas:    1.0000      1.0000    
-------------------------------------------------------------------------------
L=0  Nkbl=1  erefs: 0.17977+309
L=1  Nkbl=1  erefs: 0.17977+309
L=2  Nkbl=1  erefs: 0.17977+309
L=3  Nkbl=1  erefs: 0.17977+309
===============================================================================
</basis_specs>

atom: Called for O                     (Z =   8)

read_vps: Pseudopotential generation method:
read_vps: ATM4.2.7  Troullier-Martins                       
Valence charge for ps generation:    6.00000

xc_check: Exchange-correlation functional:
xc_check: GGA Perdew, Burke & Ernzerhof 1996
V l=0 = -2*Zval/r beyond r=  1.1000
V l=1 = -2*Zval/r beyond r=  1.1000
V l=2 = -2*Zval/r beyond r=  2.2154
V l=3 = -2*Zval/r beyond r=  1.1000
All V_l potentials equal beyond r=  2.2154
This should be close to max(r_c) in ps generation
All pots = -2*Zval/r beyond r=  2.2154

VLOCAL1: 99.0% of the norm of Vloc inside      8.845 Ry
VLOCAL1: 99.9% of the norm of Vloc inside     20.157 Ry
atom: Maximum radius for 4*pi*r*r*local-pseudopot. charge    2.67231
atom: Maximum radius for r*vlocal+2*Zval:    2.32897
GHOST: No ghost state for L =  0
GHOST: No ghost state for L =  1
GHOST: No ghost state for L =  2
GHOST: No ghost state for L =  3

KBgen: Kleinman-Bylander projectors: 
   l= 0   rc=  2.243238   el= -1.759686   Ekb=**********   kbcos= -0.171774
   l= 1   rc=  2.328968   el= -0.663873   Ekb=-14.506792   kbcos= -0.519897
   l= 2   rc=  2.573941   el=  0.002031   Ekb= -1.137373   kbcos= -0.019581
   l= 3   rc=  2.606321   el=  0.003153   Ekb= -1.013546   kbcos= -0.003122

KBgen: Total number of Kleinman-Bylander projectors:   16
atom: -------------------------------------------------------------------------

atom: SANKEY-TYPE ORBITALS:
atom: Selected multiple-zeta basis: split     

SPLIT: Orbitals with angular momentum L= 0

SPLIT: Basis orbitals for state 2s

SPLIT: PAO cut-off radius determined from an
SPLIT: energy shift=  0.002000 Ry

   izeta = 1
                 lambda =    1.000000
                     rc =    4.243912
                 energy =   -1.758270
                kinetic =    3.286084
    potential(screened) =   -5.044353
       potential(ionic) =  -12.921184

   izeta = 2
                 rmatch =    2.187845
              splitnorm =    0.280000
                 energy =   -0.885018
                kinetic =    8.134434
    potential(screened) =   -9.019452
       potential(ionic) =  -17.710645

SPLIT: Orbitals with angular momentum L= 1

SPLIT: Basis orbitals for state 2p

SPLIT: PAO cut-off radius determined from an
SPLIT: energy shift=  0.002000 Ry

   izeta = 1
                 lambda =    1.000000
                     rc =    5.314825
                 energy =   -0.661986
                kinetic =    4.917472
    potential(screened) =   -5.579458
       potential(ionic) =  -13.236259

   izeta = 2
                 rmatch =    2.160663
              splitnorm =    0.280000
                 energy =   -0.068760
                kinetic =    9.183374
    potential(screened) =   -9.252135
       potential(ionic) =  -18.274251

POLgen: Perturbative polarization orbital with L=  2

POLgen: Polarization orbital for state 2p

   izeta = 1
                     rc =    5.314825
                 energy =    1.970580
                kinetic =    3.886128
    potential(screened) =   -1.915547
       potential(ionic) =   -7.749584
atom: Total number of Sankey-type orbitals: 13

atm_pop: Valence configuration (for local Pseudopot. screening):
 2s( 2.00)                                                            
 2p( 4.00)                                                            
Vna: chval, zval:    6.00000   6.00000

Vna:  Cut-off radius for the neutral-atom potential:   5.314825

atom: _________________________________________________________________________

<basis_specs>
===============================================================================
N                    Z=   7    Mass=  14.010        Charge= 0.17977+309
Lmxo=1 Lmxkb= 3    BasisType=split      Semic=F
L=0  Nsemic=0  Cnfigmx=2
          i=1  nzeta=2  polorb=0  (2s)
            splnorm:   0.28000    
               vcte:    0.0000    
               rinn:    0.0000    
               qcoe:    0.0000    
               qyuk:    0.0000    
               qwid:   0.10000E-01
                rcs:    0.0000      0.0000    
            lambdas:    1.0000      1.0000    
L=1  Nsemic=0  Cnfigmx=2
          i=1  nzeta=2  polorb=1  (2p)
            splnorm:   0.28000    
               vcte:    0.0000    
               rinn:    0.0000    
               qcoe:    0.0000    
               qyuk:    0.0000    
               qwid:   0.10000E-01
                rcs:    0.0000      0.0000    
            lambdas:    1.0000      1.0000    
-------------------------------------------------------------------------------
L=0  Nkbl=1  erefs: 0.17977+309
L=1  Nkbl=1  erefs: 0.17977+309
L=2  Nkbl=1  erefs: 0.17977+309
L=3  Nkbl=1  erefs: 0.17977+309
===============================================================================
</basis_specs>

atom: Called for N                     (Z =   7)

read_vps: Pseudopotential generation method:
read_vps: ATM4.2.7  Troullier-Martins                       
Valence charge for ps generation:    5.00000

xc_check: Exchange-correlation functional:
xc_check: GGA Perdew, Burke & Ernzerhof 1996
V l=0 = -2*Zval/r beyond r=  1.2889
V l=1 = -2*Zval/r beyond r=  1.2889
V l=2 = -2*Zval/r beyond r=  3.4178
V l=3 = -2*Zval/r beyond r=  2.4084
All V_l potentials equal beyond r=  3.3753
This should be close to max(r_c) in ps generation
All pots = -2*Zval/r beyond r=  3.4178

VLOCAL1: 99.0% of the norm of Vloc inside      3.810 Ry
VLOCAL1: 99.9% of the norm of Vloc inside      8.683 Ry
atom: Maximum radius for 4*pi*r*r*local-pseudopot. charge    4.02088
atom: Maximum radius for r*vlocal+2*Zval:    3.54838
GHOST: No ghost state for L =  0
GHOST: No ghost state for L =  1
GHOST: No ghost state for L =  2
GHOST: No ghost state for L =  3

KBgen: Kleinman-Bylander projectors: 
   l= 0   rc=  3.417763   el= -1.365098   Ekb= -4.433130   kbcos= -0.707855
   l= 1   rc=  3.375302   el= -0.521201   Ekb=-13.264039   kbcos= -0.535594
   l= 2   rc=  3.872880   el=  0.001991   Ekb= -0.641094   kbcos= -0.062456
   l= 3   rc=  3.970931   el=  0.003093   Ekb= -0.474517   kbcos= -0.018236

KBgen: Total number of Kleinman-Bylander projectors:   16
atom: -------------------------------------------------------------------------

atom: SANKEY-TYPE ORBITALS:
atom: Selected multiple-zeta basis: split     

SPLIT: Orbitals with angular momentum L= 0

SPLIT: Basis orbitals for state 2s

SPLIT: PAO cut-off radius determined from an
SPLIT: energy shift=  0.002000 Ry

   izeta = 1
                 lambda =    1.000000
                     rc =    4.730425
                 energy =   -1.363399
                kinetic =    1.245246
    potential(screened) =   -2.608645
       potential(ionic) =   -8.121105

   izeta = 2
                 rmatch =    2.531849
              splitnorm =    0.280000
                 energy =   -0.959908
                kinetic =    2.409435
    potential(screened) =   -3.369343
       potential(ionic) =   -9.427975

SPLIT: Orbitals with angular momentum L= 1

SPLIT: Basis orbitals for state 2p

SPLIT: PAO cut-off radius determined from an
SPLIT: energy shift=  0.002000 Ry

   izeta = 1
                 lambda =    1.000000
                     rc =    5.924108
                 energy =   -0.519262
                kinetic =    3.672940
    potential(screened) =   -4.192202
       potential(ionic) =   -9.518354

   izeta = 2
                 rmatch =    2.531849
              splitnorm =    0.280000
                 energy =   -0.104258
                kinetic =    6.807538
    potential(screened) =   -6.911796
       potential(ionic) =  -13.149920

POLgen: Perturbative polarization orbital with L=  2

POLgen: Polarization orbital for state 2p

   izeta = 1
                     rc =    5.924108
                 energy =    1.427508
                kinetic =    2.872379
    potential(screened) =   -1.444871
       potential(ionic) =   -5.563644
atom: Total number of Sankey-type orbitals: 13

atm_pop: Valence configuration (for local Pseudopot. screening):
 2s( 2.00)                                                            
 2p( 3.00)                                                            
Vna: chval, zval:    5.00000   5.00000

Vna:  Cut-off radius for the neutral-atom potential:   5.924108

atom: _________________________________________________________________________

<basis_specs>
===============================================================================
Si                   Z=  14    Mass=  28.090        Charge= 0.17977+309
Lmxo=1 Lmxkb= 3    BasisType=split      Semic=F
L=0  Nsemic=0  Cnfigmx=3
          i=1  nzeta=2  polorb=0  (3s)
            splnorm:   0.28000    
               vcte:    0.0000    
               rinn:    0.0000    
               qcoe:    0.0000    
               qyuk:    0.0000    
               qwid:   0.10000E-01
                rcs:    0.0000      0.0000    
            lambdas:    1.0000      1.0000    
L=1  Nsemic=0  Cnfigmx=3
          i=1  nzeta=2  polorb=1  (3p)
            splnorm:   0.28000    
               vcte:    0.0000    
               rinn:    0.0000    
               qcoe:    0.0000    
               qyuk:    0.0000    
               qwid:   0.10000E-01
                rcs:    0.0000      0.0000    
            lambdas:    1.0000      1.0000    
-------------------------------------------------------------------------------
L=0  Nkbl=1  erefs: 0.17977+309
L=1  Nkbl=1  erefs: 0.17977+309
L=2  Nkbl=1  erefs: 0.17977+309
L=3  Nkbl=1  erefs: 0.17977+309
===============================================================================
</basis_specs>

atom: Called for Si                    (Z =  14)

read_vps: Pseudopotential generation method:
read_vps: ATM4.2.7  Troullier-Martins                       
Valence charge for ps generation:    4.00000

xc_check: Exchange-correlation functional:
xc_check: GGA Perdew, Burke & Ernzerhof 1996
V l=0 = -2*Zval/r beyond r=  2.7826
V l=1 = -2*Zval/r beyond r=  2.7826
V l=2 = -2*Zval/r beyond r=  2.9253
V l=3 = -2*Zval/r beyond r=  2.7826
All V_l potentials equal beyond r=  2.8530
This should be close to max(r_c) in ps generation
All pots = -2*Zval/r beyond r=  2.9253

VLOCAL1: 99.0% of the norm of Vloc inside      5.333 Ry
VLOCAL1: 99.9% of the norm of Vloc inside     12.154 Ry
atom: Maximum radius for 4*pi*r*r*local-pseudopot. charge    3.39869
atom: Maximum radius for r*vlocal+2*Zval:    2.96205
GHOST: No ghost state for L =  0
GHOST: No ghost state for L =  1
GHOST: No ghost state for L =  2
GHOST: No ghost state for L =  3

KBgen: Kleinman-Bylander projectors: 
   l= 0   rc=  3.075247   el= -0.794092   Ekb=  5.879390   kbcos=  0.167461
   l= 1   rc=  3.153101   el= -0.300068   Ekb=  2.642817   kbcos=  0.058301
   l= 2   rc=  3.273594   el=  0.001958   Ekb= -1.185135   kbcos= -0.104411
   l= 3   rc=  3.232927   el=  0.003046   Ekb= -0.497174   kbcos= -0.015889

KBgen: Total number of Kleinman-Bylander projectors:   16
atom: -------------------------------------------------------------------------

atom: SANKEY-TYPE ORBITALS:
atom: Selected multiple-zeta basis: split     

SPLIT: Orbitals with angular momentum L= 0

SPLIT: Basis orbitals for state 3s

SPLIT: PAO cut-off radius determined from an
SPLIT: energy shift=  0.002000 Ry

   izeta = 1
                 lambda =    1.000000
                     rc =    6.429618
                 energy =   -0.792283
                kinetic =    0.525293
    potential(screened) =   -1.317576
       potential(ionic) =   -3.744923

   izeta = 2
                 rmatch =    3.998416
              splitnorm =    0.280000
                 energy =   -0.583081
                kinetic =    1.069570
    potential(screened) =   -1.652651
       potential(ionic) =   -4.235185

SPLIT: Orbitals with angular momentum L= 1

SPLIT: Basis orbitals for state 3p

SPLIT: PAO cut-off radius determined from an
SPLIT: energy shift=  0.002000 Ry

   izeta = 1
                 lambda =    1.000000
                     rc =    8.464845
                 energy =   -0.298236
                kinetic =    0.785360
    potential(screened) =   -1.083596
       potential(ionic) =   -3.273779

   izeta = 2
                 rmatch =    4.587816
              splitnorm =    0.280000
                 energy =   -0.131871
                kinetic =    1.403687
    potential(screened) =   -1.535557
       potential(ionic) =   -4.015310

POLgen: Perturbative polarization orbital with L=  2

POLgen: Polarization orbital for state 3p

   izeta = 1
                     rc =    8.464845
                 energy =    0.321949
                kinetic =    1.055677
    potential(screened) =   -0.733728
       potential(ionic) =   -2.672950
atom: Total number of Sankey-type orbitals: 13

atm_pop: Valence configuration (for local Pseudopot. screening):
 3s( 2.00)                                                            
 3p( 2.00)                                                            
Vna: chval, zval:    4.00000   4.00000

Vna:  Cut-off radius for the neutral-atom potential:   8.464845

atom: _________________________________________________________________________

<basis_specs>
===============================================================================
H                    Z=   1    Mass=  1.0100        Charge= 0.17977+309
Lmxo=0 Lmxkb= 2    BasisType=split      Semic=F
L=0  Nsemic=0  Cnfigmx=1
          i=1  nzeta=2  polorb=1  (1s)
            splnorm:   0.62000    
               vcte:    0.0000    
               rinn:    0.0000    
               qcoe:    0.0000    
               qyuk:    0.0000    
               qwid:   0.10000E-01
                rcs:    0.0000      0.0000    
            lambdas:    1.0000      1.0000    
-------------------------------------------------------------------------------
L=0  Nkbl=1  erefs: 0.17977+309
L=1  Nkbl=1  erefs: 0.17977+309
L=2  Nkbl=1  erefs: 0.17977+309
===============================================================================
</basis_specs>

atom: Called for H                     (Z =   1)

read_vps: Pseudopotential generation method:
read_vps: ATM4.2.7  Troullier-Martins                       
Valence charge for ps generation:    1.00000

xc_check: Exchange-correlation functional:
xc_check: GGA Perdew, Burke & Ernzerhof 1996
V l=0 = -2*Zval/r beyond r=  0.0098
V l=1 = -2*Zval/r beyond r=  0.5817
V l=2 = -2*Zval/r beyond r=  1.9372
All V_l potentials equal beyond r=  1.9372
This should be close to max(r_c) in ps generation
All pots = -2*Zval/r beyond r=  1.9372

VLOCAL1: 99.0% of the norm of Vloc inside     11.567 Ry
VLOCAL1: 99.9% of the norm of Vloc inside     26.362 Ry
atom: Maximum radius for 4*pi*r*r*local-pseudopot. charge    2.25106
atom: Maximum radius for r*vlocal+2*Zval:    1.91306
GHOST: No ghost state for L =  0
GHOST: No ghost state for L =  1
GHOST: No ghost state for L =  2

KBgen: Kleinman-Bylander projectors: 
   l= 0   rc=  2.036604   el= -0.477180   Ekb= -6.081590   kbcos= -0.277285
   l= 1   rc=  2.195416   el=  0.001076   Ekb= -0.926943   kbcos= -0.034643
   l= 2   rc=  2.251056   el=  0.002010   Ekb= -0.130941   kbcos= -0.009788

KBgen: Total number of Kleinman-Bylander projectors:    9
atom: -------------------------------------------------------------------------

atom: SANKEY-TYPE ORBITALS:
atom: Selected multiple-zeta basis: split     

SPLIT: Orbitals with angular momentum L= 0

SPLIT: Basis orbitals for state 1s

SPLIT: PAO cut-off radius determined from an
SPLIT: energy shift=  0.002000 Ry

   izeta = 1
                 lambda =    1.000000
                     rc =    6.518340
                 energy =   -0.475305
                kinetic =    0.912139
    potential(screened) =   -1.387444
       potential(ionic) =   -1.907295

   izeta = 2
                 rmatch =    2.141150
              splitnorm =    0.620000
                 energy =    0.566467
                kinetic =    3.772856
    potential(screened) =   -3.206389
       potential(ionic) =   -3.759093

POLgen: Perturbative polarization orbital with L=  1

POLgen: Polarization orbital for state 1s

   izeta = 1
                     rc =    6.518340
                 energy =    0.533861
                kinetic =    1.121086
    potential(screened) =   -0.587225
       potential(ionic) =   -1.053027
atom: Total number of Sankey-type orbitals:  5

atm_pop: Valence configuration (for local Pseudopot. screening):
 1s( 1.00)                                                            
Vna: chval, zval:    1.00000   1.00000

Vna:  Cut-off radius for the neutral-atom potential:   6.518340

atom: _________________________________________________________________________

prinput: Basis input ----------------------------------------------------------

PAO.BasisType split     

%block ChemicalSpeciesLabel
    1    8 O                       # Species index, atomic number, species label
    2    7 N                       # Species index, atomic number, species label
    3   14 Si                      # Species index, atomic number, species label
    4    1 H                       # Species index, atomic number, species label
%endblock ChemicalSpeciesLabel

%block PAO.Basis                 # Define Basis set
O                     2                    # Species label, number of l-shells
 n=2   0   2                         # n, l, Nzeta 
   4.244      2.188   
   1.000      1.000   
 n=2   1   2 P   1                   # n, l, Nzeta, Polarization, NzetaPol
   5.315      2.161   
   1.000      1.000   
N                     2                    # Species label, number of l-shells
 n=2   0   2                         # n, l, Nzeta 
   4.730      2.532   
   1.000      1.000   
 n=2   1   2 P   1                   # n, l, Nzeta, Polarization, NzetaPol
   5.924      2.532   
   1.000      1.000   
Si                    2                    # Species label, number of l-shells
 n=3   0   2                         # n, l, Nzeta 
   6.430      3.998   
   1.000      1.000   
 n=3   1   2 P   1                   # n, l, Nzeta, Polarization, NzetaPol
   8.465      4.588   
   1.000      1.000   
H                     1                    # Species label, number of l-shells
 n=1   0   2 P   1                   # n, l, Nzeta, Polarization, NzetaPol
   6.518      2.141   
   1.000      1.000   
%endblock PAO.Basis

prinput: ----------------------------------------------------------------------

Dumping basis to NetCDF file O.ion.nc
Dumping basis to NetCDF file N.ion.nc
Dumping basis to NetCDF file Si.ion.nc
Dumping basis to NetCDF file H.ion.nc
coor:   Atomic-coordinates input format  =     Cartesian coordinates
coor:                                          (in Angstroms)

siesta: Atomic coordinates (Bohr) and species
siesta:      1.97217   7.44407   0.00000  1        1
siesta:     -5.74598   2.02405   0.00000  2        2
siesta:      3.88264   2.29334   0.00000  2        3
siesta:      1.88786  -3.27422   0.00000  2        4
siesta:     -4.02956  -3.42601   0.00000  2        5
siesta:      7.29471  -2.10194   0.00000  2        6
siesta:     -2.33605   2.17879   0.00000  3        7
siesta:     -1.00708  -1.77447   0.00000  3        8
siesta:      1.20122   4.48719   0.00000  3        9
siesta:      4.24276  -1.03929   0.00000  3       10
siesta:     -6.51921  -1.10297   0.00000  3       11
siesta:      5.60061   3.38449   0.00000  4       12
siesta:     -9.15684  -2.12320   0.00000  4       13
siesta:      7.57218  -4.06728   0.00000  4       14
siesta:      9.01814  -0.94924   0.00000  4       15
siesta:     -4.28099  -5.41332   0.00000  4       16
siesta:     12.48117  11.41073   0.00000  3       17
siesta:     16.08088  13.69095   0.00000  3       18
siesta:     15.14404   6.18311   0.00000  3       19
siesta:     19.06989  10.84926   0.00000  3       20
siesta:     12.59384   8.16526   0.00000  2       21
siesta:      9.57262  12.83498   0.00000  2       22
siesta:     18.26642   7.56231   0.00000  2       23
siesta:     16.44247  16.51071   0.00000  4       24
siesta:     21.87494  11.26260   0.00000  4       25
siesta:      9.36221  14.81767   0.00000  4       26
siesta:      7.81034  11.65406   0.00000  4       27
siesta:     15.12471   3.14422   0.00000  1       28
siesta:     19.73177   6.18906   0.00000  4       29

siesta: Automatic unit cell vectors (Ang):
siesta:   25.652020    0.000000    0.000000
siesta:    0.000000   20.350447    0.000000
siesta:    0.000000    0.000000    9.854683

siesta: System type = molecule  

initatomlists: Number of atoms, orbitals, and projectors:     29   297   394

siesta: ******************** Simulation parameters ****************************
siesta:
siesta: The following are some of the parameters of the simulation.
siesta: A complete list of the parameters used, including default values,
siesta: can be found in file out.fdf
siesta:
redata: Spin configuration                          = spin-orbit
redata: Number of spin components                   = 8
redata: Time-Reversal Symmetry                      = F
redata: Spin spiral                                 = F
############################################################
This spin-orbit implementation uses a local approximation.
From 4.2 and onwards the full non-local approximation is implemented
You are strongly advised to use >=4.2 versions!
############################################################
redata: Long output                                 =   F
redata: Number of Atomic Species                    =        4
redata: Charge density info will appear in .RHO file
redata: Write Mulliken Pop.                         = Atomic and Orbital charges
redata: Matel table size (NRTAB)                    =     1024
redata: Mesh Cutoff                                 =   340.0000 Ry
redata: Net charge of the system                    =     0.0000 |e|
redata: Min. number of SCF Iter                     =        1
redata: Max. number of SCF Iter                     =      200
redata: SCF mix quantity                            = Hamiltonian
redata: Mix DM or H after convergence               =   F
redata: Recompute H after scf cycle                 =   F
redata: Mix DM in first SCF step                    =   T
redata: Write Pulay info on disk                    =   F
redata: New DM Occupancy tolerance                  = 0.000000000001
redata: No kicks to SCF
redata: DM Mixing Weight for Kicks                  =     0.5000
redata: Require Harris convergence for SCF          =   F
redata: Harris energy tolerance for SCF             =     0.000100 eV
redata: Require DM convergence for SCF              =   T
redata: DM tolerance for SCF                        =     0.000008
redata: Require EDM convergence for SCF             =   F
redata: EDM tolerance for SCF                       =     0.001000 eV
redata: Require H convergence for SCF               =   T
redata: Hamiltonian tolerance for SCF               =     0.000001 eV
redata: Require (free) Energy convergence for SCF   =   F
redata: (free) Energy tolerance for SCF             =     0.000100 eV
redata: Using Saved Data (generic)                  =   F
redata: Use continuation files for DM               =   F
redata: Neglect nonoverlap interactions             =   F
redata: Method of Calculation                       = Diagonalization
redata: Electronic Temperature                      =   299.9978 K
redata: Fix the spin of the system                  =   F
redata: Dynamics option                             = Single-point calculation
mix.SCF: Pulay mixing                            = Pulay
mix.SCF:    Variant                              = stable
mix.SCF:    History steps                        = 6
mix.SCF:    Linear mixing weight                 =     0.250000
mix.SCF:    Mixing weight                        =     0.250000
mix.SCF:    SVD condition                        = 0.1000E-07
mix.SCF:    Restart steps                        = 24
mix.SCF:    Restart save steps                   = 3
mix.SCF: Spin-component mixing                   all
redata: Save all siesta data in one NC              =   F
redata: ***********************************************************************

%block SCF.Mixers
  Pulay
%endblock SCF.Mixers

%block SCF.Mixer.Pulay
  # Mixing method
  method pulay
  variant stable

  # Mixing options
  weight 0.2500
  weight.linear 0.2500
  history 6
  restart 24
  restart.save 3
%endblock SCF.Mixer.Pulay

DM_history_depth set to one: no extrapolation allowed by default for geometry relaxation
Size of DM history Fstack: 1
Total number of electrons:    98.000000
Total ionic charge:    98.000000

* ProcessorY, Blocksize:    2  24


* Orbital distribution balance (max,min):    81    72


Time-reversal symmetry not used.

siesta: k-grid: Number of k-points =     1
siesta: k-grid: Cutoff (effective) =     4.927 Ang
siesta: k-grid: Supercell and displacements
siesta: k-grid:    1   0   0      0.000
siesta: k-grid:    0   1   0      0.000
siesta: k-grid:    0   0   1      0.000

diag: Algorithm                                     = ELPA-1stage
diag: Parallel over k                               =   F
diag: Use parallel 2D distribution                  =   T
diag: Parallel block-size                           = 24
diag: Parallel distribution                         =     2 x     2
diag: Used triangular part                          = Lower
diag: Absolute tolerance                            =  0.100E-15
diag: Orthogonalization factor                      =  0.100E-05
diag: Memory factor                                 =  1.0000


ts: **************************************************************
ts: Save H and S matrices                           =    F
ts: Save DM and EDM matrices                        =    F
ts: Only save the overlap matrix S                  =    F
ts: **************************************************************

************************ Begin: TS CHECKS AND WARNINGS ************************
************************ End: TS CHECKS AND WARNINGS **************************


                     ====================================
                        Single-point calculation
                     ====================================

outcoor: Atomic coordinates (Ang):                          
    1.04362488    3.93922861    0.00000000   1       1  O
   -3.04064129    1.07107817    0.00000000   2       2  N
    2.05460145    1.21358207    0.00000000   2       3  N
    0.99901410   -1.73264380    0.00000000   2       4  N
   -2.13235164   -1.81296822    0.00000000   2       5  N
    3.86019055   -1.11229818    0.00000000   2       6  N
   -1.23618322    1.15296446    0.00000000   3       7  Si
   -0.53292426   -0.93900627    0.00000000   3       8  Si
    0.63566047    2.37451677    0.00000000   3       9  Si
    2.24517024   -0.54996710    0.00000000   3      10  Si
   -3.44981666   -0.58366503    0.00000000   3      11  Si
    2.96371409    1.79099263    0.00000000   4      12  H
   -4.84559135   -1.12354966    0.00000000   4      13  H
    4.00702091   -2.15230856    0.00000000   4      14  H
    4.77219438   -0.50231816    0.00000000   4      15  H
   -2.26539909   -2.86460511    0.00000000   4      16  H
    6.60474681    6.03829658    0.00000000   3      17  Si
    8.50963078    7.24493552    0.00000000   3      18  Si
    8.01387664    3.27196161    0.00000000   3      19  Si
   10.09134693    5.74117877    0.00000000   3      20  Si
    6.66436948    4.32086901    0.00000000   2      21  N
    5.06561175    6.79197389    0.00000000   2      22  N
    9.66617190    4.00179883    0.00000000   2      23  N
    8.70097558    8.73708927    0.00000000   4      24  H
   11.57571491    5.95990959    0.00000000   4      25  H
    4.95426647    7.84116900    0.00000000   4      26  H
    4.13305404    6.16705971    0.00000000   4      27  H
    8.00364981    1.66385049    0.00000000   1      28  O
   10.44159778    3.27510727    0.00000000   4      29  H

outcell: Unit cell vectors (Ang):
       25.652020    0.000000    0.000000
        0.000000   20.350447    0.000000
        0.000000    0.000000    9.854683

outcell: Cell vector modules (Ang)   :   25.652020   20.350447    9.854683
outcell: Cell angles (23,13,12) (deg):     90.0000     90.0000     90.0000
outcell: Cell volume (Ang**3)        :   5144.4409
<dSpData1D:S at geom step 0
  <sparsity:sparsity for geom step 0
    nrows_g=297 nrows=81 sparsity=.1824 nnzs=16086, refcount: 8>
  <dData1D:(new from dSpData1D) n=16086, refcount: 1>
refcount: 1>
new_DM -- step:     1
Initializing Density Matrix...
DM filled with atomic data:
<dSpData2D:DM initialized from atoms
  <sparsity:sparsity for geom step 0
    nrows_g=297 nrows=81 sparsity=.1824 nnzs=16086, refcount: 9>
  <dData2D:DM n=16086 m=8, refcount: 1>
refcount: 1>
     spin moment: S , {S} =   56.00000   0.00000   0.00000  56.00000
No. of atoms with KB's overlaping orbs in proc 0. Max # of overlaps:      29     154

Initializing spin-orbit part of the Hamiltonian
  Adding spin-orbit effects for O 
  Adding spin-orbit effects for N 
  Adding spin-orbit effects for Si
  Adding spin-orbit effects for H 


New grid distribution:   1
           1       1:  144    1:   60    1:   30
           2       1:  144    1:   60   31:   60
           3       1:  144   61:  120    1:   30
           4       1:  144   61:  120   31:   60

InitMesh: MESH =   288 x   240 x   120 =     8294400
InitMesh: (bp) =   144 x   120 x    60 =     1036800
InitMesh: Mesh cutoff (required, used) =   340.000   348.372 Ry
ExtMesh (bp) on 0 =   248 x   168 x   142 =     5916288
New grid distribution:   2
           1      45:  144    1:   31    1:   60
           2       1:   44    1:   32    1:   60
           3      45:  144   32:  120    1:   60
           4       1:   44   33:  120    1:   60
New grid distribution:   3
           1      50:  144    1:   36    1:   60
           2       1:   49    1:   40    1:   60
           3      50:  144   37:  120    1:   60
           4       1:   49   41:  120    1:   60
Setting up quadratic distribution...
ExtMesh (bp) on 0 =   204 x   139 x   172 =     4877232
PhiOnMesh: Number of (b)points on node 0 =               186000
PhiOnMesh: nlist on node 0 =              2526933

stepf: Fermi-Dirac step function

siesta: Program's energy decomposition (eV):
siesta: Ebs     =      -617.060105
siesta: Eions   =      3585.165840
siesta: Ena     =       382.018564
siesta: Ekin    =      3369.314425
siesta: Enl     =     -3297.930643
siesta: Eso     =        -0.003409
siesta: Edftu   =         0.000000
siesta: DEna    =       153.635203
siesta: DUscf   =        81.395340
siesta: DUext   =         0.000000
siesta: Exc     =     -1204.031104
siesta: eta*DQ  =         0.000000
siesta: Emadel  =         0.000000
siesta: Emeta   =         0.000000
siesta: Emolmec =         0.000000
siesta: Ekinion =         0.000000
siesta: Eharris =     -4021.760206
siesta: Etot    =     -4100.767463
siesta: FreeEng =     -4100.768884

        iscf     Eharris(eV)        E_KS(eV)     FreeEng(eV)     dDmax    Ef(eV) dHmax(eV)
   scf:    1    -4021.760206    -4100.767463    -4100.768884  0.964902 -4.904561 21.753969
     spin moment: S , {S} =    2.00728  -0.00000   0.00000   2.00728
timer: Routine,Calls,Time,% = IterSCF        1      13.587  18.20
   scf:    2    -4147.933252    -4136.327133    -4136.328701  0.453871 -4.215888 11.646882
     spin moment: S , {S} =    1.99077   0.00000   0.00000   1.99077
   scf:    3    -4109.705574    -4134.139073    -4134.151962  0.423802 -4.313354 11.571865
     spin moment: S , {S} =    2.00949  -0.00000   0.00000   2.00949
   scf:    4    -4149.676085    -4145.101038    -4145.101038  0.309611 -3.898408  6.361400
     spin moment: S , {S} =    0.00010   0.00000  -0.00000   0.00010
   scf:    5    -4146.360440    -4145.830172    -4145.830172  0.035423 -3.689022  4.269311
     spin moment: S , {S} =    0.00006   0.00000  -0.00000   0.00006
   scf:    6    -4146.599547    -4146.223743    -4146.223743  0.024546 -3.652205  2.076988
     spin moment: S , {S} =    0.00003  -0.00000  -0.00000   0.00003
   scf:    7    -4146.568102    -4146.392869    -4146.392869  0.021031 -3.679364  0.890549
     spin moment: S , {S} =    0.00001  -0.00000   0.00000   0.00001
   scf:    8    -4146.514013    -4146.451394    -4146.451394  0.012657 -3.753061  0.491493
     spin moment: S , {S} =    0.00000   0.00000  -0.00000   0.00000
   scf:    9    -4146.488924    -4146.469502    -4146.469502  0.006484 -3.712502  0.360460
     spin moment: S , {S} =    0.00000   0.00000  -0.00000   0.00000
   scf:   10    -4146.519490    -4146.489002    -4146.489002  0.020444 -3.792611  0.216589
     spin moment: S , {S} =    0.00000  -0.00000   0.00000  -0.00000
   scf:   11    -4146.492471    -4146.490696    -4146.490696  0.005595 -3.781368  0.057854
     spin moment: S , {S} =    0.00000   0.00000   0.00000  -0.00000
   scf:   12    -4146.491589    -4146.491154    -4146.491154  0.001109 -3.776702  0.023313
     spin moment: S , {S} =    0.00000   0.00000   0.00000   0.00000
   scf:   13    -4146.491562    -4146.491354    -4146.491354  0.001316 -3.775247  0.015585
     spin moment: S , {S} =    0.00000  -0.00000   0.00000   0.00000
   scf:   14    -4146.491591    -4146.491466    -4146.491466  0.001224 -3.773327  0.012550
     spin moment: S , {S} =    0.00000  -0.00000   0.00000   0.00000
   scf:   15    -4146.491589    -4146.491522    -4146.491522  0.001099 -3.773232  0.009319
     spin moment: S , {S} =    0.00000  -0.00000   0.00000   0.00000
   scf:   16    -4146.491608    -4146.491559    -4146.491559  0.001151 -3.773557  0.006006
     spin moment: S , {S} =    0.00000  -0.00000  -0.00000   0.00000
   scf:   17    -4146.491586    -4146.491571    -4146.491571  0.000638 -3.773473  0.004209
     spin moment: S , {S} =    0.00000   0.00000  -0.00000   0.00000
   scf:   18    -4146.491582    -4146.491575    -4146.491575  0.000422 -3.773493  0.002339
     spin moment: S , {S} =    0.00000  -0.00000   0.00000   0.00000
   scf:   19    -4146.491580    -4146.491577    -4146.491577  0.000284 -3.773527  0.001330
     spin moment: S , {S} =    0.00000  -0.00000   0.00000   0.00000
   scf:   20    -4146.491579    -4146.491578    -4146.491578  0.000155 -3.773558  0.000792
     spin moment: S , {S} =    0.00000   0.00000   0.00000   0.00000
   scf:   21    -4146.491579    -4146.491578    -4146.491578  0.000135 -3.773573  0.000245
     spin moment: S , {S} =    0.00000   0.00000   0.00000   0.00000
   scf:   22    -4146.491579    -4146.491578    -4146.491578  0.000046 -3.773556  0.000115
     spin moment: S , {S} =    0.00000  -0.00000  -0.00000   0.00000
   scf:   23    -4146.491578    -4146.491578    -4146.491578  0.000010 -3.773548  0.000076
     spin moment: S , {S} =    0.00000   0.00000  -0.00000   0.00000
   scf:   24    -4146.491578    -4146.491578    -4146.491578  0.000003 -3.773541  0.000045
     spin moment: S , {S} =    0.00000   0.00000   0.00000   0.00000
mix: Pulay -- resetting history
   scf:   25    -4146.491578    -4146.491578    -4146.491578  0.000003 -3.773536  0.000029
     spin moment: S , {S} =    0.00000   0.00000   0.00000   0.00000
   scf:   26    -4146.491578    -4146.491578    -4146.491578  0.000002 -3.773535  0.000016
     spin moment: S , {S} =    0.00000   0.00000   0.00000   0.00000
   scf:   27    -4146.491578    -4146.491578    -4146.491578  0.000002 -3.773534  0.000007
     spin moment: S , {S} =    0.00000   0.00000  -0.00000   0.00000
   scf:   28    -4146.491578    -4146.491578    -4146.491578  0.000001 -3.773534  0.000004
     spin moment: S , {S} =    0.00000   0.00000  -0.00000   0.00000
   scf:   29    -4146.491578    -4146.491578    -4146.491578  0.000000 -3.773535  0.000002
     spin moment: S , {S} =    0.00000   0.00000  -0.00000   0.00000
   scf:   30    -4146.491578    -4146.491578    -4146.491578  0.000000 -3.773535  0.000001
     spin moment: S , {S} =    0.00000   0.00000   0.00000   0.00000
   scf:   31    -4146.491578    -4146.491578    -4146.491578  0.000000 -3.773535  0.000001
     spin moment: S , {S} =    0.00000   0.00000   0.00000   0.00000

SCF Convergence by DM+H criterion
max |DM_out - DM_in|         :     0.0000001594
max |H_out - H_in|      (eV) :     0.0000006962
SCF cycle converged after 31 iterations

Using DM_out to compute the final energy and forces
No. of atoms with KB's overlaping orbs in proc 0. Max # of overlaps:      29     154

siesta: E_KS(eV) =            -4146.4916

siesta: E_KS - E_eggbox =     -4146.4916
     spin moment: S , {S} =    0.00000   0.00000   0.00000   0.00000

siesta: Atomic forces (eV/Ang):
     1    4.331833   -1.074402    0.000000
     2   -0.009592    0.023683    0.000000
     3    0.732609   -0.352939   -0.000000
     4    0.700935   -0.015144    0.000000
     5    0.046696   -0.088528   -0.000000
     6    1.757707    0.662027   -0.000000
     7    0.042460   -0.245864   -0.000000
     8   -0.390565    0.274302    0.000000
     9   -0.168842    1.214846   -0.000000
    10   -0.960439    0.351382   -0.000000
    11   -0.020577   -0.020011    0.000000
    12   -0.406501   -0.255092    0.000000
    13    0.048500    0.024584    0.000000
    14    0.203629   -0.029852    0.000000
    15   -1.246260   -0.863057    0.000000
    16   -0.042532    0.109966   -0.000000
    17    0.955469   -1.065761   -0.000000
    18   -0.206150    0.189993    0.000000
    19   -0.194494   -1.181068   -0.000000
    20   -0.016699   -0.395522    0.000000
    21   -0.338964    0.969907    0.000000
    22   -2.183883   -0.898286   -0.000000
    23    0.241473    0.512104    0.000000
    24    0.167432   -0.051357   -0.000000
    25    0.091590   -0.064181   -0.000000
    26   -0.239788   -0.190838   -0.000000
    27    1.580117    1.360768    0.000000
    28    3.136683    1.424673    0.000000
    29   -0.087594    0.133335   -0.000000
----------------------------------------
   Tot    7.524253    0.459666   -0.000000
----------------------------------------
   Max    4.331833
   Res    0.810051    sqrt( Sum f_i^2 / 3N )
----------------------------------------
   Max    4.331833    constrained

Stress tensor Voigt[x,y,z,yz,xz,xy] (kbar):        0.20        1.76       -0.09        0.00        0.00        1.48
(Free)E + p*V (eV/cell)    -4148.4881
Target enthalpy (eV/cell)    -4146.4916

mulliken: Atomic and Orbital Populations:

Species: O                   

Atom      Orb        Charge      Spin       Svec
----------------------------------------------------------------
    1  1 2s         1.74971   0.00000     -0.000  -0.000  -0.000
    1  2 2s         0.06329   0.00000      0.000   0.000  -0.000
    1  3 2py        1.43371   0.00000     -0.000   0.000  -0.000
    1  4 2pz        1.55044   0.00000      0.000  -0.000  -0.000
    1  5 2px        1.62885   0.00000      0.000  -0.000  -0.000
    1  6 2py        0.03595   0.00000      0.000  -0.000   0.000
    1  7 2pz       -0.00777   0.00000     -0.000  -0.000   0.000
    1  8 2px        0.00344   0.00000     -0.000   0.000  -0.000
    1  9 3Pdxy      0.00687   0.00000      0.000   0.000   0.000
    1 10 3Pdyz      0.00890   0.00000      0.000   0.000   0.000
    1 11 3Pdz2      0.00155   0.00000     -0.000   0.000  -0.000
    1 12 3Pdxz      0.00036   0.00000      0.000   0.000   0.000
    1 13 3Pdx2-y2   0.00685   0.00000      0.000  -0.000   0.000
    1     Total     6.48216   0.00000      0.000  -0.000  -0.000

   28  1 2s         1.74437   0.00000     -0.000  -0.000   0.000
   28  2 2s         0.06747   0.00000      0.000   0.000  -0.000
   28  3 2py        1.41532   0.00000      0.000  -0.000   0.000
   28  4 2pz        1.54958   0.00000      0.000  -0.000   0.000
   28  5 2px        1.64693   0.00000      0.000   0.000   0.000
   28  6 2py        0.03952   0.00000     -0.000   0.000   0.000
   28  7 2pz       -0.00583   0.00000     -0.000   0.000   0.000
   28  8 2px        0.00784   0.00000      0.000  -0.000   0.000
   28  9 3Pdxy      0.00630   0.00000      0.000  -0.000  -0.000
   28 10 3Pdyz      0.00961   0.00000      0.000   0.000   0.000
   28 11 3Pdz2      0.00123   0.00000      0.000  -0.000  -0.000
   28 12 3Pdxz     -0.00018   0.00000     -0.000   0.000  -0.000
   28 13 3Pdx2-y2   0.00766   0.00000      0.000   0.000   0.000
   28     Total     6.48982   0.00000      0.000  -0.000   0.000

----------------------------------------------------------------
Total              12.97197   0.00000      0.000  -0.000  -0.000


Species: N                   

Atom      Orb        Charge      Spin       Svec
----------------------------------------------------------------
    2  1 2s         1.55079   0.00000     -0.000  -0.000  -0.000
    2  2 2s         0.08435   0.00000      0.000  -0.000   0.000
    2  3 2py        1.04422   0.00000     -0.000  -0.000  -0.000
    2  4 2pz        1.22429   0.00000     -0.000  -0.000  -0.000
    2  5 2px        0.99050   0.00000     -0.000  -0.000  -0.000
    2  6 2py        0.18823   0.00000      0.000   0.000   0.000
    2  7 2pz        0.05534   0.00000     -0.000  -0.000   0.000
    2  8 2px        0.19570   0.00000      0.000   0.000   0.000
    2  9 3Pdxy      0.00838   0.00000     -0.000   0.000   0.000
    2 10 3Pdyz      0.01098   0.00000     -0.000   0.000   0.000
    2 11 3Pdz2      0.00195   0.00000     -0.000   0.000  -0.000
    2 12 3Pdxz      0.00758   0.00000     -0.000  -0.000   0.000
    2 13 3Pdx2-y2   0.00907   0.00000     -0.000   0.000  -0.000
    2     Total     5.37137   0.00000     -0.000  -0.000  -0.000

    3  1 2s         1.39950   0.00000      0.000  -0.000  -0.000
    3  2 2s         0.11694   0.00000     -0.000  -0.000   0.000
    3  3 2py        0.94191   0.00000      0.000   0.000  -0.000
    3  4 2pz        1.54405   0.00000     -0.000   0.000  -0.000
    3  5 2px        1.08358   0.00000      0.000  -0.000  -0.000
    3  6 2py        0.24849   0.00000     -0.000  -0.000   0.000
    3  7 2pz        0.00682   0.00000      0.000  -0.000   0.000
    3  8 2px        0.17797   0.00000     -0.000   0.000   0.000
    3  9 3Pdxy      0.00394   0.00000     -0.000   0.000   0.000
    3 10 3Pdyz      0.00413   0.00000     -0.000  -0.000  -0.000
    3 11 3Pdz2      0.00073   0.00000     -0.000  -0.000   0.000
    3 12 3Pdxz      0.00276   0.00000     -0.000  -0.000  -0.000
    3 13 3Pdx2-y2   0.00278   0.00000     -0.000  -0.000  -0.000
    3     Total     5.53360   0.00000      0.000  -0.000  -0.000

    4  1 2s         1.46014   0.00000     -0.000  -0.000   0.000
    4  2 2s         0.11882   0.00000      0.000   0.000   0.000
    4  3 2py        1.13038   0.00000      0.000   0.000   0.000
    4  4 2pz        1.29498   0.00000      0.000   0.000   0.000
    4  5 2px        0.82608   0.00000     -0.000  -0.000  -0.000
    4  6 2py        0.14966   0.00000     -0.000  -0.000   0.000
    4  7 2pz        0.05344   0.00000     -0.000  -0.000   0.000
    4  8 2px        0.29231   0.00000      0.000   0.000   0.000
    4  9 3Pdxy      0.00870   0.00000     -0.000   0.000   0.000
    4 10 3Pdyz      0.01045   0.00000     -0.000   0.000  -0.000
    4 11 3Pdz2      0.00126   0.00000     -0.000  -0.000  -0.000
    4 12 3Pdxz      0.00494   0.00000      0.000   0.000  -0.000
    4 13 3Pdx2-y2   0.00798   0.00000      0.000   0.000  -0.000
    4     Total     5.35914   0.00000      0.000   0.000   0.000

    5  1 2s         1.37631   0.00000      0.000   0.000  -0.000
    5  2 2s         0.12792   0.00000     -0.000  -0.000   0.000
    5  3 2py        1.02660   0.00000     -0.000   0.000  -0.000
    5  4 2pz        1.50078   0.00000     -0.000  -0.000  -0.000
    5  5 2px        1.06007   0.00000      0.000  -0.000  -0.000
    5  6 2py        0.20349   0.00000      0.000  -0.000   0.000
    5  7 2pz        0.01340   0.00000      0.000   0.000   0.000
    5  8 2px        0.20102   0.00000     -0.000   0.000   0.000
    5  9 3Pdxy      0.00393   0.00000     -0.000  -0.000   0.000
    5 10 3Pdyz      0.00241   0.00000      0.000   0.000   0.000
    5 11 3Pdz2      0.00142   0.00000      0.000  -0.000   0.000
    5 12 3Pdxz      0.00683   0.00000      0.000   0.000   0.000
    5 13 3Pdx2-y2   0.00560   0.00000     -0.000   0.000   0.000
    5     Total     5.52978   0.00000     -0.000  -0.000  -0.000

    6  1 2s         1.26940   0.00000     -0.000   0.000  -0.000
    6  2 2s         0.17945   0.00000      0.000  -0.000   0.000
    6  3 2py        1.07834   0.00000     -0.000   0.000  -0.000
    6  4 2pz        1.57024   0.00000      0.000  -0.000  -0.000
    6  5 2px        0.95866   0.00000      0.000  -0.000  -0.000
    6  6 2py        0.18772   0.00000      0.000  -0.000   0.000
    6  7 2pz        0.03008   0.00000     -0.000   0.000   0.000
    6  8 2px        0.25525   0.00000     -0.000  -0.000   0.000
    6  9 3Pdxy      0.00234   0.00000      0.000   0.000   0.000
    6 10 3Pdyz      0.00014   0.00000      0.000  -0.000  -0.000
    6 11 3Pdz2      0.00173   0.00000     -0.000  -0.000   0.000
    6 12 3Pdxz      0.00330   0.00000     -0.000   0.000  -0.000
    6 13 3Pdx2-y2   0.00398   0.00000      0.000  -0.000   0.000
    6     Total     5.54064   0.00000      0.000  -0.000  -0.000

   21  1 2s         1.42191   0.00000      0.000   0.000   0.000
   21  2 2s         0.12888   0.00000     -0.000  -0.000  -0.000
   21  3 2py        0.87239   0.00000     -0.000   0.000  -0.000
   21  4 2pz        1.29648   0.00000      0.000   0.000   0.000
   21  5 2px        1.15827   0.00000      0.000   0.000   0.000
   21  6 2py        0.27526   0.00000      0.000   0.000   0.000
   21  7 2pz        0.04860   0.00000     -0.000  -0.000   0.000
   21  8 2px        0.16223   0.00000     -0.000  -0.000   0.000
   21  9 3Pdxy      0.00638   0.00000      0.000  -0.000   0.000
   21 10 3Pdyz      0.00499   0.00000      0.000  -0.000  -0.000
   21 11 3Pdz2      0.00015   0.00000     -0.000   0.000  -0.000
   21 12 3Pdxz      0.00578   0.00000      0.000   0.000  -0.000
   21 13 3Pdx2-y2   0.00560   0.00000     -0.000   0.000  -0.000
   21     Total     5.38693   0.00000      0.000   0.000   0.000

   22  1 2s         1.29435   0.00000     -0.000  -0.000  -0.000
   22  2 2s         0.16809   0.00000      0.000   0.000   0.000
   22  3 2py        1.05884   0.00000     -0.000   0.000  -0.000
   22  4 2pz        1.55237   0.00000      0.000   0.000  -0.000
   22  5 2px        0.98642   0.00000      0.000   0.000  -0.000
   22  6 2py        0.19621   0.00000      0.000  -0.000   0.000
   22  7 2pz        0.02852   0.00000     -0.000   0.000  -0.000
   22  8 2px        0.23451   0.00000     -0.000  -0.000   0.000
   22  9 3Pdxy      0.00320   0.00000     -0.000  -0.000  -0.000
   22 10 3Pdyz      0.00034   0.00000     -0.000  -0.000  -0.000
   22 11 3Pdz2      0.00252   0.00000     -0.000   0.000   0.000
   22 12 3Pdxz      0.00322   0.00000     -0.000   0.000  -0.000
   22 13 3Pdx2-y2   0.00474   0.00000      0.000  -0.000  -0.000
   22     Total     5.53333   0.00000     -0.000   0.000  -0.000

   23  1 2s         1.39616   0.00000      0.000   0.000   0.000
   23  2 2s         0.11839   0.00000      0.000  -0.000  -0.000
   23  3 2py        1.00765   0.00000      0.000   0.000   0.000
   23  4 2pz        1.52608   0.00000     -0.000  -0.000  -0.000
   23  5 2px        1.06415   0.00000      0.000  -0.000   0.000
   23  6 2py        0.21134   0.00000     -0.000  -0.000  -0.000
   23  7 2pz        0.00490   0.00000      0.000  -0.000  -0.000
   23  8 2px        0.19801   0.00000     -0.000   0.000   0.000
   23  9 3Pdxy      0.00527   0.00000      0.000   0.000  -0.000
   23 10 3Pdyz      0.00446   0.00000      0.000  -0.000  -0.000
   23 11 3Pdz2      0.00065   0.00000     -0.000   0.000  -0.000
   23 12 3Pdxz      0.00244   0.00000     -0.000  -0.000  -0.000
   23 13 3Pdx2-y2   0.00136   0.00000     -0.000  -0.000  -0.000
   23     Total     5.54086   0.00000     -0.000  -0.000  -0.000

----------------------------------------------------------------
Total              56.76762   0.00000      0.000   0.000  -0.000


Species: Si                  

Atom      Orb        Charge      Spin       Svec
----------------------------------------------------------------
    7  1 3s         0.66811   0.00000     -0.000  -0.000   0.000
    7  2 3s         0.36459   0.00000     -0.000  -0.000   0.000
    7  3 3py        0.48824   0.00000      0.000  -0.000   0.000
    7  4 3pz        0.69285   0.00000      0.000   0.000   0.000
    7  5 3px        0.12527   0.00000     -0.000   0.000   0.000
    7  6 3py        0.26437   0.00000      0.000   0.000   0.000
    7  7 3pz        0.25887   0.00000     -0.000  -0.000   0.000
    7  8 3px        0.43788   0.00000      0.000  -0.000   0.000
    7  9 3Pdxy      0.24547   0.00000      0.000   0.000   0.000
    7 10 3Pdyz      0.02925   0.00000     -0.000  -0.000   0.000
    7 11 3Pdz2      0.01174   0.00000      0.000  -0.000   0.000
    7 12 3Pdxz      0.14551   0.00000     -0.000   0.000  -0.000
    7 13 3Pdx2-y2   0.11287   0.00000     -0.000   0.000   0.000
    7     Total     3.84503   0.00000      0.000  -0.000   0.000

    8  1 3s         0.65651   0.00000      0.000  -0.000   0.000
    8  2 3s         0.36860   0.00000     -0.000  -0.000  -0.000
    8  3 3py        0.38839   0.00000      0.000   0.000  -0.000
    8  4 3pz        0.52329   0.00000      0.000  -0.000  -0.000
    8  5 3px       -0.03019   0.00000      0.000  -0.000  -0.000
    8  6 3py        0.30877   0.00000     -0.000  -0.000   0.000
    8  7 3pz        0.20232   0.00000      0.000   0.000   0.000
    8  8 3px        0.51473   0.00000     -0.000  -0.000   0.000
    8  9 3Pdxy      0.24623   0.00000      0.000   0.000   0.000
    8 10 3Pdyz      0.11219   0.00000      0.000  -0.000  -0.000
    8 11 3Pdz2      0.01442   0.00000     -0.000  -0.000   0.000
    8 12 3Pdxz      0.15370   0.00000      0.000   0.000   0.000
    8 13 3Pdx2-y2   0.20041   0.00000     -0.000   0.000   0.000
    8     Total     3.65935   0.00000      0.000   0.000   0.000

    9  1 3s         0.60397   0.00000      0.000   0.000   0.000
    9  2 3s         0.36624   0.00000     -0.000   0.000  -0.000
    9  3 3py        0.07508   0.00000     -0.000  -0.000   0.000
    9  4 3pz        0.48516   0.00000     -0.000  -0.000  -0.000
    9  5 3px        0.37984   0.00000     -0.000   0.000  -0.000
    9  6 3py        0.44714   0.00000      0.000  -0.000  -0.000
    9  7 3pz        0.18673   0.00000      0.000   0.000  -0.000
    9  8 3px        0.27330   0.00000      0.000  -0.000   0.000
    9  9 3Pdxy      0.31162   0.00000     -0.000  -0.000   0.000
    9 10 3Pdyz      0.19058   0.00000     -0.000   0.000  -0.000
    9 11 3Pdz2      0.01631   0.00000      0.000  -0.000  -0.000
    9 12 3Pdxz      0.09829   0.00000     -0.000  -0.000  -0.000
    9 13 3Pdx2-y2   0.17263   0.00000      0.000  -0.000   0.000
    9     Total     3.60688   0.00000     -0.000  -0.000  -0.000

   10  1 3s         0.48195   0.00000     -0.000   0.000   0.000
   10  2 3s         0.37805   0.00000      0.000  -0.000   0.000
   10  3 3py        0.24068   0.00000     -0.000  -0.000   0.000
   10  4 3pz        0.40785   0.00000     -0.000  -0.000   0.000
   10  5 3px        0.10103   0.00000      0.000   0.000  -0.000
   10  6 3py        0.32745   0.00000      0.000   0.000   0.000
   10  7 3pz        0.22275   0.00000      0.000   0.000   0.000
   10  8 3px        0.42963   0.00000     -0.000   0.000   0.000
   10  9 3Pdxy      0.16947   0.00000      0.000   0.000  -0.000
   10 10 3Pdyz      0.13913   0.00000      0.000   0.000   0.000
   10 11 3Pdz2      0.01024   0.00000     -0.000   0.000  -0.000
   10 12 3Pdxz      0.17515   0.00000     -0.000  -0.000   0.000
   10 13 3Pdx2-y2   0.30969   0.00000      0.000  -0.000  -0.000
   10     Total     3.39308   0.00000     -0.000   0.000   0.000

   11  1 3s         0.55275   0.00000     -0.000  -0.000   0.000
   11  2 3s         0.38521   0.00000     -0.000   0.000  -0.000
   11  3 3py        0.32206   0.00000     -0.000   0.000   0.000
   11  4 3pz        0.54133   0.00000     -0.000   0.000   0.000
   11  5 3px        0.12450   0.00000     -0.000  -0.000   0.000
   11  6 3py        0.28672   0.00000      0.000   0.000   0.000
   11  7 3pz        0.17725   0.00000      0.000   0.000   0.000
   11  8 3px        0.44621   0.00000      0.000   0.000  -0.000
   11  9 3Pdxy      0.22540   0.00000     -0.000  -0.000   0.000
   11 10 3Pdyz      0.12642   0.00000      0.000   0.000   0.000
   11 11 3Pdz2      0.00959   0.00000     -0.000   0.000   0.000
   11 12 3Pdxz      0.05286   0.00000     -0.000  -0.000   0.000
   11 13 3Pdx2-y2   0.20394   0.00000      0.000  -0.000   0.000
   11     Total     3.45425   0.00000     -0.000   0.000   0.000

   17  1 3s         0.63798   0.00000     -0.000   0.000   0.000
   17  2 3s         0.36113   0.00000      0.000  -0.000  -0.000
   17  3 3py        0.22588   0.00000     -0.000  -0.000  -0.000
   17  4 3pz        0.42147   0.00000     -0.000   0.000  -0.000
   17  5 3px        0.24473   0.00000      0.000  -0.000   0.000
   17  6 3py        0.38761   0.00000      0.000   0.000  -0.000
   17  7 3pz        0.21198   0.00000      0.000  -0.000   0.000
   17  8 3px        0.36949   0.00000     -0.000   0.000  -0.000
   17  9 3Pdxy      0.30086   0.00000     -0.000  -0.000  -0.000
   17 10 3Pdyz      0.14239   0.00000     -0.000   0.000   0.000
   17 11 3Pdz2      0.00898   0.00000     -0.000  -0.000   0.000
   17 12 3Pdxz      0.14339   0.00000     -0.000  -0.000   0.000
   17 13 3Pdx2-y2   0.16390   0.00000      0.000  -0.000   0.000
   17     Total     3.61980   0.00000     -0.000   0.000   0.000

   18  1 3s         0.74396   0.00000      0.000  -0.000   0.000
   18  2 3s         0.33992   0.00000     -0.000   0.000   0.000
   18  3 3py        0.07795   0.00000      0.000  -0.000   0.000
   18  4 3pz        0.81916   0.00000      0.000  -0.000   0.000
   18  5 3px        0.55530   0.00000     -0.000   0.000   0.000
   18  6 3py        0.51909   0.00000     -0.000   0.000   0.000
   18  7 3pz        0.19802   0.00000     -0.000  -0.000   0.000
   18  8 3px        0.25054   0.00000      0.000  -0.000   0.000
   18  9 3Pdxy      0.10322   0.00000     -0.000   0.000  -0.000
   18 10 3Pdyz      0.02752   0.00000     -0.000  -0.000  -0.000
   18 11 3Pdz2      0.00868   0.00000      0.000  -0.000  -0.000
   18 12 3Pdxz      0.03036   0.00000      0.000  -0.000  -0.000
   18 13 3Pdx2-y2   0.11265   0.00000     -0.000   0.000  -0.000
   18     Total     3.78636   0.00000      0.000  -0.000   0.000

   19  1 3s         0.46033   0.00000      0.000   0.000  -0.000
   19  2 3s         0.36463   0.00000     -0.000  -0.000  -0.000
   19  3 3py        0.08384   0.00000     -0.000   0.000   0.000
   19  4 3pz        0.42919   0.00000      0.000  -0.000  -0.000
   19  5 3px        0.35926   0.00000     -0.000  -0.000  -0.000
   19  6 3py        0.46931   0.00000      0.000  -0.000  -0.000
   19  7 3pz        0.18239   0.00000     -0.000   0.000  -0.000
   19  8 3px        0.23813   0.00000      0.000   0.000  -0.000
   19  9 3Pdxy      0.34223   0.00000     -0.000  -0.000  -0.000
   19 10 3Pdyz      0.18915   0.00000     -0.000   0.000  -0.000
   19 11 3Pdz2      0.01595   0.00000      0.000   0.000  -0.000
   19 12 3Pdxz      0.08906   0.00000     -0.000   0.000  -0.000
   19 13 3Pdx2-y2   0.23899   0.00000     -0.000  -0.000  -0.000
   19     Total     3.46246   0.00000     -0.000   0.000  -0.000

   20  1 3s         0.67373   0.00000     -0.000  -0.000  -0.000
   20  2 3s         0.37781   0.00000      0.000   0.000  -0.000
   20  3 3py        0.32990   0.00000     -0.000  -0.000  -0.000
   20  4 3pz        0.59239   0.00000     -0.000   0.000  -0.000
   20  5 3px        0.13843   0.00000     -0.000  -0.000  -0.000
   20  6 3py        0.29208   0.00000      0.000   0.000   0.000
   20  7 3pz        0.16363   0.00000      0.000  -0.000  -0.000
   20  8 3px        0.49965   0.00000     -0.000   0.000   0.000
   20  9 3Pdxy      0.09998   0.00000     -0.000   0.000  -0.000
   20 10 3Pdyz      0.13342   0.00000      0.000   0.000  -0.000
   20 11 3Pdz2      0.00737   0.00000     -0.000  -0.000   0.000
   20 12 3Pdxz      0.02690   0.00000     -0.000  -0.000   0.000
   20 13 3Pdx2-y2   0.17237   0.00000      0.000  -0.000  -0.000
   20     Total     3.50765   0.00000     -0.000  -0.000  -0.000

----------------------------------------------------------------
Total              89.10248   0.00000     -0.000   0.000   0.000


Species: H                   

Atom      Orb        Charge      Spin       Svec
----------------------------------------------------------------
   12  1 1s         0.49371   0.00000     -0.000   0.000  -0.000
   12  2 1s         0.18220   0.00000     -0.000  -0.000  -0.000
   12  3 2Ppy       0.02900   0.00000     -0.000  -0.000  -0.000
   12  4 2Ppz       0.03346   0.00000      0.000  -0.000  -0.000
   12  5 2Ppx       0.02293   0.00000      0.000   0.000  -0.000
   12     Total     0.76130   0.00000     -0.000   0.000  -0.000

   13  1 1s         1.01943   0.00000      0.000   0.000  -0.000
   13  2 1s         0.09533   0.00000     -0.000  -0.000   0.000
   13  3 2Ppy       0.01808   0.00000      0.000   0.000  -0.000
   13  4 2Ppz       0.02012   0.00000      0.000  -0.000   0.000
   13  5 2Ppx       0.03511   0.00000     -0.000   0.000   0.000
   13     Total     1.18807   0.00000      0.000   0.000  -0.000

   14  1 1s         0.46095   0.00000      0.000  -0.000  -0.000
   14  2 1s         0.20000   0.00000     -0.000   0.000   0.000
   14  3 2Ppy       0.01800   0.00000      0.000  -0.000   0.000
   14  4 2Ppz       0.04545   0.00000     -0.000   0.000  -0.000
   14  5 2Ppx       0.01716   0.00000      0.000  -0.000   0.000
   14     Total     0.74156   0.00000      0.000   0.000  -0.000

   15  1 1s         0.48991   0.00000      0.000   0.000  -0.000
   15  2 1s         0.17913   0.00000      0.000  -0.000  -0.000
   15  3 2Ppy       0.00527   0.00000      0.000  -0.000   0.000
   15  4 2Ppz       0.04078   0.00000     -0.000  -0.000  -0.000
   15  5 2Ppx       0.02902   0.00000      0.000   0.000   0.000
   15     Total     0.74410   0.00000      0.000   0.000  -0.000

   16  1 1s         0.50964   0.00000      0.000  -0.000  -0.000
   16  2 1s         0.18729   0.00000     -0.000   0.000   0.000
   16  3 2Ppy       0.02979   0.00000     -0.000  -0.000   0.000
   16  4 2Ppz       0.03980   0.00000      0.000  -0.000  -0.000
   16  5 2Ppx       0.02359   0.00000     -0.000  -0.000  -0.000
   16     Total     0.79012   0.00000     -0.000  -0.000  -0.000

   24  1 1s         1.06293   0.00000      0.000  -0.000  -0.000
   24  2 1s         0.07429   0.00000     -0.000  -0.000   0.000
   24  3 2Ppy       0.03218   0.00000     -0.000  -0.000   0.000
   24  4 2Ppz       0.03062   0.00000      0.000   0.000   0.000
   24  5 2Ppx       0.01729   0.00000     -0.000  -0.000   0.000
   24     Total     1.21732   0.00000      0.000   0.000  -0.000

   25  1 1s         1.04299   0.00000      0.000  -0.000  -0.000
   25  2 1s         0.08660   0.00000     -0.000  -0.000  -0.000
   25  3 2Ppy       0.01225   0.00000     -0.000   0.000  -0.000
   25  4 2Ppz       0.01853   0.00000      0.000  -0.000  -0.000
   25  5 2Ppx       0.03568   0.00000     -0.000   0.000   0.000
   25     Total     1.19605   0.00000      0.000  -0.000  -0.000

   26  1 1s         0.47417   0.00000      0.000  -0.000  -0.000
   26  2 1s         0.19636   0.00000     -0.000  -0.000   0.000
   26  3 2Ppy       0.02103   0.00000     -0.000   0.000   0.000
   26  4 2Ppz       0.04859   0.00000     -0.000  -0.000  -0.000
   26  5 2Ppx       0.01600   0.00000      0.000  -0.000  -0.000
   26     Total     0.75614   0.00000     -0.000  -0.000  -0.000

   27  1 1s         0.50413   0.00000      0.000  -0.000  -0.000
   27  2 1s         0.16964   0.00000     -0.000   0.000  -0.000
   27  3 2Ppy       0.00701   0.00000      0.000   0.000  -0.000
   27  4 2Ppz       0.03604   0.00000      0.000   0.000  -0.000
   27  5 2Ppx       0.02966   0.00000      0.000  -0.000   0.000
   27     Total     0.74648   0.00000      0.000  -0.000  -0.000

   29  1 1s         0.48509   0.00000     -0.000   0.000  -0.000
   29  2 1s         0.18754   0.00000      0.000   0.000  -0.000
   29  3 2Ppy       0.02511   0.00000     -0.000   0.000  -0.000
   29  4 2Ppz       0.03445   0.00000      0.000  -0.000   0.000
   29  5 2Ppx       0.02420   0.00000      0.000  -0.000   0.000
   29     Total     0.75639   0.00000     -0.000  -0.000  -0.000

----------------------------------------------------------------
Total              98.00000   0.00000      0.000   0.000   0.000


siesta: Eigenvalues (eV):
ik =     1
  -21.8662  -21.8662  -21.8227  -21.8227  -21.5709  -21.5709  -21.5241  -21.5241  -21.2268  -21.2268
  -21.0460  -21.0460  -20.7913  -20.7913  -19.7948  -19.7948  -19.4081  -19.4081  -19.3593  -19.3593
  -14.7510  -14.7510  -13.8624  -13.8624  -13.3330  -13.3330  -13.1433  -13.1433  -13.0952  -13.0952
  -12.8510  -12.8510  -12.7728  -12.7728  -12.4069  -12.4069  -12.3651  -12.3651  -12.0224  -12.0224
  -11.4013  -11.4013  -10.8089  -10.8089  -10.7345  -10.7345  -10.6853  -10.6853  -10.1024  -10.1024
   -9.5491   -9.5491   -9.2144   -9.2144   -8.8579   -8.8579   -8.7044   -8.7044   -8.6634   -8.6634
   -8.6092   -8.6092   -8.4101   -8.4101   -8.1683   -8.1683   -7.8127   -7.8127   -7.6447   -7.6447
   -7.6439   -7.6439   -7.3156   -7.3156   -7.2892   -7.2892   -6.8478   -6.8478   -6.7681   -6.7681
   -6.5280   -6.5280   -6.5088   -6.5088   -6.1237   -6.1237   -6.1016   -6.1016   -6.0944   -6.0944
   -5.7935   -5.7935   -5.6751   -5.6751   -5.4690   -5.4690   -4.3053   -4.3053   -3.2425   -3.2425
   -2.3191   -2.3191   -2.2983   -2.2983   -2.2314   -2.2314   -1.8585   -1.8585   -1.8534   -1.8534
   -1.8300   -1.8300   -1.7801   -1.7801   -1.5715   -1.5715   -1.4967   -1.4967   -1.0097   -1.0097
   -0.9494   -0.9494   -0.7910   -0.7910   -0.3705   -0.3705   -0.2017   -0.2017    0.0556    0.0556
    0.4032    0.4032    0.4458    0.4458    0.5703    0.5703    0.7063    0.7063    0.7993    0.7993
    1.0175    1.0175    1.2572    1.2572    1.3070    1.3070    1.4303    1.4303    1.4391    1.4391
    1.7002    1.7002    1.8446    1.8446    1.9279    1.9279    2.3769    2.3769    2.7466    2.7466
    2.7528    2.7528    2.8283    2.8283    2.9773    2.9773    3.1787    3.1787    3.3734    3.3734
    3.4034    3.4034    3.7949    3.7949    3.9020    3.9020    4.0808    4.0808    4.3344    4.3344
    4.4133    4.4133    4.5181    4.5181    4.5830    4.5830    4.6076    4.6076    4.8930    4.8930
    4.9193    4.9193    5.0473    5.0473    5.2594    5.2594    5.4915    5.4915    5.6830    5.6830
    5.7278    5.7278    5.7673    5.7673    5.9891    5.9891    5.9918    5.9918    6.0909    6.0909
    6.1771    6.1771    6.3509    6.3509    6.6057    6.6057    6.7552    6.7552    6.8093    6.8093
    7.0430    7.0430    7.2082    7.2082    7.4112    7.4112    7.5710    7.5710    7.7210    7.7210
    7.8269    7.8269    8.0379    8.0379    8.0791    8.0791    8.2613    8.2613    8.2842    8.2842
    8.5732    8.5732    8.7051    8.7051    8.7952    8.7952    8.9432    8.9432    9.1875    9.1875
    9.2488    9.2488    9.3184    9.3184    9.7211    9.7211    9.8375    9.8375    9.8445    9.8445
   10.0077   10.0077   10.1547   10.1547   10.4502   10.4502   10.8148   10.8148   10.9507   10.9507
   11.0238   11.0238   11.0980   11.0980   11.1637   11.1637   11.7213   11.7213   11.8349   11.8349
   11.9028   11.9028   11.9946   11.9946   12.2740   12.2740   12.4310   12.4310   12.5387   12.5387
   12.6929   12.6929   12.7247   12.7247   13.4484   13.4484   13.5088   13.5088   13.7021   13.7021
   13.8242   13.8242   14.0357   14.0357   14.2591   14.2591   14.5475   14.5475   14.8377   14.8377
   14.8435   14.8435   15.3147   15.3147   15.9999   15.9999   16.4327   16.4327   16.6637   16.6637
   16.9663   16.9663   17.4395   17.4395   17.6433   17.6433   18.2798   18.2798   18.3630   18.3630
   18.5767   18.5767   19.0520   19.0520   19.3684   19.3684   19.9802   19.9802   20.2406   20.2406
   20.8840   20.8840   21.3077   21.3077   21.8183   21.8183   22.1228   22.1228   22.4975   22.4975
   23.1195   23.1195   23.3580   23.3580   23.7528   23.7528   23.9014   23.9014   23.9618   23.9618
   24.8637   24.8637   25.2279   25.2279   25.9821   25.9821   26.8528   26.8528   27.7161   27.7161
   28.8369   28.8369   29.0233   29.0233   29.1653   29.1653   29.5244   29.5244   29.7100   29.7100
   30.1002   30.1002   30.2555   30.2555   30.3090   30.3090   30.7333   30.7333   31.0166   31.0166
   31.0218   31.0218   31.1233   31.1233   31.4451   31.4451   31.7720   31.7720   32.2244   32.2244
   32.9568   32.9568   33.9148   33.9148   34.5127   34.5127   34.6124   34.6124   34.8731   34.8731
   34.9731   34.9731   34.9978   34.9978   35.3857   35.3857   35.6749   35.6749   35.6869   35.6869
   36.8020   36.8020   36.8955   36.8955   37.1168   37.1168   37.2996   37.2996   37.8336   37.8336
   38.1972   38.1972   38.5596   38.5596   39.2885   39.2885   39.5389   39.5389   39.9900   39.9900
   40.3133   40.3133   40.5080   40.5080   40.7252   40.7252   40.9422   40.9422   41.1222   41.1222
   41.4554   41.4554   41.5595   41.5595   42.4675   42.4675   42.7936   42.7936   42.9763   42.9763
   43.2418   43.2418   43.7276   43.7276   44.0893   44.0893   44.0937   44.0937   44.2257   44.2257
   44.6999   44.6999   44.7394   44.7394   45.1834   45.1834   45.4908   45.4908   46.0138   46.0138
   46.6020   46.6020   47.0301   47.0301   47.2086   47.2086   48.5702   48.5702   49.2773   49.2773
   49.5158   49.5158   50.2737   50.2737   50.5546   50.5546   50.6690   50.6690   50.9972   50.9972
   51.4726   51.4726   51.5865   51.5865   52.6214   52.6214   53.0541   53.0541   54.1542   54.1542
   54.4609   54.4609   54.5475   54.5475   55.1971   55.1971   55.7700   55.7700   55.9879   55.9879
   56.1188   56.1188   56.4373   56.4373   56.4927   56.4927   58.3007   58.3007   58.3133   58.3133
   58.9708   58.9708   60.2427   60.2427   60.4989   60.4989   61.1285   61.1285   61.4173   61.4173
   61.7700   61.7700   62.1623   62.1623   62.4206   62.4206   64.5427   64.5427   66.4514   66.4514
   67.2255   67.2255   67.4025   67.4025   68.1180   68.1180   68.9378   68.9378   70.8729   70.8729
   74.1747   74.1747   80.3995   80.3995   91.1684   91.1684   91.9051   91.9051   93.4412   93.4412
   98.4807   98.4807   99.3170   99.3170   99.6195   99.6195  103.4458  103.4458  103.9646  103.9646
  110.2525  110.2525  111.9475  111.9475  123.6964  123.6964  125.7239  125.7239  130.2138  130.2138
  135.2293  135.2293  138.5270  138.5270
siesta: Fermi energy =      -3.773535 eV

siesta: Program's energy decomposition (eV):
siesta: Ebs     =     -1133.687465
siesta: Eions   =      3585.165840
siesta: Ena     =       382.018564
siesta: Ekin    =      2903.131582
siesta: Enl     =     -2788.083273
siesta: Eso     =        -0.004278
siesta: Edftu   =         0.000000
siesta: DEna    =        47.075255
siesta: DUscf   =        14.279008
siesta: DUext   =         0.000000
siesta: Exc     =     -1119.742597
siesta: eta*DQ  =         0.000000
siesta: Emadel  =         0.000000
siesta: Emeta   =         0.000000
siesta: Emolmec =         0.000000
siesta: Ekinion =         0.000000
siesta: Eharris =     -4146.491578
siesta: Etot    =     -4146.491578
siesta: FreeEng =     -4146.491578

siesta: Final energy (eV):
siesta:  Band Struct. =   -1133.687465
siesta:       Kinetic =    2903.131582
siesta:       Hartree =    8310.146971
siesta:       Edftu   =       0.000000
siesta:       Eso     =      -0.004278
siesta:    Ext. field =       0.000000
siesta:   Exch.-corr. =   -1119.742597
siesta:  Ion-electron =  -19203.559043
siesta:       Ion-ion =    4963.535786
siesta:       Ekinion =       0.000000
siesta:         Total =   -4146.491578
siesta:         Fermi =      -3.773535

siesta: Atomic forces (eV/Ang):
siesta:      1    4.331833   -1.074402    0.000000
siesta:      2   -0.009592    0.023683    0.000000
siesta:      3    0.732609   -0.352939   -0.000000
siesta:      4    0.700935   -0.015144    0.000000
siesta:      5    0.046696   -0.088528   -0.000000
siesta:      6    1.757707    0.662027   -0.000000
siesta:      7    0.042460   -0.245864   -0.000000
siesta:      8   -0.390565    0.274302    0.000000
siesta:      9   -0.168842    1.214846   -0.000000
siesta:     10   -0.960439    0.351382   -0.000000
siesta:     11   -0.020577   -0.020011    0.000000
siesta:     12   -0.406501   -0.255092    0.000000
siesta:     13    0.048500    0.024584    0.000000
siesta:     14    0.203629   -0.029852    0.000000
siesta:     15   -1.246260   -0.863057    0.000000
siesta:     16   -0.042532    0.109966   -0.000000
siesta:     17    0.955469   -1.065761   -0.000000
siesta:     18   -0.206150    0.189993    0.000000
siesta:     19   -0.194494   -1.181068   -0.000000
siesta:     20   -0.016699   -0.395522    0.000000
siesta:     21   -0.338964    0.969907    0.000000
siesta:     22   -2.183883   -0.898286   -0.000000
siesta:     23    0.241473    0.512104    0.000000
siesta:     24    0.167432   -0.051357   -0.000000
siesta:     25    0.091590   -0.064181   -0.000000
siesta:     26   -0.239788   -0.190838   -0.000000
siesta:     27    1.580117    1.360768    0.000000
siesta:     28    3.136683    1.424673    0.000000
siesta:     29   -0.087594    0.133335   -0.000000
siesta: ----------------------------------------
siesta:    Tot    7.524253    0.459666   -0.000000

siesta: Stress tensor (static) (eV/Ang**3):
siesta:     0.000122    0.000923    0.000000
siesta:     0.000923    0.001100    0.000000
siesta:     0.000000    0.000000   -0.000058

siesta: Cell volume =       5144.440877 Ang**3

siesta: Pressure (static):
siesta:                Solid            Molecule  Units
siesta:          -0.00000423         -0.00000022  Ry/Bohr**3
siesta:          -0.00038810         -0.00002025  eV/Ang**3
siesta:          -0.62180800         -0.03244694  kBar
(Free)E+ p_basis*V_orbitals  =       -4126.641161
(Free)Eharris+ p_basis*V_orbitals  =       -4126.641161
     spin moment: S , {S} =    0.00000   0.00000   0.00000   0.00000

siesta: Electric dipole (a.u.)  =    1.594310    0.064804   -0.000000
siesta: Electric dipole (Debye) =    4.052334    0.164715   -0.000000

cite: Please see "GC.bib" for an exhaustive BiBTeX file.
cite: Please clearly indicate Siesta version in published work: v4.1.5-1-g384057250
cite: This calculation has made use of the following articles
cite: which are encouraged to be cited in a published work.
        Primary SIESTA paper
          DOI: www.doi.org/10.1088/0953-8984/14/11/302
        Spin-orbit coupling (on-site approximation)
          DOI: www.doi.org/10.1088/0953-8984/19/19/489001


WARNING: alloc-realloc-dealloc name mismatch
         Name: atomlist isa
         Size:              -116. Bytes
         Node:     0
         Subsequent mismatches will not be reported
>> End of run:  28-JUN-2023  19:51:53
Job completed
