Siesta Version  : v4.1.5-1-g384057250
Architecture    : gcc
Compiler version: GNU Fortran (Ubuntu 11.4.0-1ubuntu1~22.04) 11.4.0
Compiler flags  : mpifort -O2 -fPIC -ftree-vectorize -fallow-argument-mismatch
PP flags        : -DFC_HAVE_ABORT -DMPI -DSIESTA__FLOOK -DSIESTA__METIS -DSIESTA__MUMPS -DCDF -DNCDF -DNCDF_4 -DNCDF_PARALLEL -DSIESTA__MRRR -DSIESTA__ELPA
Libraries       : libncdf.a libfdict.a  -lflookall -ldl -lnetcdff -lnetcdf -lhdf5_hl -lhdf5 -lhdf5_fortran -lz -lscalapack-openmpi -lopenblas -lmetis -lzmumps -lcmumps -ldmumps -lmumps_common -lpord -lsmumps -lesmumps -lscotch -lscotcherr -fopenmp -lelpa
PARALLEL version
NetCDF support
NetCDF-4 support
NetCDF-4 MPI-IO support
METIS ordering support
Lua support

* Running on 8 nodes in parallel
>> Start of run:   1-FEB-2024  20:21:19

                           ***********************       
                           *  WELCOME TO SIESTA  *       
                           ***********************       

reinit: Reading from standard input
reinit: Dumped input in INPUT_TMP.50545
************************** Dump of input data file ****************************
# mpirun -np 4 siesta-4.1.5 < AT.fdf > AT.out &
SystemLabel      AT
NumberOfAtoms    30
NumberOfSpecies  4
%block ChemicalSpeciesLabel
    1    1  H
    2    7  N
    3   14  Si
    4    8  O
%endblock ChemicalSpeciesLabel
############################################
# This overrides Defaults.fdf configuration
############################################
MD.TypeOfRun                Verlet # CG, Verlet
MD.Steps                    0
MaxSCFIterations            200
SCF.MustConverge            F
AtomicCoordinatesFormat NotScaledCartesianAng
%block AtomicCoordinatesAndAtomicSpecies
    2.28494382 -5.19529124 0.0  1  1  H
    1.37433094 -4.6647107 0.0  2  2  N
    -0.21830245 -5.49458215 0.0  3  3  Si
    -0.17484108 -6.98516892 0.0  1  4  H
    -1.66171682 -4.58600741 0.0  2  5  N
    -1.09026419 -2.87456374 0.0  3  6  Si
    -1.53038332 -0.70765692 0.0  3  7  Si
    -3.14415959 -0.09186471 0.0  2  8  N
    -3.40268075 0.95848335 0.0  1  9  H
    -3.95073599 -0.76720972 0.0  1  10  H
    -0.17836637 0.41349951 0.0  2  11  N
    1.49520211 -0.0473996 0.0  3  12  Si
    2.45603905 1.10727302 0.0  1  13  H
    2.30451743 -1.58574382 0.0  2  14  N
    1.10725559 -2.84610319 0.0  3  15  Si
    0.1634435638873719 10.464563623241482 0.0  1  16  H
    -0.6452671161126281 9.77235774324148 0.0  2  17  N
    -2.301856956112628 10.48547784324148 0.0  3  18  Si
    -2.204991786112628 11.99620305324148 0.0  1  19  H
    -4.028013306112628 9.14242971324148 0.0  3  20  Si
    -6.382467556112628 9.13444278324148 0.0  3  21  Si
    -6.944885676112628 9.86893243324148 -1.20183078  1  22  H
    -6.682281306112628 7.65535165324148 -0.08618332  1  23  H
    -6.944998136112628 9.69927524324148 1.28814761  1  24  H
    -3.098622666112628 7.07185848324148 0.0  3  25  Si
    -4.048091026112628 5.783322353241481 0.0  4  26  O
    -1.3076777961126282 6.898123013241481 0.0  2  27  N
    -0.9766864361126281 5.8657660332414805 0.0  1  28  H
    0.0007804238873718727 8.092669433241479 0.0  3  29  Si
    1.5667173538873718 7.8254225832414805 0.0  4  30  O
%endblock AtomicCoordinatesAndAtomicSpecies
#############
# Unit Cell
#############
LatticeConstant 1.0 Ang
%block LatticeVectors
    30.00000    0.000000    0.000000
    0.000000    45.00000    0.000000
    0.000000    0.000000    10.00000
%endblock LatticeVectors
%include ../../../../Defaults.fdf
************************** End of input data file *****************************

reinit: -----------------------------------------------------------------------
reinit: System Name: 
reinit: -----------------------------------------------------------------------
reinit: System Label: AT
reinit: -----------------------------------------------------------------------

initatom: Reading input for the pseudopotentials and atomic orbitals ----------
Species number:   1 Atomic number:    1 Label: H
Species number:   2 Atomic number:    7 Label: N
Species number:   3 Atomic number:   14 Label: Si
Species number:   4 Atomic number:    8 Label: O

Ground state valence configuration:   1s01
Reading pseudopotential information in formatted form from H.psf

Pseudopotential generated from a relativistic atomic calculation

Valence configuration for pseudopotential generation:
1s( 1.00) rc: 0.01
2p( 0.00) rc: 0.60
3d( 0.00) rc: 1.99
4f( 0.00) rc: 2.49
Ground state valence configuration:   2s02  2p03
Reading pseudopotential information in formatted form from N.psf

Pseudopotential generated from a relativistic atomic calculation

Valence configuration for pseudopotential generation:
2s( 2.00) rc: 0.94
2p( 3.00) rc: 0.59
3d( 0.00) rc: 3.46
4f( 0.00) rc: 2.47
Ground state valence configuration:   3s02  3p02
Reading pseudopotential information in formatted form from Si.psf

Pseudopotential generated from a relativistic atomic calculation

Valence configuration for pseudopotential generation:
3s( 2.00) rc: 1.67
3p( 2.00) rc: 2.04
3d( 0.00) rc: 2.89
4f( 0.00) rc: 2.49
Ground state valence configuration:   2s02  2p04
Reading pseudopotential information in formatted form from O.psf

Pseudopotential generated from a relativistic atomic calculation

Valence configuration for pseudopotential generation:
2s( 2.00) rc: 0.45
2p( 4.00) rc: 0.92
3d( 0.00) rc: 2.24
4f( 0.00) rc: 0.25
For H, standard SIESTA heuristics set lmxkb to 2
 (one more than the basis l, including polarization orbitals).
Use PS.lmax or PS.KBprojectors blocks to override.
For N, standard SIESTA heuristics set lmxkb to 3
 (one more than the basis l, including polarization orbitals).
Use PS.lmax or PS.KBprojectors blocks to override.
For Si, standard SIESTA heuristics set lmxkb to 3
 (one more than the basis l, including polarization orbitals).
Use PS.lmax or PS.KBprojectors blocks to override.
For O, standard SIESTA heuristics set lmxkb to 3
 (one more than the basis l, including polarization orbitals).
Use PS.lmax or PS.KBprojectors blocks to override.

<basis_specs>
===============================================================================
H                    Z=   1    Mass=  1.0100        Charge= 0.17977+309
Lmxo=0 Lmxkb= 2    BasisType=split      Semic=F
L=0  Nsemic=0  Cnfigmx=1
          i=1  nzeta=2  polorb=1  (1s)
            splnorm:   0.62000    
               vcte:    0.0000    
               rinn:    0.0000    
               qcoe:    0.0000    
               qyuk:    0.0000    
               qwid:   0.10000E-01
                rcs:    0.0000      0.0000    
            lambdas:    1.0000      1.0000    
-------------------------------------------------------------------------------
L=0  Nkbl=1  erefs: 0.17977+309
L=1  Nkbl=1  erefs: 0.17977+309
L=2  Nkbl=1  erefs: 0.17977+309
===============================================================================
</basis_specs>

atom: Called for H                     (Z =   1)

read_vps: Pseudopotential generation method:
read_vps: ATM4.2.7  Troullier-Martins                       
Valence charge for ps generation:    1.00000

xc_check: Exchange-correlation functional:
xc_check: GGA Perdew, Burke & Ernzerhof 1996
V l=0 = -2*Zval/r beyond r=  0.0098
V l=1 = -2*Zval/r beyond r=  0.5817
V l=2 = -2*Zval/r beyond r=  1.9372
All V_l potentials equal beyond r=  1.9372
This should be close to max(r_c) in ps generation
All pots = -2*Zval/r beyond r=  1.9372

VLOCAL1: 99.0% of the norm of Vloc inside     11.567 Ry
VLOCAL1: 99.9% of the norm of Vloc inside     26.362 Ry
atom: Maximum radius for 4*pi*r*r*local-pseudopot. charge    2.25106
atom: Maximum radius for r*vlocal+2*Zval:    1.91306
GHOST: No ghost state for L =  0
GHOST: No ghost state for L =  1
GHOST: No ghost state for L =  2

KBgen: Kleinman-Bylander projectors: 
   l= 0   rc=  2.036604   el= -0.477180   Ekb= -6.081590   kbcos= -0.277285
   l= 1   rc=  2.195416   el=  0.001076   Ekb= -0.926943   kbcos= -0.034643
   l= 2   rc=  2.251056   el=  0.002010   Ekb= -0.130941   kbcos= -0.009788

KBgen: Total number of Kleinman-Bylander projectors:    9
atom: -------------------------------------------------------------------------

atom: SANKEY-TYPE ORBITALS:
atom: Selected multiple-zeta basis: split     

SPLIT: Orbitals with angular momentum L= 0

SPLIT: Basis orbitals for state 1s

SPLIT: PAO cut-off radius determined from an
SPLIT: energy shift=  0.002000 Ry

   izeta = 1
                 lambda =    1.000000
                     rc =    6.518340
                 energy =   -0.475305
                kinetic =    0.912139
    potential(screened) =   -1.387444
       potential(ionic) =   -1.907295

   izeta = 2
                 rmatch =    2.141150
              splitnorm =    0.620000
                 energy =    0.566467
                kinetic =    3.772856
    potential(screened) =   -3.206389
       potential(ionic) =   -3.759093

POLgen: Perturbative polarization orbital with L=  1

POLgen: Polarization orbital for state 1s

   izeta = 1
                     rc =    6.518340
                 energy =    0.533861
                kinetic =    1.121086
    potential(screened) =   -0.587225
       potential(ionic) =   -1.053027
atom: Total number of Sankey-type orbitals:  5

atm_pop: Valence configuration (for local Pseudopot. screening):
 1s( 1.00)                                                            
Vna: chval, zval:    1.00000   1.00000

Vna:  Cut-off radius for the neutral-atom potential:   6.518340

atom: _________________________________________________________________________

<basis_specs>
===============================================================================
N                    Z=   7    Mass=  14.010        Charge= 0.17977+309
Lmxo=1 Lmxkb= 3    BasisType=split      Semic=F
L=0  Nsemic=0  Cnfigmx=2
          i=1  nzeta=2  polorb=0  (2s)
            splnorm:   0.28000    
               vcte:    0.0000    
               rinn:    0.0000    
               qcoe:    0.0000    
               qyuk:    0.0000    
               qwid:   0.10000E-01
                rcs:    0.0000      0.0000    
            lambdas:    1.0000      1.0000    
L=1  Nsemic=0  Cnfigmx=2
          i=1  nzeta=2  polorb=1  (2p)
            splnorm:   0.28000    
               vcte:    0.0000    
               rinn:    0.0000    
               qcoe:    0.0000    
               qyuk:    0.0000    
               qwid:   0.10000E-01
                rcs:    0.0000      0.0000    
            lambdas:    1.0000      1.0000    
-------------------------------------------------------------------------------
L=0  Nkbl=1  erefs: 0.17977+309
L=1  Nkbl=1  erefs: 0.17977+309
L=2  Nkbl=1  erefs: 0.17977+309
L=3  Nkbl=1  erefs: 0.17977+309
===============================================================================
</basis_specs>

atom: Called for N                     (Z =   7)

read_vps: Pseudopotential generation method:
read_vps: ATM4.2.7  Troullier-Martins                       
Valence charge for ps generation:    5.00000

xc_check: Exchange-correlation functional:
xc_check: GGA Perdew, Burke & Ernzerhof 1996
V l=0 = -2*Zval/r beyond r=  1.2889
V l=1 = -2*Zval/r beyond r=  1.2889
V l=2 = -2*Zval/r beyond r=  3.4178
V l=3 = -2*Zval/r beyond r=  2.4084
All V_l potentials equal beyond r=  3.3753
This should be close to max(r_c) in ps generation
All pots = -2*Zval/r beyond r=  3.4178

VLOCAL1: 99.0% of the norm of Vloc inside      3.810 Ry
VLOCAL1: 99.9% of the norm of Vloc inside      8.683 Ry
atom: Maximum radius for 4*pi*r*r*local-pseudopot. charge    4.02088
atom: Maximum radius for r*vlocal+2*Zval:    3.54838
GHOST: No ghost state for L =  0
GHOST: No ghost state for L =  1
GHOST: No ghost state for L =  2
GHOST: No ghost state for L =  3

KBgen: Kleinman-Bylander projectors: 
   l= 0   rc=  3.417763   el= -1.365098   Ekb= -4.433130   kbcos= -0.707855
   l= 1   rc=  3.375302   el= -0.521201   Ekb=-13.264039   kbcos= -0.535594
   l= 2   rc=  3.872880   el=  0.001991   Ekb= -0.641094   kbcos= -0.062456
   l= 3   rc=  3.970931   el=  0.003093   Ekb= -0.474517   kbcos= -0.018236

KBgen: Total number of Kleinman-Bylander projectors:   16
atom: -------------------------------------------------------------------------

atom: SANKEY-TYPE ORBITALS:
atom: Selected multiple-zeta basis: split     

SPLIT: Orbitals with angular momentum L= 0

SPLIT: Basis orbitals for state 2s

SPLIT: PAO cut-off radius determined from an
SPLIT: energy shift=  0.002000 Ry

   izeta = 1
                 lambda =    1.000000
                     rc =    4.730425
                 energy =   -1.363399
                kinetic =    1.245246
    potential(screened) =   -2.608645
       potential(ionic) =   -8.121105

   izeta = 2
                 rmatch =    2.531849
              splitnorm =    0.280000
                 energy =   -0.959908
                kinetic =    2.409435
    potential(screened) =   -3.369343
       potential(ionic) =   -9.427975

SPLIT: Orbitals with angular momentum L= 1

SPLIT: Basis orbitals for state 2p

SPLIT: PAO cut-off radius determined from an
SPLIT: energy shift=  0.002000 Ry

   izeta = 1
                 lambda =    1.000000
                     rc =    5.924108
                 energy =   -0.519262
                kinetic =    3.672940
    potential(screened) =   -4.192202
       potential(ionic) =   -9.518354

   izeta = 2
                 rmatch =    2.531849
              splitnorm =    0.280000
                 energy =   -0.104258
                kinetic =    6.807538
    potential(screened) =   -6.911796
       potential(ionic) =  -13.149920

POLgen: Perturbative polarization orbital with L=  2

POLgen: Polarization orbital for state 2p

   izeta = 1
                     rc =    5.924108
                 energy =    1.427508
                kinetic =    2.872379
    potential(screened) =   -1.444871
       potential(ionic) =   -5.563644
atom: Total number of Sankey-type orbitals: 13

atm_pop: Valence configuration (for local Pseudopot. screening):
 2s( 2.00)                                                            
 2p( 3.00)                                                            
Vna: chval, zval:    5.00000   5.00000

Vna:  Cut-off radius for the neutral-atom potential:   5.924108

atom: _________________________________________________________________________

<basis_specs>
===============================================================================
Si                   Z=  14    Mass=  28.090        Charge= 0.17977+309
Lmxo=1 Lmxkb= 3    BasisType=split      Semic=F
L=0  Nsemic=0  Cnfigmx=3
          i=1  nzeta=2  polorb=0  (3s)
            splnorm:   0.28000    
               vcte:    0.0000    
               rinn:    0.0000    
               qcoe:    0.0000    
               qyuk:    0.0000    
               qwid:   0.10000E-01
                rcs:    0.0000      0.0000    
            lambdas:    1.0000      1.0000    
L=1  Nsemic=0  Cnfigmx=3
          i=1  nzeta=2  polorb=1  (3p)
            splnorm:   0.28000    
               vcte:    0.0000    
               rinn:    0.0000    
               qcoe:    0.0000    
               qyuk:    0.0000    
               qwid:   0.10000E-01
                rcs:    0.0000      0.0000    
            lambdas:    1.0000      1.0000    
-------------------------------------------------------------------------------
L=0  Nkbl=1  erefs: 0.17977+309
L=1  Nkbl=1  erefs: 0.17977+309
L=2  Nkbl=1  erefs: 0.17977+309
L=3  Nkbl=1  erefs: 0.17977+309
===============================================================================
</basis_specs>

atom: Called for Si                    (Z =  14)

read_vps: Pseudopotential generation method:
read_vps: ATM4.2.7  Troullier-Martins                       
Valence charge for ps generation:    4.00000

xc_check: Exchange-correlation functional:
xc_check: GGA Perdew, Burke & Ernzerhof 1996
V l=0 = -2*Zval/r beyond r=  2.7826
V l=1 = -2*Zval/r beyond r=  2.7826
V l=2 = -2*Zval/r beyond r=  2.9253
V l=3 = -2*Zval/r beyond r=  2.7826
All V_l potentials equal beyond r=  2.8530
This should be close to max(r_c) in ps generation
All pots = -2*Zval/r beyond r=  2.9253

VLOCAL1: 99.0% of the norm of Vloc inside      5.333 Ry
VLOCAL1: 99.9% of the norm of Vloc inside     12.154 Ry
atom: Maximum radius for 4*pi*r*r*local-pseudopot. charge    3.39869
atom: Maximum radius for r*vlocal+2*Zval:    2.96205
GHOST: No ghost state for L =  0
GHOST: No ghost state for L =  1
GHOST: No ghost state for L =  2
GHOST: No ghost state for L =  3

KBgen: Kleinman-Bylander projectors: 
   l= 0   rc=  3.075247   el= -0.794092   Ekb=  5.879390   kbcos=  0.167461
   l= 1   rc=  3.153101   el= -0.300068   Ekb=  2.642817   kbcos=  0.058301
   l= 2   rc=  3.273594   el=  0.001958   Ekb= -1.185135   kbcos= -0.104411
   l= 3   rc=  3.232927   el=  0.003046   Ekb= -0.497174   kbcos= -0.015889

KBgen: Total number of Kleinman-Bylander projectors:   16
atom: -------------------------------------------------------------------------

atom: SANKEY-TYPE ORBITALS:
atom: Selected multiple-zeta basis: split     

SPLIT: Orbitals with angular momentum L= 0

SPLIT: Basis orbitals for state 3s

SPLIT: PAO cut-off radius determined from an
SPLIT: energy shift=  0.002000 Ry

   izeta = 1
                 lambda =    1.000000
                     rc =    6.429618
                 energy =   -0.792283
                kinetic =    0.525293
    potential(screened) =   -1.317576
       potential(ionic) =   -3.744923

   izeta = 2
                 rmatch =    3.998416
              splitnorm =    0.280000
                 energy =   -0.583081
                kinetic =    1.069570
    potential(screened) =   -1.652651
       potential(ionic) =   -4.235185

SPLIT: Orbitals with angular momentum L= 1

SPLIT: Basis orbitals for state 3p

SPLIT: PAO cut-off radius determined from an
SPLIT: energy shift=  0.002000 Ry

   izeta = 1
                 lambda =    1.000000
                     rc =    8.464845
                 energy =   -0.298236
                kinetic =    0.785360
    potential(screened) =   -1.083596
       potential(ionic) =   -3.273779

   izeta = 2
                 rmatch =    4.587816
              splitnorm =    0.280000
                 energy =   -0.131871
                kinetic =    1.403687
    potential(screened) =   -1.535557
       potential(ionic) =   -4.015310

POLgen: Perturbative polarization orbital with L=  2

POLgen: Polarization orbital for state 3p

   izeta = 1
                     rc =    8.464845
                 energy =    0.321949
                kinetic =    1.055677
    potential(screened) =   -0.733728
       potential(ionic) =   -2.672950
atom: Total number of Sankey-type orbitals: 13

atm_pop: Valence configuration (for local Pseudopot. screening):
 3s( 2.00)                                                            
 3p( 2.00)                                                            
Vna: chval, zval:    4.00000   4.00000

Vna:  Cut-off radius for the neutral-atom potential:   8.464845

atom: _________________________________________________________________________

<basis_specs>
===============================================================================
O                    Z=   8    Mass=  16.000        Charge= 0.17977+309
Lmxo=1 Lmxkb= 3    BasisType=split      Semic=F
L=0  Nsemic=0  Cnfigmx=2
          i=1  nzeta=2  polorb=0  (2s)
            splnorm:   0.28000    
               vcte:    0.0000    
               rinn:    0.0000    
               qcoe:    0.0000    
               qyuk:    0.0000    
               qwid:   0.10000E-01
                rcs:    0.0000      0.0000    
            lambdas:    1.0000      1.0000    
L=1  Nsemic=0  Cnfigmx=2
          i=1  nzeta=2  polorb=1  (2p)
            splnorm:   0.28000    
               vcte:    0.0000    
               rinn:    0.0000    
               qcoe:    0.0000    
               qyuk:    0.0000    
               qwid:   0.10000E-01
                rcs:    0.0000      0.0000    
            lambdas:    1.0000      1.0000    
-------------------------------------------------------------------------------
L=0  Nkbl=1  erefs: 0.17977+309
L=1  Nkbl=1  erefs: 0.17977+309
L=2  Nkbl=1  erefs: 0.17977+309
L=3  Nkbl=1  erefs: 0.17977+309
===============================================================================
</basis_specs>

atom: Called for O                     (Z =   8)

read_vps: Pseudopotential generation method:
read_vps: ATM4.2.7  Troullier-Martins                       
Valence charge for ps generation:    6.00000

xc_check: Exchange-correlation functional:
xc_check: GGA Perdew, Burke & Ernzerhof 1996
V l=0 = -2*Zval/r beyond r=  1.1000
V l=1 = -2*Zval/r beyond r=  1.1000
V l=2 = -2*Zval/r beyond r=  2.2154
V l=3 = -2*Zval/r beyond r=  1.1000
All V_l potentials equal beyond r=  2.2154
This should be close to max(r_c) in ps generation
All pots = -2*Zval/r beyond r=  2.2154

VLOCAL1: 99.0% of the norm of Vloc inside      8.845 Ry
VLOCAL1: 99.9% of the norm of Vloc inside     20.157 Ry
atom: Maximum radius for 4*pi*r*r*local-pseudopot. charge    2.67231
atom: Maximum radius for r*vlocal+2*Zval:    2.32897
GHOST: No ghost state for L =  0
GHOST: No ghost state for L =  1
GHOST: No ghost state for L =  2
GHOST: No ghost state for L =  3

KBgen: Kleinman-Bylander projectors: 
   l= 0   rc=  2.243238   el= -1.759686   Ekb=**********   kbcos= -0.171774
   l= 1   rc=  2.328968   el= -0.663873   Ekb=-14.506792   kbcos= -0.519897
   l= 2   rc=  2.573941   el=  0.002031   Ekb= -1.137373   kbcos= -0.019581
   l= 3   rc=  2.606321   el=  0.003153   Ekb= -1.013546   kbcos= -0.003122

KBgen: Total number of Kleinman-Bylander projectors:   16
atom: -------------------------------------------------------------------------

atom: SANKEY-TYPE ORBITALS:
atom: Selected multiple-zeta basis: split     

SPLIT: Orbitals with angular momentum L= 0

SPLIT: Basis orbitals for state 2s

SPLIT: PAO cut-off radius determined from an
SPLIT: energy shift=  0.002000 Ry

   izeta = 1
                 lambda =    1.000000
                     rc =    4.243912
                 energy =   -1.758270
                kinetic =    3.286084
    potential(screened) =   -5.044353
       potential(ionic) =  -12.921184

   izeta = 2
                 rmatch =    2.187845
              splitnorm =    0.280000
                 energy =   -0.885018
                kinetic =    8.134434
    potential(screened) =   -9.019452
       potential(ionic) =  -17.710645

SPLIT: Orbitals with angular momentum L= 1

SPLIT: Basis orbitals for state 2p

SPLIT: PAO cut-off radius determined from an
SPLIT: energy shift=  0.002000 Ry

   izeta = 1
                 lambda =    1.000000
                     rc =    5.314825
                 energy =   -0.661986
                kinetic =    4.917472
    potential(screened) =   -5.579458
       potential(ionic) =  -13.236259

   izeta = 2
                 rmatch =    2.160663
              splitnorm =    0.280000
                 energy =   -0.068760
                kinetic =    9.183374
    potential(screened) =   -9.252135
       potential(ionic) =  -18.274251

POLgen: Perturbative polarization orbital with L=  2

POLgen: Polarization orbital for state 2p

   izeta = 1
                     rc =    5.314825
                 energy =    1.970580
                kinetic =    3.886128
    potential(screened) =   -1.915547
       potential(ionic) =   -7.749584
atom: Total number of Sankey-type orbitals: 13

atm_pop: Valence configuration (for local Pseudopot. screening):
 2s( 2.00)                                                            
 2p( 4.00)                                                            
Vna: chval, zval:    6.00000   6.00000

Vna:  Cut-off radius for the neutral-atom potential:   5.314825

atom: _________________________________________________________________________

prinput: Basis input ----------------------------------------------------------

PAO.BasisType split     

%block ChemicalSpeciesLabel
    1    1 H                       # Species index, atomic number, species label
    2    7 N                       # Species index, atomic number, species label
    3   14 Si                      # Species index, atomic number, species label
    4    8 O                       # Species index, atomic number, species label
%endblock ChemicalSpeciesLabel

%block PAO.Basis                 # Define Basis set
H                     1                    # Species label, number of l-shells
 n=1   0   2 P   1                   # n, l, Nzeta, Polarization, NzetaPol
   6.518      2.141   
   1.000      1.000   
N                     2                    # Species label, number of l-shells
 n=2   0   2                         # n, l, Nzeta 
   4.730      2.532   
   1.000      1.000   
 n=2   1   2 P   1                   # n, l, Nzeta, Polarization, NzetaPol
   5.924      2.532   
   1.000      1.000   
Si                    2                    # Species label, number of l-shells
 n=3   0   2                         # n, l, Nzeta 
   6.430      3.998   
   1.000      1.000   
 n=3   1   2 P   1                   # n, l, Nzeta, Polarization, NzetaPol
   8.465      4.588   
   1.000      1.000   
O                     2                    # Species label, number of l-shells
 n=2   0   2                         # n, l, Nzeta 
   4.244      2.188   
   1.000      1.000   
 n=2   1   2 P   1                   # n, l, Nzeta, Polarization, NzetaPol
   5.315      2.161   
   1.000      1.000   
%endblock PAO.Basis

prinput: ----------------------------------------------------------------------

Dumping basis to NetCDF file H.ion.nc
Dumping basis to NetCDF file N.ion.nc
Dumping basis to NetCDF file Si.ion.nc
Dumping basis to NetCDF file O.ion.nc
coor:   Atomic-coordinates input format  =     Cartesian coordinates
coor:                                          (in Angstroms)

siesta: Atomic coordinates (Bohr) and species
siesta:      4.31792  -9.81768   0.00000  1        1
siesta:      2.59711  -8.81503   0.00000  2        2
siesta:     -0.41253 -10.38326   0.00000  3        3
siesta:     -0.33040 -13.20006   0.00000  1        4
siesta:     -3.14019  -8.66630   0.00000  2        5
siesta:     -2.06030  -5.43214   0.00000  3        6
siesta:     -2.89201  -1.33728   0.00000  3        7
siesta:     -5.94160  -0.17360   0.00000  2        8
siesta:     -6.43014   1.81127   0.00000  1        9
siesta:     -7.46581  -1.44982   0.00000  1       10
siesta:     -0.33706   0.78140   0.00000  2       11
siesta:      2.82552  -0.08957   0.00000  3       12
siesta:      4.64124   2.09244   0.00000  1       13
siesta:      4.35491  -2.99662   0.00000  2       14
siesta:      2.09241  -5.37836   0.00000  3       15
siesta:      0.30886  19.77517   0.00000  1       16
siesta:     -1.21938  18.46709   0.00000  2       17
siesta:     -4.34988  19.81469   0.00000  3       18
siesta:     -4.16683  22.66955   0.00000  1       19
siesta:     -7.61185  17.27670   0.00000  3       20
siesta:    -12.06112  17.26160   0.00000  3       21
siesta:    -13.12394  18.64959  -2.27113  1       22
siesta:    -12.62769  14.46652  -0.16286  1       23
siesta:    -13.12415  18.32898   2.43425  1       24
siesta:     -5.85555  13.36388   0.00000  3       25
siesta:     -7.64979  10.92890   0.00000  4       26
siesta:     -2.47115  13.03557   0.00000  2       27
siesta:     -1.84567  11.08470   0.00000  1       28
siesta:      0.00147  15.29293   0.00000  3       29
siesta:      2.96067  14.78791   0.00000  4       30

siesta: System type = molecule  

initatomlists: Number of atoms, orbitals, and projectors:     30   302   403

siesta: ******************** Simulation parameters ****************************
siesta:
siesta: The following are some of the parameters of the simulation.
siesta: A complete list of the parameters used, including default values,
siesta: can be found in file out.fdf
siesta:
redata: Spin configuration                          = spin-orbit
redata: Number of spin components                   = 8
redata: Time-Reversal Symmetry                      = F
redata: Spin spiral                                 = F
############################################################
This spin-orbit implementation uses a local approximation.
From 4.2 and onwards the full non-local approximation is implemented
You are strongly advised to use >=4.2 versions!
############################################################
redata: Long output                                 =   F
redata: Number of Atomic Species                    =        4
redata: Charge density info will appear in .RHO file
redata: Write Mulliken Pop.                         = NO
redata: Matel table size (NRTAB)                    =     1024
redata: Mesh Cutoff                                 =   340.0000 Ry
redata: Net charge of the system                    =     0.0000 |e|
redata: Min. number of SCF Iter                     =        1
redata: Max. number of SCF Iter                     =      200
redata: SCF mix quantity                            = Hamiltonian
redata: Mix DM or H after convergence               =   F
redata: Recompute H after scf cycle                 =   F
redata: Mix DM in first SCF step                    =   T
redata: Write Pulay info on disk                    =   F
redata: New DM Occupancy tolerance                  = 0.000000000001
redata: No kicks to SCF
redata: DM Mixing Weight for Kicks                  =     0.5000
redata: Require Harris convergence for SCF          =   F
redata: Harris energy tolerance for SCF             =     0.000100 eV
redata: Require DM convergence for SCF              =   T
redata: DM tolerance for SCF                        =     0.000008
redata: Require EDM convergence for SCF             =   F
redata: EDM tolerance for SCF                       =     0.001000 eV
redata: Require H convergence for SCF               =   T
redata: Hamiltonian tolerance for SCF               =     0.000001 eV
redata: Require (free) Energy convergence for SCF   =   F
redata: (free) Energy tolerance for SCF             =     0.000100 eV
redata: Using Saved Data (generic)                  =   F
redata: Use continuation files for DM               =   T
redata: Neglect nonoverlap interactions             =   F
redata: Method of Calculation                       = Diagonalization
redata: Electronic Temperature                      =   299.9978 K
redata: Fix the spin of the system                  =   F
redata: Dynamics option                             = Verlet MD run
redata: Initial MD time step                        =        1
redata:   Final MD time step                        =        1
redata: Length of MD time step                      =     0.5000 fs
redata: Initial Temperature of MD run               =     0.0000 K
redata: Perform a MD quench                         =   F
mix.SCF: Pulay mixing                            = Pulay
mix.SCF:    Variant                              = stable
mix.SCF:    History steps                        = 6
mix.SCF:    Linear mixing weight                 =     0.250000
mix.SCF:    Mixing weight                        =     0.250000
mix.SCF:    SVD condition                        = 0.1000E-07
mix.SCF:    Restart steps                        = 24
mix.SCF:    Restart save steps                   = 3
mix.SCF: Spin-component mixing                   all
redata: Save all siesta data in one NC              =   F
redata: ***********************************************************************

%block SCF.Mixers
  Pulay
%endblock SCF.Mixers

%block SCF.Mixer.Pulay
  # Mixing method
  method pulay
  variant stable

  # Mixing options
  weight 0.2500
  weight.linear 0.2500
  history 6
  restart 24
  restart.save 3
%endblock SCF.Mixer.Pulay

Size of DM history Fstack: 3
Total number of electrons:    98.000000
Total ionic charge:    98.000000

* ProcessorY, Blocksize:    2  24


* Orbital distribution balance (max,min):    48    24


Time-reversal symmetry not used.

siesta: k-grid: Number of k-points =     1
siesta: k-grid: Cutoff (effective) =     5.000 Ang
siesta: k-grid: Supercell and displacements
siesta: k-grid:    1   0   0      0.000
siesta: k-grid:    0   1   0      0.000
siesta: k-grid:    0   0   1      0.000

diag: Algorithm                                     = ELPA-1stage
diag: Parallel over k                               =   F
diag: Use parallel 2D distribution                  =   T
diag: Parallel block-size                           = 24
diag: Parallel distribution                         =     2 x     4
diag: Used triangular part                          = Lower
diag: Absolute tolerance                            =  0.100E-15
diag: Orthogonalization factor                      =  0.100E-05
diag: Memory factor                                 =  1.0000


ts: **************************************************************
ts: Save H and S matrices                           =    F
ts: Save DM and EDM matrices                        =    F
ts: Only save the overlap matrix S                  =    F
ts: **************************************************************

************************ Begin: TS CHECKS AND WARNINGS ************************
************************ End: TS CHECKS AND WARNINGS **************************


                     ====================================
                        Begin MD step =      1
                     ====================================

outcoor: Atomic coordinates (Ang):                          
    2.28494382   -5.19529124    0.00000000   1       1  H
    1.37433094   -4.66471070    0.00000000   2       2  N
   -0.21830245   -5.49458215    0.00000000   3       3  Si
   -0.17484108   -6.98516892    0.00000000   1       4  H
   -1.66171682   -4.58600741    0.00000000   2       5  N
   -1.09026419   -2.87456374    0.00000000   3       6  Si
   -1.53038332   -0.70765692    0.00000000   3       7  Si
   -3.14415959   -0.09186471    0.00000000   2       8  N
   -3.40268075    0.95848335    0.00000000   1       9  H
   -3.95073599   -0.76720972    0.00000000   1      10  H
   -0.17836637    0.41349951    0.00000000   2      11  N
    1.49520211   -0.04739960    0.00000000   3      12  Si
    2.45603905    1.10727302    0.00000000   1      13  H
    2.30451743   -1.58574382    0.00000000   2      14  N
    1.10725559   -2.84610319    0.00000000   3      15  Si
    0.16344356   10.46456362    0.00000000   1      16  H
   -0.64526712    9.77235774    0.00000000   2      17  N
   -2.30185696   10.48547784    0.00000000   3      18  Si
   -2.20499179   11.99620305    0.00000000   1      19  H
   -4.02801331    9.14242971    0.00000000   3      20  Si
   -6.38246756    9.13444278    0.00000000   3      21  Si
   -6.94488568    9.86893243   -1.20183078   1      22  H
   -6.68228131    7.65535165   -0.08618332   1      23  H
   -6.94499814    9.69927524    1.28814761   1      24  H
   -3.09862267    7.07185848    0.00000000   3      25  Si
   -4.04809103    5.78332235    0.00000000   4      26  O
   -1.30767780    6.89812301    0.00000000   2      27  N
   -0.97668644    5.86576603    0.00000000   1      28  H
    0.00078042    8.09266943    0.00000000   3      29  Si
    1.56671735    7.82542258    0.00000000   4      30  O

outcell: Unit cell vectors (Ang):
       30.000000    0.000000    0.000000
        0.000000   45.000000    0.000000
        0.000000    0.000000   10.000000

outcell: Cell vector modules (Ang)   :   30.000000   45.000000   10.000000
outcell: Cell angles (23,13,12) (deg):     90.0000     90.0000     90.0000
outcell: Cell volume (Ang**3)        :  13500.0000
<dSpData1D:S at geom step 1
  <sparsity:sparsity for geom step 1
    nrows_g=302 nrows=48 sparsity=.0768 nnzs=7006, refcount: 8>
  <dData1D:(new from dSpData1D) n=7006, refcount: 1>
refcount: 1>
new_DM -- step:     1
Initializing Density Matrix...

Attempting to read DM from file... Failed...
DM filled with atomic data:
<dSpData2D:DM initialized from atoms
  <sparsity:sparsity for geom step 1
    nrows_g=302 nrows=48 sparsity=.0768 nnzs=7006, refcount: 9>
  <dData2D:DM n=7006 m=8, refcount: 1>
refcount: 1>
     spin moment: S , {S} =   56.00000   0.00000   0.00000  56.00000
No. of atoms with KB's overlaping orbs in proc 0. Max # of overlaps:      27     134

Initializing spin-orbit part of the Hamiltonian
  Adding spin-orbit effects for H 
  Adding spin-orbit effects for N 
  Adding spin-orbit effects for Si
  Adding spin-orbit effects for O 


New grid distribution:   1
           1       1:  180    1:  125    1:   15
           2       1:  180    1:  125   16:   30
           3       1:  180    1:  125   31:   45
           4       1:  180    1:  125   46:   60
           5       1:  180  126:  250    1:   15
           6       1:  180  126:  250   16:   30
           7       1:  180  126:  250   31:   45
           8       1:  180  126:  250   46:   60

InitMesh: MESH =   360 x   500 x   120 =    21600000
InitMesh: (bp) =   180 x   250 x    60 =     2700000
InitMesh: Mesh cutoff (required, used) =   340.000   341.206 Ry
ExtMesh (bp) on 0 =   288 x   225 x   123 =     7970400
New grid distribution:   2
           1       1:  158    1:   43    1:   60
           2       1:  152  233:  250    1:   60
           3       1:  158   44:   59    1:   60
           4     159:  180   43:   59    1:   60
           5       1:  152   60:  232    1:   60
           6     153:  180   60:  231    1:   60
           7     159:  180    1:   42    1:   60
           8     153:  180  232:  250    1:   60
New grid distribution:   3
           1     147:  180   60:  216    1:   60
           2       1:  143    1:   37    1:   60
           3       1:  143   38:   59    1:   60
           4     144:  180   34:   59    1:   60
           5       1:  146   60:  219    1:   60
           6       1:  146  220:  250    1:   60
           7     144:  180    1:   33    1:   60
           8     147:  180  217:  250    1:   60
Setting up quadratic distribution...
ExtMesh (bp) on 0 =   266 x   143 x   168 =     6390384
PhiOnMesh: Number of (b)points on node 0 =               407640
PhiOnMesh: nlist on node 0 =              1782129

stepf: Fermi-Dirac step function

siesta: Program's energy decomposition (eV):
siesta: Ebs     =      -623.001731
siesta: Eions   =      3553.971015
siesta: Ena     =       374.984506
siesta: Ekin    =      3171.400082
siesta: Enl     =     -2984.769568
siesta: Eso     =        -0.003883
siesta: Edftu   =         0.000000
siesta: DEna    =       129.720735
siesta: DUscf   =        75.666254
siesta: DUext   =         0.000000
siesta: Exc     =     -1168.713123
siesta: eta*DQ  =         0.000000
siesta: Emadel  =         0.000000
siesta: Emeta   =         0.000000
siesta: Emolmec =         0.000000
siesta: Ekinion =         0.000000
siesta: Eharris =     -3884.635513
siesta: Etot    =     -3955.686012
siesta: FreeEng =     -3955.689319

        iscf     Eharris(eV)        E_KS(eV)     FreeEng(eV)     dDmax    Ef(eV) dHmax(eV)
   scf:    1    -3884.635513    -3955.686012    -3955.689319  0.970536 -4.935274 21.621963
     spin moment: S , {S} =    2.02348  -0.00000  -0.00000   2.02348
timer: Routine,Calls,Time,% = IterSCF        1      10.971  33.85
   scf:    2    -3995.560793    -3988.558255    -3988.558263  0.465953 -4.244783 11.841629
     spin moment: S , {S} =    2.00009   0.00000  -0.00000   2.00009
   scf:    3    -3956.475410    -3985.132412    -3985.164783  0.423028 -4.187414 12.548142
     spin moment: S , {S} =    1.99470  -0.00000  -0.00001   1.99470
   scf:    4    -4002.474353    -3997.295635    -3997.295636  0.217996 -3.859413  6.240222
     spin moment: S , {S} =    0.00011  -0.00000   0.00000   0.00011
   scf:    5    -3998.714199    -3998.076446    -3998.076446  0.037772 -3.736580  4.104081
     spin moment: S , {S} =    0.00006  -0.00000   0.00000   0.00006
   scf:    6    -3998.893271    -3998.483328    -3998.483329  0.027481 -3.712306  1.933912
     spin moment: S , {S} =    0.00003  -0.00000   0.00000   0.00003
   scf:    7    -3998.868304    -3998.670295    -3998.670295  0.022433 -3.771874  0.766506
     spin moment: S , {S} =    0.00001  -0.00000   0.00000   0.00001
   scf:    8    -3998.798437    -3998.732342    -3998.732342  0.012186 -3.810513  0.516889
     spin moment: S , {S} =    0.00000  -0.00000   0.00000   0.00000
   scf:    9    -3998.782969    -3998.756538    -3998.756538  0.007195 -3.826700  0.407918
     spin moment: S , {S} =    0.00000  -0.00000   0.00000   0.00000
   scf:   10    -3998.818172    -3998.777039    -3998.777039  0.024728 -3.859406  0.217889
     spin moment: S , {S} =    0.00000  -0.00000  -0.00000  -0.00000
   scf:   11    -3998.782625    -3998.779996    -3998.779997  0.004263 -3.844073  0.082250
     spin moment: S , {S} =    0.00000  -0.00000  -0.00000  -0.00000
   scf:   12    -3998.781158    -3998.780608    -3998.780610  0.001206 -3.840689  0.047021
     spin moment: S , {S} =    0.00000   0.00000  -0.00000   0.00000
   scf:   13    -3998.781528    -3998.781061    -3998.781062  0.001043 -3.838378  0.025557
     spin moment: S , {S} =    0.00000   0.00000  -0.00000   0.00000
   scf:   14    -3998.781461    -3998.781254    -3998.781255  0.000769 -3.837335  0.016057
     spin moment: S , {S} =    0.00000   0.00000  -0.00000   0.00000
   scf:   15    -3998.781443    -3998.781343    -3998.781344  0.000579 -3.836939  0.009172
     spin moment: S , {S} =    0.00000   0.00000  -0.00000   0.00000
   scf:   16    -3998.781418    -3998.781377    -3998.781379  0.000458 -3.836871  0.003815
     spin moment: S , {S} =    0.00000   0.00000  -0.00000   0.00000
   scf:   17    -3998.781390    -3998.781383    -3998.781384  0.000179 -3.837032  0.002599
     spin moment: S , {S} =    0.00000   0.00000   0.00000   0.00000
   scf:   18    -3998.781390    -3998.781386    -3998.781387  0.000165 -3.837153  0.001471
     spin moment: S , {S} =    0.00000   0.00000   0.00000   0.00000
   scf:   19    -3998.781388    -3998.781387    -3998.781388  0.000102 -3.837187  0.001062
     spin moment: S , {S} =    0.00000   0.00000   0.00000   0.00000
   scf:   20    -3998.781388    -3998.781387    -3998.781389  0.000048 -3.837209  0.000727
     spin moment: S , {S} =    0.00000   0.00000   0.00000   0.00000
   scf:   21    -3998.781388    -3998.781388    -3998.781389  0.000045 -3.837218  0.000528
     spin moment: S , {S} =    0.00000   0.00000   0.00000   0.00000
   scf:   22    -3998.781388    -3998.781388    -3998.781389  0.000055 -3.837232  0.000250
     spin moment: S , {S} =    0.00000   0.00000   0.00000   0.00000
   scf:   23    -3998.781388    -3998.781388    -3998.781389  0.000027 -3.837236  0.000171
     spin moment: S , {S} =    0.00000   0.00000   0.00000   0.00000
   scf:   24    -3998.781388    -3998.781388    -3998.781389  0.000020 -3.837234  0.000084
     spin moment: S , {S} =    0.00000   0.00000   0.00000   0.00000
mix: Pulay -- resetting history
   scf:   25    -3998.781388    -3998.781388    -3998.781389  0.000014 -3.837231  0.000038
     spin moment: S , {S} =    0.00000   0.00000   0.00000   0.00000
   scf:   26    -3998.781388    -3998.781388    -3998.781389  0.000005 -3.837228  0.000023
     spin moment: S , {S} =    0.00000   0.00000   0.00000   0.00000
   scf:   27    -3998.781388    -3998.781388    -3998.781389  0.000003 -3.837228  0.000014
     spin moment: S , {S} =    0.00000   0.00000   0.00000   0.00000
   scf:   28    -3998.781388    -3998.781388    -3998.781389  0.000003 -3.837228  0.000007
     spin moment: S , {S} =    0.00000   0.00000   0.00000   0.00000
   scf:   29    -3998.781388    -3998.781388    -3998.781389  0.000000 -3.837228  0.000005
     spin moment: S , {S} =    0.00000   0.00000   0.00000   0.00000
   scf:   30    -3998.781388    -3998.781388    -3998.781389  0.000000 -3.837229  0.000003
     spin moment: S , {S} =    0.00000  -0.00000   0.00000  -0.00000
   scf:   31    -3998.781388    -3998.781388    -3998.781389  0.000000 -3.837229  0.000002
     spin moment: S , {S} =    0.00000  -0.00000   0.00000  -0.00000
   scf:   32    -3998.781388    -3998.781388    -3998.781389  0.000000 -3.837229  0.000001
     spin moment: S , {S} =    0.00000  -0.00000   0.00000   0.00000
   scf:   33    -3998.781388    -3998.781388    -3998.781389  0.000000 -3.837230  0.000001
     spin moment: S , {S} =    0.00000  -0.00000   0.00000   0.00000

SCF Convergence by DM+H criterion
max |DM_out - DM_in|         :     0.0000001075
max |H_out - H_in|      (eV) :     0.0000006972
SCF cycle converged after 33 iterations

Using DM_out to compute the final energy and forces
No. of atoms with KB's overlaping orbs in proc 0. Max # of overlaps:      27     134

siesta: E_KS(eV) =            -3998.7814

siesta: E_KS - E_eggbox =     -3998.7814
     spin moment: S , {S} =    0.00000  -0.00000   0.00000   0.00000

siesta: Atomic forces (eV/Ang):
     1    0.143033   -0.027603   -0.000000
     2   -0.034387    0.043196    0.000000
     3   -0.030834   -0.017736    0.000000
     4    0.068502   -0.134441   -0.000000
     5    0.054037    0.005492   -0.000000
     6   -0.189705    0.018228    0.000000
     7    1.052373   -0.037516   -0.000001
     8   -0.643687    1.411474    0.000000
     9    0.165127   -1.002056   -0.000001
    10   -0.110468    0.134988    0.000001
    11   -0.185736   -0.368975    0.000001
    12   -0.279487    0.045284   -0.000000
    13   -0.122924   -0.050898    0.000000
    14    0.032150   -0.115185   -0.000000
    15    0.108391    0.094715    0.000000
    16   -0.076146   -0.145706   -0.000950
    17    0.039885   -0.083265   -0.000792
    18   -0.146957    0.038625    0.005201
    19    0.077913   -0.146273   -0.001425
    20    0.123213    0.078242   -0.001077
    21    0.058736   -0.026008   -0.006950
    22    0.078391    0.019772    0.117559
    23    0.129663    0.017231    0.003691
    24    0.075831    0.070130   -0.093714
    25   -0.637574   -0.399895    0.001045
    26   -0.797556   -4.573726    0.000510
    27    0.344152   -0.448804   -0.000555
    28   -0.218981    0.675553   -0.000073
    29    0.146460    0.163825   -0.000222
    30    1.501449    1.180066    0.000257
----------------------------------------
   Tot    0.724864   -3.581268    0.022505
----------------------------------------
   Max    4.573726
   Res    0.594211    sqrt( Sum f_i^2 / 3N )
----------------------------------------
   Max    4.573726    constrained

Stress tensor Voigt[x,y,z,yz,xz,xy] (kbar):        0.13        0.25       -0.01       -0.01        0.00        0.12
(Free)E + p*V (eV/cell)    -3999.8198
Target enthalpy (eV/cell)    -3998.7814

siesta: Stress tensor (static) (eV/Ang**3):
         0.000083    0.000076    0.000000
         0.000076    0.000156   -0.000004
         0.000000   -0.000004   -0.000009

siesta: Pressure (static):         -0.12324086  kBar

siesta: Stress tensor (total) (eV/Ang**3):
         0.000083    0.000076    0.000000
         0.000076    0.000156   -0.000004
         0.000000   -0.000004   -0.000009

siesta: Pressure (total):         -0.12324086  kBar

siesta: Temp_ion =       0.000 K

siesta: Eigenvalues (eV):
ik =     1
  -22.8428  -22.8428  -22.3300  -22.3300  -21.7156  -21.7156  -21.2659  -21.2659  -21.0085  -21.0085
  -20.9149  -20.9149  -19.3863  -19.3863  -19.2214  -19.2214  -18.6000  -18.6000  -15.0105  -15.0105
  -14.0991  -14.0991  -13.6342  -13.6342  -13.5568  -13.5568  -13.0636  -13.0636  -12.8762  -12.8762
  -12.5182  -12.5182  -12.1366  -12.1366  -11.8970  -11.8970  -11.5955  -11.5955  -11.4735  -11.4735
  -10.9691  -10.9691  -10.6030  -10.6030  -10.1897  -10.1897   -9.5364   -9.5364   -9.3173   -9.3173
   -9.1437   -9.1437   -9.0900   -9.0900   -9.0089   -9.0089   -8.7816   -8.7816   -8.5865   -8.5865
   -8.3823   -8.3823   -8.2251   -8.2251   -8.1196   -8.1196   -7.9920   -7.9920   -7.9056   -7.9056
   -7.7135   -7.7135   -7.3791   -7.3791   -7.2899   -7.2899   -7.2541   -7.2541   -6.8249   -6.8249
   -6.8220   -6.8220   -6.7097   -6.7097   -6.3941   -6.3941   -6.2649   -6.2649   -6.1569   -6.1569
   -5.7929   -5.7929   -5.6908   -5.6908   -5.5328   -5.5328   -4.2001   -4.2001   -3.4743   -3.4743
   -2.6868   -2.6868   -2.1880   -2.1880   -2.1582   -2.1582   -2.1064   -2.1064   -1.9754   -1.9754
   -1.9301   -1.9301   -1.6982   -1.6982   -1.6138   -1.6138   -1.5743   -1.5743   -1.3880   -1.3880
   -1.1412   -1.1412   -0.5544   -0.5544   -0.2968   -0.2968   -0.1879   -0.1879   -0.1716   -0.1716
   -0.0085   -0.0085    0.0620    0.0620    0.2618    0.2618    0.5424    0.5424    0.5897    0.5897
    0.6596    0.6596    0.7612    0.7612    1.2316    1.2316    1.2913    1.2913    1.3207    1.3207
    1.4597    1.4597    1.5814    1.5814    1.9438    1.9438    1.9726    1.9726    2.1972    2.1972
    2.4596    2.4596    2.7570    2.7570    2.8188    2.8188    2.8315    2.8315    2.8649    2.8649
    3.0951    3.0951    3.1213    3.1213    3.1761    3.1761    3.2631    3.2631    3.3296    3.3296
    3.6990    3.6990    3.9272    3.9272    4.2281    4.2281    4.2347    4.2347    4.2491    4.2491
    4.3860    4.3860    4.7094    4.7094    4.7148    4.7148    4.8164    4.8164    5.0807    5.0807
    5.0925    5.0925    5.2347    5.2347    5.5661    5.5661    5.7194    5.7194    5.7760    5.7760
    5.9118    5.9118    6.0734    6.0734    6.1823    6.1823    6.2300    6.2300    6.3422    6.3422
    6.6054    6.6054    6.6507    6.6507    6.8324    6.8324    7.0557    7.0557    7.2364    7.2364
    7.2782    7.2782    7.5031    7.5031    7.6619    7.6619    7.8609    7.8609    7.9825    7.9825
    8.0141    8.0141    8.1824    8.1824    8.3907    8.3907    8.3992    8.3992    8.7019    8.7019
    8.9551    8.9551    8.9843    8.9843    9.0445    9.0445    9.3117    9.3117    9.6218    9.6218
    9.6861    9.6861    9.8099    9.8099    9.8644    9.8644    9.9484    9.9484    9.9502    9.9502
   10.1804   10.1804   10.4800   10.4800   10.6700   10.6700   10.9565   10.9565   11.0134   11.0134
   11.3070   11.3070   11.4446   11.4446   11.6343   11.6343   11.6995   11.6995   11.7303   11.7303
   11.9407   11.9407   12.3410   12.3410   12.3502   12.3502   12.4202   12.4202   12.6373   12.6373
   12.9548   12.9548   12.9597   12.9597   13.0600   13.0600   13.3044   13.3044   13.3981   13.3981
   13.4972   13.4972   13.7606   13.7606   14.5105   14.5105   14.6624   14.6624   14.7696   14.7696
   14.8368   14.8368   14.9652   14.9652   15.1542   15.1542   16.1113   16.1113   16.5621   16.5621
   16.8218   16.8218   16.9395   16.9395   17.0297   17.0297   17.1864   17.1864   17.4736   17.4736
   18.2580   18.2580   18.2609   18.2609   18.5972   18.5972   18.7669   18.7669   18.8663   18.8663
   18.9132   18.9132   19.5491   19.5491   19.9103   19.9103   20.0286   20.0286   20.2558   20.2558
   20.7493   20.7493   21.1104   21.1104   21.2129   21.2129   21.7020   21.7020   22.2876   22.2876
   22.3398   22.3398   22.8945   22.8945   23.0086   23.0086   23.2160   23.2160   23.8413   23.8413
   24.5948   24.5948   24.8336   24.8336   24.8726   24.8726   25.8267   25.8267   25.9399   25.9399
   26.1685   26.1685   26.5644   26.5644   26.6274   26.6274   27.7744   27.7744   28.0549   28.0549
   28.4555   28.4555   28.5305   28.5305   29.2849   29.2849   29.5220   29.5220   30.4971   30.4971
   30.8141   30.8141   30.8741   30.8741   30.9747   30.9747   31.4156   31.4156   31.6787   31.6787
   31.7855   31.7855   32.0715   32.0715   32.1926   32.1926   33.4083   33.4083   33.5161   33.5161
   33.7568   33.7568   34.0905   34.0905   34.5012   34.5012   34.9170   34.9170   34.9331   34.9331
   35.5161   35.5161   36.0268   36.0268   36.1851   36.1851   37.2111   37.2111   37.5722   37.5722
   37.6196   37.6196   37.8578   37.8578   38.1759   38.1759   38.4685   38.4685   38.5009   38.5009
   39.1545   39.1545   40.2850   40.2850   40.3241   40.3241   40.7751   40.7751   41.2538   41.2538
   41.7486   41.7486   41.8989   41.8989   41.9635   41.9635   43.3412   43.3412   43.5086   43.5086
   43.9495   43.9495   44.5976   44.5976   44.8829   44.8829   44.9928   44.9928   45.2126   45.2126
   45.6522   45.6522   45.7881   45.7881   46.0491   46.0491   46.6452   46.6452   47.0635   47.0635
   47.1317   47.1317   47.4700   47.4700   48.6670   48.6670   48.8353   48.8353   49.3891   49.3891
   49.7452   49.7452   50.2443   50.2443   50.3393   50.3393   50.3438   50.3438   50.4953   50.4953
   51.7659   51.7659   52.6776   52.6776   52.7969   52.7969   54.0028   54.0028   54.4043   54.4043
   54.8731   54.8731   54.9292   54.9292   56.0894   56.0894   56.1623   56.1623   56.2527   56.2527
   56.9801   56.9801   57.8052   57.8052   58.0228   58.0228   58.4340   58.4340   59.7184   59.7184
   60.1250   60.1250   61.2657   61.2657   61.7673   61.7673   62.8724   62.8724   63.4033   63.4033
   65.3226   65.3227   65.4781   65.4781   67.1034   67.1034   67.3205   67.3205   68.4567   68.4567
   68.4830   68.4830   70.6145   70.6145   72.0399   72.0399   76.5810   76.5810   88.6923   88.6923
   91.9220   91.9220   93.1074   93.1074   95.1329   95.1329   96.5028   96.5028  100.2177  100.2177
  100.7913  100.7913  102.6221  102.6221  114.3694  114.3694  118.3903  118.3903  123.3196  123.3196
  132.5074  132.5074  138.8616  138.8616
siesta: Fermi energy =      -3.837230 eV

siesta: Program's energy decomposition (eV):
siesta: Ebs     =     -1110.045135
siesta: Eions   =      3553.971015
siesta: Ena     =       374.984506
siesta: Ekin    =      2743.181889
siesta: Enl     =     -2522.835731
siesta: Eso     =        -0.004663
siesta: Edftu   =         0.000000
siesta: DEna    =        36.861252
siesta: DUscf   =        13.894913
siesta: DUext   =         0.000000
siesta: Exc     =     -1090.892538
siesta: eta*DQ  =         0.000000
siesta: Emadel  =         0.000000
siesta: Emeta   =         0.000000
siesta: Emolmec =         0.000000
siesta: Ekinion =         0.000000
siesta: Eharris =     -3998.781388
siesta: Etot    =     -3998.781388
siesta: FreeEng =     -3998.781389

siesta: Final energy (eV):
siesta:  Band Struct. =   -1110.045135
siesta:       Kinetic =    2743.181889
siesta:       Hartree =   12484.124080
siesta:       Edftu   =       0.000000
siesta:       Eso     =      -0.004663
siesta:    Ext. field =       0.000000
siesta:   Exch.-corr. =   -1090.892538
siesta:  Ion-electron =  -27405.709510
siesta:       Ion-ion =    9270.519355
siesta:       Ekinion =       0.000000
siesta:         Total =   -3998.781388
siesta:         Fermi =      -3.837230

siesta: Atomic forces (eV/Ang):
siesta:      1    0.143033   -0.027603   -0.000000
siesta:      2   -0.034387    0.043196    0.000000
siesta:      3   -0.030834   -0.017736    0.000000
siesta:      4    0.068502   -0.134441   -0.000000
siesta:      5    0.054037    0.005492   -0.000000
siesta:      6   -0.189705    0.018228    0.000000
siesta:      7    1.052373   -0.037516   -0.000001
siesta:      8   -0.643687    1.411474    0.000000
siesta:      9    0.165127   -1.002056   -0.000001
siesta:     10   -0.110468    0.134988    0.000001
siesta:     11   -0.185736   -0.368975    0.000001
siesta:     12   -0.279487    0.045284   -0.000000
siesta:     13   -0.122924   -0.050898    0.000000
siesta:     14    0.032150   -0.115185   -0.000000
siesta:     15    0.108391    0.094715    0.000000
siesta:     16   -0.076146   -0.145706   -0.000950
siesta:     17    0.039885   -0.083265   -0.000792
siesta:     18   -0.146957    0.038625    0.005201
siesta:     19    0.077913   -0.146273   -0.001425
siesta:     20    0.123213    0.078242   -0.001077
siesta:     21    0.058736   -0.026008   -0.006950
siesta:     22    0.078391    0.019772    0.117559
siesta:     23    0.129663    0.017231    0.003691
siesta:     24    0.075831    0.070130   -0.093714
siesta:     25   -0.637574   -0.399895    0.001045
siesta:     26   -0.797556   -4.573726    0.000510
siesta:     27    0.344152   -0.448804   -0.000555
siesta:     28   -0.218981    0.675553   -0.000073
siesta:     29    0.146460    0.163825   -0.000222
siesta:     30    1.501449    1.180066    0.000257
siesta: ----------------------------------------
siesta:    Tot    0.724864   -3.581268    0.022505

siesta: Stress tensor (static) (eV/Ang**3):
siesta:     0.000083    0.000076    0.000000
siesta:     0.000076    0.000156   -0.000004
siesta:     0.000000   -0.000004   -0.000009

siesta: Cell volume =      13500.000000 Ang**3

siesta: Pressure (static):
siesta:                Solid            Molecule  Units
siesta:          -0.00000084          0.00000007  Ry/Bohr**3
siesta:          -0.00007692          0.00000666  eV/Ang**3
siesta:          -0.12324086          0.01067266  kBar
(Free)E+ p_basis*V_orbitals  =       -3977.653304
(Free)Eharris+ p_basis*V_orbitals  =       -3977.653304
     spin moment: S , {S} =    0.00000  -0.00000   0.00000   0.00000

siesta: Electric dipole (a.u.)  =   -1.163213    1.572024   -0.001838
siesta: Electric dipole (Debye) =   -2.956594    3.995690   -0.004672

cite: Please see "AT.bib" for an exhaustive BiBTeX file.
cite: Please clearly indicate Siesta version in published work: v4.1.5-1-g384057250
cite: This calculation has made use of the following articles
cite: which are encouraged to be cited in a published work.
        Primary SIESTA paper
          DOI: www.doi.org/10.1088/0953-8984/14/11/302
        Spin-orbit coupling (on-site approximation)
          DOI: www.doi.org/10.1088/0953-8984/19/19/489001


WARNING: alloc-realloc-dealloc name mismatch
         Name: atomlist isa
         Size:              -120. Bytes
         Node:     0
         Subsequent mismatches will not be reported
>> End of run:   1-FEB-2024  20:25:13
Job completed
