<?xml version="1.0" encoding="UTF-8" ?>
<psml version="1.1" energy_unit="hartree" length_unit="bohr"
 uuid="116c4e70-10f4-11ef-7e2d-36edd717eb1b"
 xmlns="http://esl.cecam.org/PSML/ns/1.1">
<provenance creator="ATM4.2.7" date="13-MAY-24">
<annotation action="semilocal-pseudopotential-generation" />
<input-file name="INP">
<![CDATA[   pg Oxygen
        tm2      5.0
   N    vlr
      0.00
    1    4
    2    0      1.00      1.00
    2    1      1.50      1.50
    3    2      0.00      0.00
    4    3      0.00      0.00
      0.82      2.01      1.57      2.63      0.00      0.00
]]>
</input-file>
</provenance>
<pseudo-atom-spec atomic-label="N" atomic-number="7" z-pseudo="5"
 flavor="Troullier-Martins" relativity="dirac" spin-dft="no"
 core-corrections="no">
<annotation pseudo-energy="-9.64397206392" />
<exchange-correlation>
<annotation atom-xc-code="vl" siesta-xc-type="VDW" siesta-xc-authors="LMKLL" />
<libxc-info number-of-functionals="2">
<functional name="XC_GGA_X_OPTB88_VDW" type="XC_EXCHANGE" id="139" />
<functional name="XC_NOT_IMPL" type="XC_EXCHANGE_CORRELATION" id="-1" />
</libxc-info>
</exchange-correlation>
<valence-configuration total-valence-charge="5">
<shell n="2" l="s" occupation="2" />
<shell n="2" l="p" occupation="3" />
</valence-configuration>
</pseudo-atom-spec>
<grid npts="376">
<annotation type="sampled-log-atom"
 recipe="r(i:1..N) = a*(exp(b*(i-1))-1); resampled"
 recipe-cont="a: scale; b: step" scale="0.354107453809E-03"
 step="0.125000000000E-01" delta="0.500000000000E-02" rmax="20" />
<grid-data>
  0.000000000000E+00  5.048302436094E-03  1.012459783301E-02  1.527828389237E-02
  2.048528638279E-02  2.574353883944E-02  3.112566294380E-02  3.622016774735E-02
  4.161127830670E-02  4.719890450306E-02  5.220009842783E-02  5.772727250913E-02
  6.303836541492E-02  6.883511668267E-02  7.422386065491E-02  8.003230237576E-02
  8.521678038206E-02  9.073562849216E-02  9.661041172496E-02  1.028640859236E-01
  1.081561958640E-01  1.137196380832E-01  1.195683240846E-01  1.257168786297E-01
  1.321806763074E-01  1.372450950777E-01  1.425030354033E-01  1.479618921293E-01
  1.536293426726E-01  1.595133578194E-01  1.656222129359E-01  1.719644996063E-01
  1.785491377165E-01  1.853853879988E-01  1.924828650570E-01  1.998515508879E-01
  2.049197812585E-01  2.101163144918E-01  2.154443985901E-01  2.209073637796E-01
  2.265086245913E-01  2.322516819955E-01  2.381401255901E-01  2.441776358440E-01
  2.503679863977E-01  2.567150464216E-01  2.632227830351E-01  2.698952637853E-01
  2.767366591899E-01  2.837512453437E-01  2.909434065914E-01  2.983176382679E-01
  3.058785495081E-01  3.136308661276E-01  3.215794335766E-01  3.297292199687E-01
  3.380853191855E-01  3.466529540611E-01  3.554374796462E-01  3.644443865552E-01
  3.736793043981E-01  3.831480052993E-01  3.928564075051E-01  4.028105790827E-01
  4.078817665552E-01  4.130167417136E-01  4.182163069081E-01  4.234812745815E-01
  4.288124673957E-01  4.342107183603E-01  4.396768709631E-01  4.452117793014E-01
  4.508163082162E-01  4.564913334262E-01  4.622377416659E-01  4.680564308231E-01
  4.739483100800E-01  4.799143000545E-01  4.859553329449E-01  4.920723526747E-01
  4.982663150407E-01  5.045381878623E-01  5.108889511321E-01  5.173195971700E-01
  5.238311307775E-01  5.304245693949E-01  5.371009432605E-01  5.438612955711E-01
  5.507066826458E-01  5.576381740900E-01  5.646568529634E-01  5.717638159490E-01
  5.789601735240E-01  5.862470501341E-01  5.936255843685E-01  6.010969291382E-01
  6.086622518560E-01  6.163227346191E-01  6.240795743933E-01  6.319339832008E-01
  6.398871883088E-01  6.479404324218E-01  6.560949738757E-01  6.643520868341E-01
  6.727130614877E-01  6.811792042558E-01  6.897518379905E-01  6.984323021832E-01
  7.072219531741E-01  7.161221643640E-01  7.251343264291E-01  7.342598475379E-01
  7.435001535719E-01  7.528566883475E-01  7.623309138424E-01  7.719243104235E-01
  7.816383770786E-01  7.914746316505E-01  8.014346110738E-01  8.115198716156E-01
  8.217319891184E-01  8.320725592464E-01  8.425431977346E-01  8.531455406417E-01
  8.638812446052E-01  8.747519871008E-01  8.857594667040E-01  8.969054033561E-01
  9.081915386322E-01  9.196196360139E-01  9.311914811648E-01  9.429088822091E-01
  9.547736700147E-01  9.667876984787E-01  9.789528448175E-01  9.912710098601E-01
  1.003744118345E+00  1.016374119220E+00  1.029162985949E+00  1.042112716819E+00
  1.055225335251E+00  1.068502890118E+00  1.081947456066E+00  1.095561133835E+00
  1.109346050590E+00  1.123304360253E+00  1.137438243837E+00  1.151749909791E+00
  1.166241594342E+00  1.180915561844E+00  1.195774105136E+00  1.210819545894E+00
  1.226054235000E+00  1.241480552905E+00  1.257100910002E+00  1.272917747003E+00
  1.288933535322E+00  1.305150777459E+00  1.321572007390E+00  1.338199790966E+00
  1.355036726312E+00  1.372085444233E+00  1.389348608626E+00  1.406828916896E+00
  1.424529100377E+00  1.442451924758E+00  1.460600190516E+00  1.478976733356E+00
  1.497584424650E+00  1.516426171887E+00  1.535504919129E+00  1.554823647468E+00
  1.574385375495E+00  1.594193159770E+00  1.614250095300E+00  1.634559316022E+00
  1.655123995292E+00  1.675947346384E+00  1.697032622989E+00  1.718383119724E+00
  1.740002172647E+00  1.761893159779E+00  1.784059501633E+00  1.806504661743E+00
  1.829232147212E+00  1.852245509256E+00  1.875548343759E+00  1.899144291837E+00
  1.923037040404E+00  1.947230322751E+00  1.971727919127E+00  1.996533657333E+00
  2.021651413314E+00  2.047085111772E+00  2.072838726773E+00  2.098916282373E+00
  2.125321853242E+00  2.152059565305E+00  2.179133596383E+00  2.206548176849E+00
  2.234307590287E+00  2.262416174162E+00  2.290878320497E+00  2.319698476560E+00
  2.348881145560E+00  2.378430887348E+00  2.408352319130E+00  2.438650116193E+00
  2.469329012627E+00  2.500393802074E+00  2.531849338469E+00  2.563700536805E+00
  2.595952373895E+00  2.628609889155E+00  2.661678185389E+00  2.695162429584E+00
  2.729067853722E+00  2.763399755595E+00  2.798163499631E+00  2.833364517738E+00
  2.869008310144E+00  2.905100446267E+00  2.941646565574E+00  2.978652378472E+00
  3.016123667195E+00  3.054066286707E+00  3.092486165619E+00  3.131389307117E+00
  3.170781789895E+00  3.210669769109E+00  3.251059477336E+00  3.291957225551E+00
  3.333369404109E+00  3.375302483750E+00  3.417763016600E+00  3.460757637205E+00
  3.504293063562E+00  3.548376098169E+00  3.593013629092E+00  3.638212631033E+00
  3.683980166431E+00  3.730323386554E+00  3.777249532627E+00  3.824765936953E+00
  3.872880024069E+00  3.921599311898E+00  3.970931412928E+00  4.020884035400E+00
  4.071464984513E+00  4.122682163643E+00  4.174543575580E+00  4.227057323773E+00
  4.280231613603E+00  4.334074753661E+00  4.388595157047E+00  4.443801342684E+00
  4.499701936653E+00  4.556305673534E+00  4.613621397776E+00  4.671658065079E+00
  4.730424743788E+00  4.789930616318E+00  4.850184980582E+00  4.911197251446E+00
  4.972976962204E+00  5.035533766059E+00  5.098877437640E+00  5.163017874524E+00
  5.227965098786E+00  5.293729258561E+00  5.360320629632E+00  5.427749617038E+00
  5.496026756694E+00  5.565162717042E+00  5.635168300718E+00  5.706054446235E+00
  5.777832229699E+00  5.850512866533E+00  5.924107713236E+00  5.998628269152E+00
  6.074086178269E+00  6.150493231040E+00  6.227861366221E+00  6.306202672741E+00
  6.385529391589E+00  6.465853917726E+00  6.547188802022E+00  6.629546753219E+00
  6.712940639915E+00  6.797383492572E+00  6.882888505560E+00  6.969469039211E+00
  7.057138621908E+00  7.145910952202E+00  7.235799900952E+00  7.326819513487E+00
  7.418984011808E+00  7.512307796805E+00  7.606805450508E+00  7.702491738370E+00
  7.799381611567E+00  7.897490209338E+00  7.996832861352E+00  8.097425090101E+00
  8.199282613324E+00  8.302421346467E+00  8.406857405167E+00  8.512607107771E+00
  8.619686977884E+00  8.728113746954E+00  8.837904356884E+00  8.949075962682E+00
  9.061645935135E+00  9.175631863532E+00  9.291051558406E+00  9.407923054318E+00
  9.526264612678E+00  9.646094724596E+00  9.767432113769E+00  9.890295739412E+00
  1.001470479922E+01  1.014067873235E+01  1.026823722250E+01  1.039740020093E+01
  1.052818784963E+01  1.066062060443E+01  1.079471915822E+01  1.093050446417E+01
  1.106799773901E+01  1.120722046635E+01  1.134819440001E+01  1.149094156747E+01
  1.163548427326E+01  1.178184510246E+01  1.193004692427E+01  1.208011289550E+01
  1.223206646429E+01  1.238593137368E+01  1.254173166537E+01  1.269949168348E+01
  1.285923607834E+01  1.302098981032E+01  1.318477815378E+01  1.335062670099E+01
  1.351856136611E+01  1.368860838927E+01  1.386079434068E+01  1.403514612473E+01
  1.421169098425E+01  1.439045650473E+01  1.457147061865E+01  1.475476160982E+01
  1.494035811785E+01  1.512828914256E+01  1.531858404855E+01  1.551127256980E+01
  1.570638481428E+01  1.590395126867E+01  1.610400280313E+01  1.630657067612E+01
  1.651168653929E+01  1.671938244240E+01  1.692969083836E+01  1.714264458830E+01
  1.735827696665E+01  1.757662166643E+01  1.779771280443E+01  1.802158492660E+01
  1.824827301341E+01  1.847781248533E+01  1.871023920838E+01  1.894558949970E+01
  1.918390013325E+01  1.942520834556E+01  1.966955184153E+01  1.991696880031E+01
</grid-data>
</grid>
<valence-charge total-charge="5" is-unscreening-charge="yes"
 rescaled-to-z-pseudo="no">
<radfunc>
<data>
  1.090782561010E+00  1.091361432327E+00  1.093110603120E+00  1.096082723551E+00
  1.100308080232E+00  1.105819666629E+00  1.112753181819E+00  1.120516773748E+00
  1.129999384054E+00  1.141196790509E+00  1.152395269051E+00  1.166057031061E+00
  1.180448784675E+00  1.197560841914E+00  1.214773226817E+00  1.234722259630E+00
  1.253740978248E+00  1.275231267707E+00  1.299503873276E+00  1.326905709137E+00
  1.351338504736E+00  1.378238019498E+00  1.407840475556E+00  1.440401889902E+00
  1.476199081121E+00  1.505349188404E+00  1.536621051820E+00  1.570156068639E+00
  1.606102920832E+00  1.644617574565E+00  1.685863196282E+00  1.730009967318E+00
  1.777234776181E+00  1.827720764351E+00  1.881656697858E+00  1.939236132751E+00
  1.979743893058E+00  2.022017709361E+00  2.066116933932E+00  2.112100928595E+00
  2.160028782648E+00  2.209958991606E+00  2.261949092766E+00  2.316055253260E+00
  2.372331805865E+00  2.430830727434E+00  2.491601054346E+00  2.554688228919E+00
  2.620133370138E+00  2.687972461531E+00  2.758235448354E+00  2.830945235584E+00
  2.906116577484E+00  2.983754848747E+00  3.063854686385E+00  3.146398490756E+00
  3.231354773276E+00  3.318676337662E+00  3.408298280962E+00  3.500135800275E+00
  3.594081791204E+00  3.690004224743E+00  3.787743291006E+00  3.887108301161E+00
  3.937331683631E+00  3.987874343773E+00  4.038702232044E+00  4.089778699116E+00
  4.141064371726E+00  4.192517025697E+00  4.244091456556E+00  4.295739348289E+00
  4.347409140866E+00  4.399045897350E+00  4.450591171518E+00  4.501982877127E+00
  4.553155160133E+00  4.604038275415E+00  4.654558469761E+00  4.704637873158E+00
  4.754194400714E+00  4.803141667812E+00  4.851388921457E+00  4.898840991072E+00
  4.945398262369E+00  4.990956678262E+00  5.035407771119E+00  5.078638730984E+00
  5.120532514715E+00  5.160968001201E+00  5.199820198066E+00  5.236960505347E+00
  5.272257041666E+00  5.305575038310E+00  5.336777306350E+00  5.365724781504E+00
  5.392277150771E+00  5.416293563986E+00  5.437633432253E+00  5.456157313790E+00
  5.471727885904E+00  5.484210999756E+00  5.493476812118E+00  5.499400985568E+00
  5.501865945523E+00  5.500762179115E+00  5.495989557385E+00  5.487458658478E+00
  5.475092065687E+00  5.458825610336E+00  5.438609525717E+00  5.414409474728E+00
  5.386207410547E+00  5.354002226816E+00  5.317810151291E+00  5.277664835002E+00
  5.233617087473E+00  5.185734207577E+00  5.134098858983E+00  5.078807438896E+00
  5.019967950151E+00  4.957697851787E+00  4.892123049653E+00  4.823377883677E+00
  4.751604500300E+00  4.676952502080E+00  4.599578479819E+00  4.519645490631E+00
  4.437322501203E+00  4.352783785231E+00  4.266208284770E+00  4.177778946042E+00
  4.087682015261E+00  3.996106274361E+00  3.903242306592E+00  3.809281737995E+00
  3.714416437766E+00  3.618837743784E+00  3.522735669490E+00  3.426298122917E+00
  3.329710135179E+00  3.233153106723E+00  3.136804074439E+00  3.040835004235E+00
  2.945412129633E+00  2.850695342866E+00  2.756837614287E+00  2.663984461811E+00
  2.572273480349E+00  2.481833927024E+00  2.392786370598E+00  2.305242386504E+00
  2.219304314721E+00  2.135065103747E+00  2.052608203182E+00  1.972007530105E+00
  1.893327495568E+00  1.816623088323E+00  1.741940023161E+00  1.669314971182E+00
  1.598775821024E+00  1.530341977598E+00  1.464024714541E+00  1.399827553012E+00
  1.337746676777E+00  1.277771381865E+00  1.219884540990E+00  1.164063085550E+00
  1.110278508384E+00  1.058497369340E+00  1.008681810970E+00  9.607901023090E-01
  9.147771706966E-01  8.705951149765E-01  8.281937215473E-01  7.875209676740E-01
  7.485235153773E-01  7.111471931943E-01  6.753374596282E-01  6.410398577556E-01
  6.082004358391E-01  5.767661439982E-01  5.466852168632E-01  5.179075078193E-01
  4.903847676189E-01  4.640708625522E-01  4.389219209129E-01  4.148963963257E-01
  3.919550381016E-01  3.700607512168E-01  3.491782915141E-01  3.292739724946E-01
  3.103149952393E-01  2.922689736376E-01  2.751038441224E-01  2.587879073420E-01
  2.432898780578E-01  2.285789290618E-01  2.146247313330E-01  2.013974904578E-01
  1.888679801707E-01  1.770075723857E-01  1.657882632285E-01  1.551827003006E-01
  1.451642004860E-01  1.357067667808E-01  1.267851097431E-01  1.183746615779E-01
  1.104515844924E-01  1.029927760871E-01  9.597587204953E-02  8.937924696072E-02
  8.318201315325E-02  7.736401736383E-02  7.190583599726E-02  6.678876881528E-02
  6.199483110064E-02  5.750674442757E-02  5.330792616758E-02  4.938247771753E-02
  4.571517176307E-02  4.229143849927E-02  3.909735111673E-02  3.611961041430E-02
  3.334552869913E-02  3.076301340961E-02  2.836054988399E-02  2.612718505981E-02
  2.405250717513E-02  2.212663269555E-02  2.034018291526E-02  1.868426699540E-02
  1.715046673026E-02  1.573081898883E-02  1.441779757838E-02  1.320429557490E-02
  1.208360801231E-02  1.104941463704E-02  1.009576300033E-02  9.217051971773E-03
  8.408015612192E-03  7.663707452996E-03  6.979485156881E-03  6.350995591397E-03
  5.774160361587E-03  5.245161799707E-03  4.760429224697E-03  4.316626046362E-03
  3.910637094982E-03  3.539555938440E-03  3.200674072136E-03  2.891469971206E-03
  2.609597393234E-03  2.352874659181E-03  2.119274797537E-03  1.906916157017E-03
  1.714053233964E-03  1.539068427801E-03  1.380464001772E-03  1.236854038027E-03
  1.106956911609E-03  9.895885401126E-04  8.836558386411E-04  7.881504745122E-04
  7.021430513630E-04  6.247778439928E-04  5.552677637540E-04  4.928893451801E-04
  4.369781369399E-04  3.869247819770E-04  3.421711283009E-04  3.022062739721E-04
  2.665630931286E-04  2.348151923061E-04  2.065738034413E-04  1.814847529369E-04
  1.592259293230E-04  1.395047951894E-04  1.220559248831E-04  1.066388770088E-04
  9.303616257325E-05  8.105128141961E-05  7.050697669122E-05  6.124358051619E-05
  5.311746238978E-05  4.599961795444E-05  3.977434715387E-05  3.433802964805E-05
  2.959801398800E-05  2.547158940263E-05  2.188502903111E-05  1.877271031587E-05
  1.607631658887E-05  1.374411192121E-05  1.173027396973E-05  9.994284077996E-06
  8.500372078990E-06  7.217011798897E-06  6.116464883453E-06  5.174368672831E-06
  4.369363341203E-06  3.682755137230E-06  3.098213073781E-06  2.601496324490E-06
  2.180209675196E-06  1.823584553061E-06  1.522283329299E-06  1.268224757377E-06
  1.054428566919E-06  8.748773839730E-07  7.243942910322E-07  5.985344751735E-07
  4.934895401652E-07  4.060031780775E-07  3.332970086774E-07  2.730054994952E-07
  2.231189792662E-07  1.819338459026E-07  1.480091603274E-07  1.201288871018E-07
  9.726913477099E-08  7.856976469789E-08  6.330993109345E-08  5.088687906895E-08
  4.079790409225E-08  3.262460030029E-08  2.602008422962E-08  2.069566261986E-08
  1.641657227733E-08  1.298355239163E-08  1.023912351261E-08  8.053363312110E-09
  6.317501569983E-09  4.942562016807E-09  3.856404411701E-09  3.000692456382E-09
  2.328378025819E-09  1.801619293944E-09  1.390062525277E-09  1.069427851625E-09
  8.203484543101E-10  6.274204037068E-10  4.784271275521E-10  3.637082290556E-10
  2.756472811268E-10  2.082573957889E-10  1.568469069134E-10  1.177504969508E-10
  8.811362101632E-11  6.572020166113E-11  4.885534360545E-11  3.619630069416E-11
  2.672616167196E-11  1.966574537884E-11  1.442004264642E-11  1.053623987518E-11
  7.670932238176E-12  5.564603356880E-12  4.021830681787E-12  2.895986536571E-12
  2.077456368812E-12  1.484598705423E-12  1.056834430844E-12  7.493836183221E-13
  5.292723306569E-13  3.723145940419E-13  2.608402761732E-13  1.819912616413E-13
  1.264488852254E-13  8.748731085794E-14  6.027225570648E-14  4.134362657982E-14
  2.823544109076E-14  1.919779306045E-14  1.299434205040E-14  8.755456079997E-15
</data>
</radfunc>
</valence-charge>
<semilocal-potentials set="scalar_relativistic">
<slps n="2" l="s" rc="0.811519871616" flavor="Troullier-Martins">
<radfunc>
<data>
 -1.511842531879E+00 -2.174611751263E+00 -2.750380564980E+00 -3.458777760734E+00
 -3.941310990428E+00 -3.965898064277E+00 -3.601193067783E+00 -3.118263742808E+00
 -2.632076680403E+00 -2.220879391565E+00 -1.933907303224E+00 -1.688003849918E+00
 -1.503963931508E+00 -1.344974615050E+00 -1.225932313729E+00 -1.120807936864E+00
 -1.042736411813E+00 -9.724995078532E-01 -9.091582276775E-01 -8.520072394810E-01
 -8.106157395824E-01 -7.729865326756E-01 -7.390567554521E-01 -7.087668279887E-01
 -6.820609450426E-01 -6.643586019541E-01 -6.486379489161E-01 -6.348631039812E-01
 -6.231415079040E-01 -6.135577213153E-01 -6.062173788358E-01 -6.012518397830E-01
 -5.988229096182E-01 -5.991278412352E-01 -6.024044485857E-01 -6.089362288242E-01
 -6.152619947120E-01 -6.232944833321E-01 -6.331578900882E-01 -6.449886229277E-01
 -6.589358553302E-01 -6.751620241457E-01 -6.938432534621E-01 -7.151696810217E-01
 -7.393456583753E-01 -7.665897901429E-01 -7.971347714904E-01 -8.312269765078E-01
 -8.691257439592E-01 -9.111023017542E-01 -9.574382685528E-01 -1.008423672284E+00
 -1.064354433837E+00 -1.125529284240E+00 -1.192246121338E+00 -1.264797875732E+00
 -1.343468056380E+00 -1.428526296761E+00 -1.520224436322E+00 -1.618793959058E+00
 -1.724445969281E+00 -1.837375283859E+00 -1.957770577438E+00 -2.085832659415E+00
 -2.152811520807E+00 -2.221802586223E+00 -2.292848571429E+00 -2.365999963683E+00
 -2.441316555375E+00 -2.518868907358E+00 -2.598739616219E+00 -2.681024227262E+00
 -2.765831604051E+00 -2.853283540461E+00 -2.943513387633E+00 -3.036663472306E+00
 -3.132881110868E+00 -3.232313083297E+00 -3.335098505183E+00 -3.441360213586E+00
 -3.551194784469E+00 -3.664661245707E+00 -3.781770924196E+00 -3.902476002434E+00
 -4.026658626985E+00 -4.154123147809E+00 -4.284589869110E+00 -4.417691736069E+00
 -4.552974022952E+00 -4.689897059822E+00 -4.827841750422E+00 -4.966117424505E+00
 -5.103971423042E+00 -5.240599753990E+00 -5.375158182870E+00 -5.506773225542E+00
 -5.634552669335E+00 -5.757595436767E+00 -5.875000797487E+00 -5.985877106242E+00
 -6.089350381874E+00 -6.184573135120E+00 -6.270733897847E+00 -6.347067901502E+00
 -6.412869302407E+00 -6.467505334717E+00 -6.510432050330E+00 -6.541213405840E+00
 -6.559534098277E+00 -6.565239073060E+00 -6.558340004209E+00 -6.539041256655E+00
 -6.507763465297E+00 -6.465164610493E+00 -6.412160314073E+00 -6.349945021807E+00
 -6.280008111804E+00 -6.204172573338E+00 -6.124590002331E+00 -6.043822846271E+00
 -5.964352916130E+00 -5.886740960063E+00 -5.811080864499E+00 -5.737413046789E+00
 -5.665708287812E+00 -5.595926837571E+00 -5.527986081458E+00 -5.461779720717E+00
 -5.397180107244E+00 -5.334049749706E+00 -5.272224722221E+00 -5.211573298284E+00
 -5.151969282856E+00 -5.093264312027E+00 -5.035343952662E+00 -4.978103868695E+00
 -4.921455870353E+00 -4.865327574203E+00 -4.809661756919E+00 -4.754415376688E+00
 -4.699556811938E+00 -4.645068640693E+00 -4.590948853374E+00 -4.537183289069E+00
 -4.483762665363E+00 -4.430683682709E+00 -4.377947364466E+00 -4.325577412713E+00
 -4.273586710503E+00 -4.221991304983E+00 -4.170822737321E+00 -4.120094102627E+00
 -4.069823409930E+00 -4.020025766475E+00 -3.970715449131E+00 -3.921901927465E+00
 -3.873610048787E+00 -3.825839434267E+00 -3.778568975719E+00 -3.731779263097E+00
 -3.685486240634E+00 -3.639724154254E+00 -3.594499611956E+00 -3.549821272408E+00
 -3.505691253674E+00 -3.462110495137E+00 -3.419079366103E+00 -3.376590506003E+00
 -3.334655528076E+00 -3.293265090030E+00 -3.252359832776E+00 -3.211951448000E+00
 -3.172074872556E+00 -3.132725033949E+00 -3.093899424034E+00 -3.055589365458E+00
 -3.017787693039E+00 -2.980486922387E+00 -2.943672674266E+00 -2.907340092572E+00
 -2.871468932684E+00 -2.836039925406E+00 -2.801054054969E+00 -2.766501156600E+00
 -2.732364966176E+00 -2.698630873825E+00 -2.665283676659E+00 -2.632309625734E+00
 -2.599700952883E+00 -2.567450125141E+00 -2.535564944307E+00 -2.504052228949E+00
 -2.472918620624E+00 -2.442182433435E+00 -2.411830491736E+00 -2.381853543086E+00
 -2.352251800526E+00 -2.323017826339E+00 -2.294148743017E+00 -2.265639527415E+00
 -2.237485763122E+00 -2.209683079875E+00 -2.182226764082E+00 -2.155113659980E+00
 -2.128339016303E+00 -2.101897115542E+00 -2.075784611258E+00 -2.049997206325E+00
 -2.024530769209E+00 -1.999381217602E+00 -1.974544514915E+00 -1.950016524721E+00
 -1.925793423435E+00 -1.901871608479E+00 -1.878247148367E+00 -1.854916365603E+00
 -1.831875582913E+00 -1.809121194063E+00 -1.786649757667E+00 -1.764457824438E+00
 -1.742541626154E+00 -1.720897735446E+00 -1.699522685275E+00 -1.678413184501E+00
 -1.657565557340E+00 -1.636976672310E+00 -1.616643762903E+00 -1.596563439259E+00
 -1.576732639497E+00 -1.557148289559E+00 -1.537835351029E+00 -1.518755951729E+00
 -1.499908259632E+00 -1.481290433193E+00 -1.462900438437E+00 -1.444736162380E+00
 -1.426795346256E+00 -1.409075614136E+00 -1.391574638228E+00 -1.374290032328E+00
 -1.357219346958E+00 -1.340360125976E+00 -1.323709875912E+00 -1.307266109411E+00
 -1.291026364322E+00 -1.274988166723E+00 -1.259149065353E+00 -1.243506647007E+00
 -1.228058492842E+00 -1.212802199875E+00 -1.197735403832E+00 -1.182855759544E+00
 -1.168160949835E+00 -1.153648687753E+00 -1.139316711535E+00 -1.125162785978E+00
 -1.111184702169E+00 -1.097380277936E+00 -1.083747358131E+00 -1.070283813274E+00
 -1.056987539426E+00 -1.043856458569E+00 -1.030888518292E+00 -1.018081691679E+00
 -1.005433976897E+00 -9.929433968714E-01 -9.806079990908E-01 -9.684258553012E-01
 -9.563950612053E-01 -9.445137361832E-01 -9.327800229960E-01 -9.211920874881E-01
 -9.097481183006E-01 -8.984463265910E-01 -8.872849457510E-01 -8.762622311283E-01
 -8.653764597552E-01 -8.546259300783E-01 -8.440089616913E-01 -8.335238950726E-01
 -8.231690913253E-01 -8.129429319205E-01 -8.028438184444E-01 -7.928701723483E-01
 -7.830204347012E-01 -7.732930659464E-01 -7.636865456600E-01 -7.541993723133E-01
 -7.448300630383E-01 -7.355771533949E-01 -7.264391971424E-01 -7.174147660130E-01
 -7.085024494883E-01 -6.997008545788E-01 -6.910086056059E-01 -6.824243439867E-01
 -6.739467280213E-01 -6.655744326832E-01 -6.573061494120E-01 -6.491405859084E-01
 -6.410764659322E-01 -6.331125291030E-01 -6.252475307023E-01 -6.174802414798E-01
 -6.098094474600E-01 -6.022339497534E-01 -5.947525643681E-01 -5.873641220251E-01
 -5.800674679752E-01 -5.728614618187E-01 -5.657449773266E-01 -5.587169022646E-01
 -5.517761382194E-01 -5.449216004265E-01 -5.381522176009E-01 -5.314669317693E-01
 -5.248646981048E-01 -5.183444847635E-01 -5.119052727228E-01 -5.055460556225E-01
 -4.992658396073E-01 -4.930636431711E-01 -4.869384970037E-01 -4.808894438392E-01
 -4.749155383065E-01 -4.690158467811E-01 -4.631894472393E-01 -4.574354291139E-01
 -4.517528931521E-01 -4.461409512746E-01 -4.405987264366E-01 -4.351253524911E-01
 -4.297199740532E-01 -4.243817463663E-01 -4.191098351700E-01 -4.139034165700E-01
 -4.087616769086E-01 -4.036838126382E-01 -3.986690301951E-01 -3.937165458759E-01
 -3.888255857145E-01 -3.839953853614E-01 -3.792251899639E-01 -3.745142540485E-01
 -3.698618414039E-01 -3.652672249663E-01 -3.607296867053E-01 -3.562485175120E-01
 -3.518230170879E-01 -3.474524938355E-01 -3.431362647502E-01 -3.388736553135E-01
 -3.346639993875E-01 -3.305066391106E-01 -3.264009247952E-01 -3.223462148254E-01
 -3.183418755572E-01 -3.143872812193E-01 -3.104818138152E-01 -3.066248630267E-01
 -3.028158261183E-01 -2.990541078431E-01 -2.953391203500E-01 -2.916702830912E-01
 -2.880470227319E-01 -2.844687730606E-01 -2.809349749005E-01 -2.774450760222E-01
 -2.739985310570E-01 -2.705948014122E-01 -2.672333551867E-01 -2.639136670875E-01
 -2.606352183482E-01 -2.573974966473E-01 -2.541999960286E-01 -2.510422168217E-01
</data>
</radfunc>
</slps>
<slps n="2" l="p" rc="1.99653365733" flavor="Troullier-Martins">
<radfunc>
<data>
 -1.106783383780E+01 -1.173060298563E+01 -1.230637071235E+01 -1.301476305904E+01
 -1.349728288364E+01 -1.352184096911E+01 -1.315708098426E+01 -1.267406555390E+01
 -1.218773808415E+01 -1.177632498242E+01 -1.148908274222E+01 -1.124277592639E+01
 -1.105822308247E+01 -1.089850591431E+01 -1.077860165942E+01 -1.067231460438E+01
 -1.059297019286E+01 -1.052110082395E+01 -1.045566658747E+01 -1.039583320062E+01
 -1.035176217177E+01 -1.031086699024E+01 -1.027295766092E+01 -1.023782033063E+01
 -1.020521213405E+01 -1.018225615583E+01 -1.016044922273E+01 -1.013962542240E+01
 -1.011974235593E+01 -1.010071204906E+01 -1.008244163587E+01 -1.006483431436E+01
 -1.004778990608E+01 -1.003120518796E+01 -1.001497378989E+01 -9.998985520267E+00
 -9.988405047472E+00 -9.977845640563E+00 -9.967269641402E+00 -9.956637151070E+00
 -9.945905491211E+00 -9.935028567007E+00 -9.923956120331E+00 -9.912632859702E+00
 -9.900997451653E+00 -9.888981356261E+00 -9.876507488172E+00 -9.863488683721E+00
 -9.849825955324E+00 -9.835406517200E+00 -9.820101572908E+00 -9.803763867461E+00
 -9.786225027829E+00 -9.767292750171E+00 -9.746747946141E+00 -9.724342042849E+00
 -9.699794752020E+00 -9.672792796742E+00 -9.642990321871E+00 -9.610012026279E+00
 -9.573460438524E+00 -9.532929181089E+00 -9.488024447039E+00 -9.438397071727E+00
 -9.411726206071E+00 -9.383787214951E+00 -9.354571093809E+00 -9.324082315644E+00
 -9.292341166990E+00 -9.259386071592E+00 -9.225275777122E+00 -9.190091247307E+00
 -9.153937070348E+00 -9.116942168904E+00 -9.079259582544E+00 -9.041065096668E+00
 -9.002554518668E+00 -8.963939460589E+00 -8.925441560116E+00 -8.887285247541E+00
 -8.849689166461E+00 -8.812856300023E+00 -8.776965226675E+00 -8.742160063508E+00
 -8.708540919373E+00 -8.676157413266E+00 -8.645003611611E+00 -8.615015777904E+00
 -8.586072965229E+00 -8.558000449409E+00 -8.530575711272E+00 -8.503536462229E+00
 -8.476590057432E+00 -8.449423574650E+00 -8.421713858161E+00 -8.393136924576E+00
 -8.363376280685E+00 -8.332129886088E+00 -8.299115679310E+00 -8.264075753113E+00
 -8.226779396905E+00 -8.187025312171E+00 -8.144643347180E+00 -8.099496088072E+00
 -8.051480588987E+00 -8.000530502724E+00 -7.946618147102E+00 -7.889758137317E+00
 -7.830002849234E+00 -7.767462491025E+00 -7.702289924963E+00 -7.634682574616E+00
 -7.564879355862E+00 -7.493152286885E+00 -7.419794240680E+00 -7.345104200621E+00
 -7.269363699347E+00 -7.192831664173E+00 -7.115690926455E+00 -7.038076771630E+00
 -6.960085658180E+00 -6.881757129252E+00 -6.803169955975E+00 -6.724356088435E+00
 -6.645285016498E+00 -6.565913941503E+00 -6.486162062786E+00 -6.405930755888E+00
 -6.325107318239E+00 -6.243572925896E+00 -6.161217741987E+00 -6.077933566669E+00
 -5.993621874449E+00 -5.908216944233E+00 -5.821670559825E+00 -5.733960644815E+00
 -5.645092125274E+00 -5.555096198169E+00 -5.464029572794E+00 -5.371973273414E+00
 -5.279030553153E+00 -5.185324842836E+00 -5.090997609658E+00 -4.996205461503E+00
 -4.901121603295E+00 -4.805920081030E+00 -4.710787829491E+00 -4.615938843845E+00
 -4.521587104042E+00 -4.427955248134E+00 -4.335256940357E+00 -4.243705014968E+00
 -4.153517104039E+00 -4.064906847381E+00 -3.978084342572E+00 -3.893254470296E+00
 -3.810615455386E+00 -3.730357951733E+00 -3.652663844520E+00 -3.577686227765E+00
 -3.505602122770E+00 -3.436594766140E+00 -3.370796938397E+00 -3.308334261687E+00
 -3.249311561774E+00 -3.193801356852E+00 -3.141854737415E+00 -3.093496821039E+00
 -3.048725400121E+00 -3.007506101304E+00 -2.969753965717E+00 -2.935400271053E+00
 -2.904353030098E+00 -2.876439744572E+00 -2.851445969794E+00 -2.829107249225E+00
 -2.809115126460E+00 -2.791113847481E+00 -2.774700412135E+00 -2.759435701631E+00
 -2.744821870000E+00 -2.730371545548E+00 -2.715602498511E+00 -2.699993094832E+00
 -2.683036723414E+00 -2.664268745538E+00 -2.643302510784E+00 -2.619876121231E+00
 -2.593906503684E+00 -2.565550849860E+00 -2.535302755998E+00 -2.504052309984E+00
 -2.472918620624E+00 -2.442182433435E+00 -2.411830491736E+00 -2.381853543086E+00
 -2.352251800526E+00 -2.323017826339E+00 -2.294148743017E+00 -2.265639527415E+00
 -2.237485763122E+00 -2.209683079875E+00 -2.182226764082E+00 -2.155113659980E+00
 -2.128339016303E+00 -2.101897115542E+00 -2.075784611258E+00 -2.049997206325E+00
 -2.024530769209E+00 -1.999381217602E+00 -1.974544514915E+00 -1.950016524721E+00
 -1.925793423435E+00 -1.901871608479E+00 -1.878247148367E+00 -1.854916365603E+00
 -1.831875582913E+00 -1.809121194063E+00 -1.786649757667E+00 -1.764457824438E+00
 -1.742541626154E+00 -1.720897735446E+00 -1.699522685275E+00 -1.678413184501E+00
 -1.657565557340E+00 -1.636976672310E+00 -1.616643762903E+00 -1.596563439259E+00
 -1.576732639497E+00 -1.557148289559E+00 -1.537835351029E+00 -1.518755951729E+00
 -1.499908259632E+00 -1.481290433193E+00 -1.462900438437E+00 -1.444736162380E+00
 -1.426795346256E+00 -1.409075614136E+00 -1.391574638228E+00 -1.374290032328E+00
 -1.357219346958E+00 -1.340360125976E+00 -1.323709875912E+00 -1.307266109411E+00
 -1.291026364322E+00 -1.274988166723E+00 -1.259149065353E+00 -1.243506647007E+00
 -1.228058492842E+00 -1.212802199875E+00 -1.197735403832E+00 -1.182855759544E+00
 -1.168160949835E+00 -1.153648687753E+00 -1.139316711535E+00 -1.125162785978E+00