Siesta Version  : v4.1.5-1-g384057250
Architecture    : gcc
Compiler version: GNU Fortran (Debian 10.2.1-6) 10.2.1 20210110
Compiler flags  : mpifort -O2 -fPIC -ftree-vectorize -fallow-argument-mismatch
PP flags        : -DFC_HAVE_ABORT -DMPI -DSIESTA__FLOOK -DSIESTA__METIS -DSIESTA__MUMPS -DCDF -DNCDF -DNCDF_4 -DNCDF_PARALLEL -DSIESTA__MRRR -DSIESTA__ELPA
Libraries       : libncdf.a libfdict.a  -lflookall -ldl -lnetcdff -lnetcdf -lhdf5_hl -lhdf5 -lhdf5_fortran -lz -lscalapack-openmpi -lopenblas -lmetis -lzmumps -lcmumps -ldmumps -lmumps_common -lpord -lsmumps -lesmumps -lscotch -lscotcherr -fopenmp -lelpa
PARALLEL version
NetCDF support
NetCDF-4 support
NetCDF-4 MPI-IO support
METIS ordering support
Lua support

* Running on 6 nodes in parallel
>> Start of run:  22-MAY-2023   9:41:01

                           ***********************       
                           *  WELCOME TO SIESTA  *       
                           ***********************       

reinit: Reading from standard input
reinit: Dumped input in INPUT_TMP.64396
************************** Dump of input data file ****************************
SystemLabel      AT
NumberOfAtoms    30
NumberOfSpecies  4
%block ChemicalSpeciesLabel
    1    1  H
    2    7  N
    3   14  Si
    4    8  O
%endblock ChemicalSpeciesLabel
# Single point calculation
MD.TypeOfRun                CG
MD.Steps                    0
SCF.MustConverge            F # In case it does not. There can be 2 very close atoms
AtomicCoordinatesFormat NotScaledCartesianAng
%block AtomicCoordinatesAndAtomicSpecies
2.582377650    -5.776830440   0.000000000       1
1.654759240    -5.269361980   0.000000000       2
0.063128840    -6.101704590   0.000000000       3
0.119223240    -7.596849500   0.000000000       1
-1.376892050   -5.182603740   0.000000000       2
-0.824371900   -3.460866440   0.000000000       3
-1.170571480   -1.270002100   0.000000000       3
-2.706933680   -0.417515780   0.000000000       2
-2.754569660   0.634858620    0.000000000       1
-3.637675640   -0.909967860   0.000000000       1
0.218091790    -0.234193970   0.000000000       2
1.872004100    -0.697162300   0.000000000       3
2.828001130    0.461464770    0.000000000       1
2.648150080    -2.255024470   0.000000000       2
1.391921380    -3.454727220   0.000000000       3
1.900438064    4.683493962    0.000000000       2
0.573066544    5.893698262    0.000000000       3
1.213067814    7.255016502    0.000000000       1
-1.512679396   5.223166912    0.000000000       3
-3.542241996   6.353283102    0.000000000       3
-3.388006226   7.513513312    0.940305280       1
-4.528176716   5.331362482    0.512613700       1
-3.958456956   6.829508952    -1.366678340      1
-1.446183976   2.949190292    0.000000000       3
-2.485232706   1.756130792    0.000000000       4
0.210807604    2.315215102    0.000000000       2
0.192790234    1.252770272    0.000000000       1
1.834410674    2.912285312    0.000000000       3
3.029426844    1.897860112    0.000000000       4
2.900475434    5.029001062    0.000000000       1
%endblock AtomicCoordinatesAndAtomicSpecies
%include ../../../Defaults.fdf
************************** End of input data file *****************************

reinit: -----------------------------------------------------------------------
reinit: System Name: 
reinit: -----------------------------------------------------------------------
reinit: System Label: AT
reinit: -----------------------------------------------------------------------

initatom: Reading input for the pseudopotentials and atomic orbitals ----------
Species number:   1 Atomic number:    1 Label: H
Species number:   2 Atomic number:    7 Label: N
Species number:   3 Atomic number:   14 Label: Si
Species number:   4 Atomic number:    8 Label: O

Ground state valence configuration:   1s01
Reading pseudopotential information in formatted form from H.psf

Pseudopotential generated from a relativistic atomic calculation

Valence configuration for pseudopotential generation:
1s( 1.00) rc: 0.01
2p( 0.00) rc: 0.60
3d( 0.00) rc: 1.99
4f( 0.00) rc: 2.49
Ground state valence configuration:   2s02  2p03
Reading pseudopotential information in formatted form from N.psf

Pseudopotential generated from a relativistic atomic calculation

Valence configuration for pseudopotential generation:
2s( 2.00) rc: 0.94
2p( 3.00) rc: 0.59
3d( 0.00) rc: 3.46
4f( 0.00) rc: 2.47
Ground state valence configuration:   3s02  3p02
Reading pseudopotential information in formatted form from Si.psf

Pseudopotential generated from a relativistic atomic calculation

Valence configuration for pseudopotential generation:
3s( 2.00) rc: 1.67
3p( 2.00) rc: 2.04
3d( 0.00) rc: 2.89
4f( 0.00) rc: 2.49
Ground state valence configuration:   2s02  2p04
Reading pseudopotential information in formatted form from O.psf

Pseudopotential generated from a relativistic atomic calculation

Valence configuration for pseudopotential generation:
2s( 2.00) rc: 0.45
2p( 4.00) rc: 0.92
3d( 0.00) rc: 2.24
4f( 0.00) rc: 0.25
For H, standard SIESTA heuristics set lmxkb to 2
 (one more than the basis l, including polarization orbitals).
Use PS.lmax or PS.KBprojectors blocks to override.
For N, standard SIESTA heuristics set lmxkb to 3
 (one more than the basis l, including polarization orbitals).
Use PS.lmax or PS.KBprojectors blocks to override.
For Si, standard SIESTA heuristics set lmxkb to 3
 (one more than the basis l, including polarization orbitals).
Use PS.lmax or PS.KBprojectors blocks to override.
For O, standard SIESTA heuristics set lmxkb to 3
 (one more than the basis l, including polarization orbitals).
Use PS.lmax or PS.KBprojectors blocks to override.

<basis_specs>
===============================================================================
H                    Z=   1    Mass=  1.0100        Charge= 0.17977+309
Lmxo=0 Lmxkb= 2    BasisType=split      Semic=F
L=0  Nsemic=0  Cnfigmx=1
          i=1  nzeta=2  polorb=1  (1s)
            splnorm:   0.62000    
               vcte:    0.0000    
               rinn:    0.0000    
               qcoe:    0.0000    
               qyuk:    0.0000    
               qwid:   0.10000E-01
                rcs:    0.0000      0.0000    
            lambdas:    1.0000      1.0000    
-------------------------------------------------------------------------------
L=0  Nkbl=1  erefs: 0.17977+309
L=1  Nkbl=1  erefs: 0.17977+309
L=2  Nkbl=1  erefs: 0.17977+309
===============================================================================
</basis_specs>

atom: Called for H                     (Z =   1)

read_vps: Pseudopotential generation method:
read_vps: ATM4.2.7  Troullier-Martins                       
Valence charge for ps generation:    1.00000

xc_check: Exchange-correlation functional:
xc_check: GGA Perdew, Burke & Ernzerhof 1996
V l=0 = -2*Zval/r beyond r=  0.0098
V l=1 = -2*Zval/r beyond r=  0.5817
V l=2 = -2*Zval/r beyond r=  1.9372
All V_l potentials equal beyond r=  1.9372
This should be close to max(r_c) in ps generation
All pots = -2*Zval/r beyond r=  1.9372

VLOCAL1: 99.0% of the norm of Vloc inside     11.567 Ry
VLOCAL1: 99.9% of the norm of Vloc inside     26.362 Ry
atom: Maximum radius for 4*pi*r*r*local-pseudopot. charge    2.25106
atom: Maximum radius for r*vlocal+2*Zval:    1.91306
GHOST: No ghost state for L =  0
GHOST: No ghost state for L =  1
GHOST: No ghost state for L =  2

KBgen: Kleinman-Bylander projectors: 
   l= 0   rc=  2.036604   el= -0.477180   Ekb= -6.081590   kbcos= -0.277285
   l= 1   rc=  2.195416   el=  0.001076   Ekb= -0.926943   kbcos= -0.034643
   l= 2   rc=  2.251056   el=  0.002010   Ekb= -0.130941   kbcos= -0.009788

KBgen: Total number of Kleinman-Bylander projectors:    9
atom: -------------------------------------------------------------------------

atom: SANKEY-TYPE ORBITALS:
atom: Selected multiple-zeta basis: split     

SPLIT: Orbitals with angular momentum L= 0

SPLIT: Basis orbitals for state 1s

SPLIT: PAO cut-off radius determined from an
SPLIT: energy shift=  0.002000 Ry

   izeta = 1
                 lambda =    1.000000
                     rc =    6.518340
                 energy =   -0.475305
                kinetic =    0.912139
    potential(screened) =   -1.387444
       potential(ionic) =   -1.907295

   izeta = 2
                 rmatch =    2.141150
              splitnorm =    0.620000
                 energy =    0.566467
                kinetic =    3.772856
    potential(screened) =   -3.206389
       potential(ionic) =   -3.759093

POLgen: Perturbative polarization orbital with L=  1

POLgen: Polarization orbital for state 1s

   izeta = 1
                     rc =    6.518340
                 energy =    0.533861
                kinetic =    1.121086
    potential(screened) =   -0.587225
       potential(ionic) =   -1.053027
atom: Total number of Sankey-type orbitals:  5

atm_pop: Valence configuration (for local Pseudopot. screening):
 1s( 1.00)                                                            
Vna: chval, zval:    1.00000   1.00000

Vna:  Cut-off radius for the neutral-atom potential:   6.518340

atom: _________________________________________________________________________

<basis_specs>
===============================================================================
N                    Z=   7    Mass=  14.010        Charge= 0.17977+309
Lmxo=1 Lmxkb= 3    BasisType=split      Semic=F
L=0  Nsemic=0  Cnfigmx=2
          i=1  nzeta=2  polorb=0  (2s)
            splnorm:   0.28000    
               vcte:    0.0000    
               rinn:    0.0000    
               qcoe:    0.0000    
               qyuk:    0.0000    
               qwid:   0.10000E-01
                rcs:    0.0000      0.0000    
            lambdas:    1.0000      1.0000    
L=1  Nsemic=0  Cnfigmx=2
          i=1  nzeta=2  polorb=1  (2p)
            splnorm:   0.28000    
               vcte:    0.0000    
               rinn:    0.0000    
               qcoe:    0.0000    
               qyuk:    0.0000    
               qwid:   0.10000E-01
                rcs:    0.0000      0.0000    
            lambdas:    1.0000      1.0000    
-------------------------------------------------------------------------------
L=0  Nkbl=1  erefs: 0.17977+309
L=1  Nkbl=1  erefs: 0.17977+309
L=2  Nkbl=1  erefs: 0.17977+309
L=3  Nkbl=1  erefs: 0.17977+309
===============================================================================
</basis_specs>

atom: Called for N                     (Z =   7)

read_vps: Pseudopotential generation method:
read_vps: ATM4.2.7  Troullier-Martins                       
Valence charge for ps generation:    5.00000

xc_check: Exchange-correlation functional:
xc_check: GGA Perdew, Burke & Ernzerhof 1996
V l=0 = -2*Zval/r beyond r=  1.2889
V l=1 = -2*Zval/r beyond r=  1.2889
V l=2 = -2*Zval/r beyond r=  3.4178
V l=3 = -2*Zval/r beyond r=  2.4084
All V_l potentials equal beyond r=  3.3753
This should be close to max(r_c) in ps generation
All pots = -2*Zval/r beyond r=  3.4178

VLOCAL1: 99.0% of the norm of Vloc inside      3.810 Ry
VLOCAL1: 99.9% of the norm of Vloc inside      8.683 Ry
atom: Maximum radius for 4*pi*r*r*local-pseudopot. charge    4.02088
atom: Maximum radius for r*vlocal+2*Zval:    3.54838
GHOST: No ghost state for L =  0
GHOST: No ghost state for L =  1
GHOST: No ghost state for L =  2
GHOST: No ghost state for L =  3

KBgen: Kleinman-Bylander projectors: 
   l= 0   rc=  3.417763   el= -1.365098   Ekb= -4.433130   kbcos= -0.707855
   l= 1   rc=  3.375302   el= -0.521201   Ekb=-13.264039   kbcos= -0.535594
   l= 2   rc=  3.872880   el=  0.001991   Ekb= -0.641094   kbcos= -0.062456
   l= 3   rc=  3.970931   el=  0.003093   Ekb= -0.474517   kbcos= -0.018236

KBgen: Total number of Kleinman-Bylander projectors:   16
atom: -------------------------------------------------------------------------

atom: SANKEY-TYPE ORBITALS:
atom: Selected multiple-zeta basis: split     

SPLIT: Orbitals with angular momentum L= 0

SPLIT: Basis orbitals for state 2s

SPLIT: PAO cut-off radius determined from an
SPLIT: energy shift=  0.002000 Ry

   izeta = 1
                 lambda =    1.000000
                     rc =    4.730425
                 energy =   -1.363399
                kinetic =    1.245246
    potential(screened) =   -2.608645
       potential(ionic) =   -8.121105

   izeta = 2
                 rmatch =    2.531849
              splitnorm =    0.280000
                 energy =   -0.959908
                kinetic =    2.409435
    potential(screened) =   -3.369343
       potential(ionic) =   -9.427975

SPLIT: Orbitals with angular momentum L= 1

SPLIT: Basis orbitals for state 2p

SPLIT: PAO cut-off radius determined from an
SPLIT: energy shift=  0.002000 Ry

   izeta = 1
                 lambda =    1.000000
                     rc =    5.924108
                 energy =   -0.519262
                kinetic =    3.672940
    potential(screened) =   -4.192202
       potential(ionic) =   -9.518354

   izeta = 2
                 rmatch =    2.531849
              splitnorm =    0.280000
                 energy =   -0.104258
                kinetic =    6.807538
    potential(screened) =   -6.911796
       potential(ionic) =  -13.149920

POLgen: Perturbative polarization orbital with L=  2

POLgen: Polarization orbital for state 2p

   izeta = 1
                     rc =    5.924108
                 energy =    1.427508
                kinetic =    2.872379
    potential(screened) =   -1.444871
       potential(ionic) =   -5.563644
atom: Total number of Sankey-type orbitals: 13

atm_pop: Valence configuration (for local Pseudopot. screening):
 2s( 2.00)                                                            
 2p( 3.00)                                                            
Vna: chval, zval:    5.00000   5.00000

Vna:  Cut-off radius for the neutral-atom potential:   5.924108

atom: _________________________________________________________________________

<basis_specs>
===============================================================================
Si                   Z=  14    Mass=  28.090        Charge= 0.17977+309
Lmxo=1 Lmxkb= 3    BasisType=split      Semic=F
L=0  Nsemic=0  Cnfigmx=3
          i=1  nzeta=2  polorb=0  (3s)
            splnorm:   0.28000    
               vcte:    0.0000    
               rinn:    0.0000    
               qcoe:    0.0000    
               qyuk:    0.0000    
               qwid:   0.10000E-01
                rcs:    0.0000      0.0000    
            lambdas:    1.0000      1.0000    
L=1  Nsemic=0  Cnfigmx=3
          i=1  nzeta=2  polorb=1  (3p)
            splnorm:   0.28000    
               vcte:    0.0000    
               rinn:    0.0000    
               qcoe:    0.0000    
               qyuk:    0.0000    
               qwid:   0.10000E-01
                rcs:    0.0000      0.0000    
            lambdas:    1.0000      1.0000    
-------------------------------------------------------------------------------
L=0  Nkbl=1  erefs: 0.17977+309
L=1  Nkbl=1  erefs: 0.17977+309
L=2  Nkbl=1  erefs: 0.17977+309
L=3  Nkbl=1  erefs: 0.17977+309
===============================================================================
</basis_specs>

atom: Called for Si                    (Z =  14)

read_vps: Pseudopotential generation method:
read_vps: ATM4.2.7  Troullier-Martins                       
Valence charge for ps generation:    4.00000

xc_check: Exchange-correlation functional:
xc_check: GGA Perdew, Burke & Ernzerhof 1996
V l=0 = -2*Zval/r beyond r=  2.7826
V l=1 = -2*Zval/r beyond r=  2.7826
V l=2 = -2*Zval/r beyond r=  2.9253
V l=3 = -2*Zval/r beyond r=  2.7826
All V_l potentials equal beyond r=  2.8530
This should be close to max(r_c) in ps generation
All pots = -2*Zval/r beyond r=  2.9253

VLOCAL1: 99.0% of the norm of Vloc inside      5.333 Ry
VLOCAL1: 99.9% of the norm of Vloc inside     12.154 Ry
atom: Maximum radius for 4*pi*r*r*local-pseudopot. charge    3.39869
atom: Maximum radius for r*vlocal+2*Zval:    2.96205
GHOST: No ghost state for L =  0
GHOST: No ghost state for L =  1
GHOST: No ghost state for L =  2
GHOST: No ghost state for L =  3

KBgen: Kleinman-Bylander projectors: 
   l= 0   rc=  3.075247   el= -0.794092   Ekb=  5.879390   kbcos=  0.167461
   l= 1   rc=  3.153101   el= -0.300068   Ekb=  2.642817   kbcos=  0.058301
   l= 2   rc=  3.273594   el=  0.001958   Ekb= -1.185135   kbcos= -0.104411
   l= 3   rc=  3.232927   el=  0.003046   Ekb= -0.497174   kbcos= -0.015889

KBgen: Total number of Kleinman-Bylander projectors:   16
atom: -------------------------------------------------------------------------

atom: SANKEY-TYPE ORBITALS:
atom: Selected multiple-zeta basis: split     

SPLIT: Orbitals with angular momentum L= 0

SPLIT: Basis orbitals for state 3s

SPLIT: PAO cut-off radius determined from an
SPLIT: energy shift=  0.002000 Ry

   izeta = 1
                 lambda =    1.000000
                     rc =    6.429618
                 energy =   -0.792283
                kinetic =    0.525293
    potential(screened) =   -1.317576
       potential(ionic) =   -3.744923

   izeta = 2
                 rmatch =    3.998416
              splitnorm =    0.280000
                 energy =   -0.583081
                kinetic =    1.069570
    potential(screened) =   -1.652651
       potential(ionic) =   -4.235185

SPLIT: Orbitals with angular momentum L= 1

SPLIT: Basis orbitals for state 3p

SPLIT: PAO cut-off radius determined from an
SPLIT: energy shift=  0.002000 Ry

   izeta = 1
                 lambda =    1.000000
                     rc =    8.464845
                 energy =   -0.298236
                kinetic =    0.785360
    potential(screened) =   -1.083596
       potential(ionic) =   -3.273779

   izeta = 2
                 rmatch =    4.587816
              splitnorm =    0.280000
                 energy =   -0.131871
                kinetic =    1.403687
    potential(screened) =   -1.535557
       potential(ionic) =   -4.015310

POLgen: Perturbative polarization orbital with L=  2

POLgen: Polarization orbital for state 3p

   izeta = 1
                     rc =    8.464845
                 energy =    0.321949
                kinetic =    1.055677
    potential(screened) =   -0.733728
       potential(ionic) =   -2.672950
atom: Total number of Sankey-type orbitals: 13

atm_pop: Valence configuration (for local Pseudopot. screening):
 3s( 2.00)                                                            
 3p( 2.00)                                                            
Vna: chval, zval:    4.00000   4.00000

Vna:  Cut-off radius for the neutral-atom potential:   8.464845

atom: _________________________________________________________________________

<basis_specs>
===============================================================================
O                    Z=   8    Mass=  16.000        Charge= 0.17977+309
Lmxo=1 Lmxkb= 3    BasisType=split      Semic=F
L=0  Nsemic=0  Cnfigmx=2
          i=1  nzeta=2  polorb=0  (2s)
            splnorm:   0.28000    
               vcte:    0.0000    
               rinn:    0.0000    
               qcoe:    0.0000    
               qyuk:    0.0000    
               qwid:   0.10000E-01
                rcs:    0.0000      0.0000    
            lambdas:    1.0000      1.0000    
L=1  Nsemic=0  Cnfigmx=2
          i=1  nzeta=2  polorb=1  (2p)
            splnorm:   0.28000    
               vcte:    0.0000    
               rinn:    0.0000    
               qcoe:    0.0000    
               qyuk:    0.0000    
               qwid:   0.10000E-01
                rcs:    0.0000      0.0000    
            lambdas:    1.0000      1.0000    
-------------------------------------------------------------------------------
L=0  Nkbl=1  erefs: 0.17977+309
L=1  Nkbl=1  erefs: 0.17977+309
L=2  Nkbl=1  erefs: 0.17977+309
L=3  Nkbl=1  erefs: 0.17977+309
===============================================================================
</basis_specs>

atom: Called for O                     (Z =   8)

read_vps: Pseudopotential generation method:
read_vps: ATM4.2.7  Troullier-Martins                       
Valence charge for ps generation:    6.00000

xc_check: Exchange-correlation functional:
xc_check: GGA Perdew, Burke & Ernzerhof 1996
V l=0 = -2*Zval/r beyond r=  1.1000
V l=1 = -2*Zval/r beyond r=  1.1000
V l=2 = -2*Zval/r beyond r=  2.2154
V l=3 = -2*Zval/r beyond r=  1.1000
All V_l potentials equal beyond r=  2.2154
This should be close to max(r_c) in ps generation
All pots = -2*Zval/r beyond r=  2.2154

VLOCAL1: 99.0% of the norm of Vloc inside      8.845 Ry
VLOCAL1: 99.9% of the norm of Vloc inside     20.157 Ry
atom: Maximum radius for 4*pi*r*r*local-pseudopot. charge    2.67231
atom: Maximum radius for r*vlocal+2*Zval:    2.32897
GHOST: No ghost state for L =  0
GHOST: No ghost state for L =  1
GHOST: No ghost state for L =  2
GHOST: No ghost state for L =  3

KBgen: Kleinman-Bylander projectors: 
   l= 0   rc=  2.243238   el= -1.759686   Ekb=**********   kbcos= -0.171774
   l= 1   rc=  2.328968   el= -0.663873   Ekb=-14.506792   kbcos= -0.519897
   l= 2   rc=  2.573941   el=  0.002031   Ekb= -1.137373   kbcos= -0.019581
   l= 3   rc=  2.606321   el=  0.003153   Ekb= -1.013546   kbcos= -0.003122

KBgen: Total number of Kleinman-Bylander projectors:   16
atom: -------------------------------------------------------------------------

atom: SANKEY-TYPE ORBITALS:
atom: Selected multiple-zeta basis: split     

SPLIT: Orbitals with angular momentum L= 0

SPLIT: Basis orbitals for state 2s

SPLIT: PAO cut-off radius determined from an
SPLIT: energy shift=  0.002000 Ry

   izeta = 1
                 lambda =    1.000000
                     rc =    4.243912
                 energy =   -1.758270
                kinetic =    3.286084
    potential(screened) =   -5.044353
       potential(ionic) =  -12.921184

   izeta = 2
                 rmatch =    2.187845
              splitnorm =    0.280000
                 energy =   -0.885018
                kinetic =    8.134434
    potential(screened) =   -9.019452
       potential(ionic) =  -17.710645

SPLIT: Orbitals with angular momentum L= 1

SPLIT: Basis orbitals for state 2p

SPLIT: PAO cut-off radius determined from an
SPLIT: energy shift=  0.002000 Ry

   izeta = 1
                 lambda =    1.000000
                     rc =    5.314825
                 energy =   -0.661986
                kinetic =    4.917472
    potential(screened) =   -5.579458
       potential(ionic) =  -13.236259

   izeta = 2
                 rmatch =    2.160663
              splitnorm =    0.280000
                 energy =   -0.068760
                kinetic =    9.183374
    potential(screened) =   -9.252135
       potential(ionic) =  -18.274251

POLgen: Perturbative polarization orbital with L=  2

POLgen: Polarization orbital for state 2p

   izeta = 1
                     rc =    5.314825
                 energy =    1.970580
                kinetic =    3.886128
    potential(screened) =   -1.915547
       potential(ionic) =   -7.749584
atom: Total number of Sankey-type orbitals: 13

atm_pop: Valence configuration (for local Pseudopot. screening):
 2s( 2.00)                                                            
 2p( 4.00)                                                            
Vna: chval, zval:    6.00000   6.00000

Vna:  Cut-off radius for the neutral-atom potential:   5.314825

atom: _________________________________________________________________________

prinput: Basis input ----------------------------------------------------------

PAO.BasisType split     

%block ChemicalSpeciesLabel
    1    1 H                       # Species index, atomic number, species label
    2    7 N                       # Species index, atomic number, species label
    3   14 Si                      # Species index, atomic number, species label
    4    8 O                       # Species index, atomic number, species label
%endblock ChemicalSpeciesLabel

%block PAO.Basis                 # Define Basis set
H                     1                    # Species label, number of l-shells
 n=1   0   2 P   1                   # n, l, Nzeta, Polarization, NzetaPol
   6.518      2.141   
   1.000      1.000   
N                     2                    # Species label, number of l-shells
 n=2   0   2                         # n, l, Nzeta 
   4.730      2.532   
   1.000      1.000   
 n=2   1   2 P   1                   # n, l, Nzeta, Polarization, NzetaPol
   5.924      2.532   
   1.000      1.000   
Si                    2                    # Species label, number of l-shells
 n=3   0   2                         # n, l, Nzeta 
   6.430      3.998   
   1.000      1.000   
 n=3   1   2 P   1                   # n, l, Nzeta, Polarization, NzetaPol
   8.465      4.588   
   1.000      1.000   
O                     2                    # Species label, number of l-shells
 n=2   0   2                         # n, l, Nzeta 
   4.244      2.188   
   1.000      1.000   
 n=2   1   2 P   1                   # n, l, Nzeta, Polarization, NzetaPol
   5.315      2.161   
   1.000      1.000   
%endblock PAO.Basis

prinput: ----------------------------------------------------------------------

Dumping basis to NetCDF file H.ion.nc
Dumping basis to NetCDF file N.ion.nc
Dumping basis to NetCDF file Si.ion.nc
Dumping basis to NetCDF file O.ion.nc
coor:   Atomic-coordinates input format  =     Cartesian coordinates
coor:                                          (in Angstroms)

siesta: Atomic coordinates (Bohr) and species
siesta:      4.87999 -10.91663   0.00000  1        1
siesta:      3.12704  -9.95765   0.00000  2        2
siesta:      0.11930 -11.53056   0.00000  3        3
siesta:      0.22530 -14.35597   0.00000  1        4
siesta:     -2.60195  -9.79371   0.00000  2        5
siesta:     -1.55784  -6.54009   0.00000  3        6
siesta:     -2.21206  -2.39996   0.00000  3        7
siesta:     -5.11537  -0.78899   0.00000  2        8
siesta:     -5.20538   1.19971   0.00000  1        9
siesta:     -6.87421  -1.71959   0.00000  1       10
siesta:      0.41213  -0.44256   0.00000  2       11
siesta:      3.53758  -1.31745   0.00000  3       12
siesta:      5.34415   0.87204   0.00000  1       13
siesta:      5.00428  -4.26138   0.00000  2       14
siesta:      2.63035  -6.52849   0.00000  3       15
siesta:      3.59131   8.85052   0.00000  2       16
siesta:      1.08294  11.13748   0.00000  3       17
siesta:      2.29237  13.71000   0.00000  1       18
siesta:     -2.85855   9.87036   0.00000  3       19
siesta:     -6.69387  12.00597   0.00000  3       20
siesta:     -6.40241  14.19849   1.77692  1       21
siesta:     -8.55702  10.07482   0.96870  1       22
siesta:     -7.48040  12.90591  -2.58265  1       23
siesta:     -2.73289   5.57316   0.00000  3       24
siesta:     -4.69641   3.31861   0.00000  4       25
siesta:      0.39837   4.37512   0.00000  2       26
siesta:      0.36432   2.36739   0.00000  1       27
siesta:      3.46654   5.50342   0.00000  3       28
siesta:      5.72479   3.58644   0.00000  4       29
siesta:      5.48111   9.50344   0.00000  1       30

siesta: Automatic unit cell vectors (Ang):
siesta:   15.810354    0.000000    0.000000
siesta:    0.000000   24.209982    0.000000
siesta:    0.000000    0.000000   10.224979

siesta: System type = molecule  

initatomlists: Number of atoms, orbitals, and projectors:     30   302   403

siesta: ******************** Simulation parameters ****************************
siesta:
siesta: The following are some of the parameters of the simulation.
siesta: A complete list of the parameters used, including default values,
siesta: can be found in file out.fdf
siesta:
redata: Spin configuration                          = spin-orbit
redata: Number of spin components                   = 8
redata: Time-Reversal Symmetry                      = F
redata: Spin spiral                                 = F
############################################################
This spin-orbit implementation uses a local approximation.
From 4.2 and onwards the full non-local approximation is implemented
You are strongly advised to use >=4.2 versions!
############################################################
redata: Long output                                 =   F
redata: Number of Atomic Species                    =        4
redata: Charge density info will appear in .RHO file
redata: Write Mulliken Pop.                         = Atomic and Orbital charges
redata: Matel table size (NRTAB)                    =     1024
redata: Mesh Cutoff                                 =   340.0000 Ry
redata: Net charge of the system                    =     0.0000 |e|
redata: Min. number of SCF Iter                     =        1
redata: Max. number of SCF Iter                     =      200
redata: SCF mix quantity                            = Hamiltonian
redata: Mix DM or H after convergence               =   F
redata: Recompute H after scf cycle                 =   F
redata: Mix DM in first SCF step                    =   T
redata: Write Pulay info on disk                    =   F
redata: New DM Occupancy tolerance                  = 0.000000000001
redata: No kicks to SCF
redata: DM Mixing Weight for Kicks                  =     0.5000
redata: Require Harris convergence for SCF          =   F
redata: Harris energy tolerance for SCF             =     0.000100 eV
redata: Require DM convergence for SCF              =   T
redata: DM tolerance for SCF                        =     0.000008
redata: Require EDM convergence for SCF             =   F
redata: EDM tolerance for SCF                       =     0.001000 eV
redata: Require H convergence for SCF               =   T
redata: Hamiltonian tolerance for SCF               =     0.000001 eV
redata: Require (free) Energy convergence for SCF   =   F
redata: (free) Energy tolerance for SCF             =     0.000100 eV
redata: Using Saved Data (generic)                  =   F
redata: Use continuation files for DM               =   F
redata: Neglect nonoverlap interactions             =   F
redata: Method of Calculation                       = Diagonalization
redata: Electronic Temperature                      =   299.9978 K
redata: Fix the spin of the system                  =   F
redata: Dynamics option                             = Single-point calculation
mix.SCF: Pulay mixing                            = Pulay
mix.SCF:    Variant                              = stable
mix.SCF:    History steps                        = 6
mix.SCF:    Linear mixing weight                 =     0.250000
mix.SCF:    Mixing weight                        =     0.250000
mix.SCF:    SVD condition                        = 0.1000E-07
mix.SCF:    Restart steps                        = 24
mix.SCF:    Restart save steps                   = 3
mix.SCF: Spin-component mixing                   all
redata: Save all siesta data in one NC              =   F
redata: ***********************************************************************

%block SCF.Mixers
  Pulay
%endblock SCF.Mixers

%block SCF.Mixer.Pulay
  # Mixing method
  method pulay
  variant stable

  # Mixing options
  weight 0.2500
  weight.linear 0.2500
  history 6
  restart 24
  restart.save 3
%endblock SCF.Mixer.Pulay

DM_history_depth set to one: no extrapolation allowed by default for geometry relaxation
Size of DM history Fstack: 1
Total number of electrons:    98.000000
Total ionic charge:    98.000000

* ProcessorY, Blocksize:    2  24


* Orbital distribution balance (max,min):    62    48


Time-reversal symmetry not used.

siesta: k-grid: Number of k-points =     1
siesta: k-grid: Cutoff (effective) =     5.112 Ang
siesta: k-grid: Supercell and displacements
siesta: k-grid:    1   0   0      0.000
siesta: k-grid:    0   1   0      0.000
siesta: k-grid:    0   0   1      0.000

diag: Algorithm                                     = ELPA-1stage
diag: Parallel over k                               =   F
diag: Use parallel 2D distribution                  =   T
diag: Parallel block-size                           = 24
diag: Parallel distribution                         =     2 x     3
diag: Used triangular part                          = Lower
diag: Absolute tolerance                            =  0.100E-15
diag: Orthogonalization factor                      =  0.100E-05
diag: Memory factor                                 =  1.0000


ts: **************************************************************
ts: Save H and S matrices                           =    F
ts: Save DM and EDM matrices                        =    F
ts: Only save the overlap matrix S                  =    F
ts: **************************************************************

************************ Begin: TS CHECKS AND WARNINGS ************************
************************ End: TS CHECKS AND WARNINGS **************************


                     ====================================
                        Single-point calculation
                     ====================================

outcoor: Atomic coordinates (Ang):                          
    2.58237765   -5.77683044    0.00000000   1       1  H
    1.65475924   -5.26936198    0.00000000   2       2  N
    0.06312884   -6.10170459    0.00000000   3       3  Si
    0.11922324   -7.59684950    0.00000000   1       4  H
   -1.37689205   -5.18260374    0.00000000   2       5  N
   -0.82437190   -3.46086644    0.00000000   3       6  Si
   -1.17057148   -1.27000210    0.00000000   3       7  Si
   -2.70693368   -0.41751578    0.00000000   2       8  N
   -2.75456966    0.63485862    0.00000000   1       9  H
   -3.63767564   -0.90996786    0.00000000   1      10  H
    0.21809179   -0.23419397    0.00000000   2      11  N
    1.87200410   -0.69716230    0.00000000   3      12  Si
    2.82800113    0.46146477    0.00000000   1      13  H
    2.64815008   -2.25502447    0.00000000   2      14  N
    1.39192138   -3.45472722    0.00000000   3      15  Si
    1.90043806    4.68349396    0.00000000   2      16  N
    0.57306654    5.89369826    0.00000000   3      17  Si
    1.21306781    7.25501650    0.00000000   1      18  H
   -1.51267940    5.22316691    0.00000000   3      19  Si
   -3.54224200    6.35328310    0.00000000   3      20  Si
   -3.38800623    7.51351331    0.94030528   1      21  H
   -4.52817672    5.33136248    0.51261370   1      22  H
   -3.95845696    6.82950895   -1.36667834   1      23  H
   -1.44618398    2.94919029    0.00000000   3      24  Si
   -2.48523271    1.75613079    0.00000000   4      25  O
    0.21080760    2.31521510    0.00000000   2      26  N
    0.19279023    1.25277027    0.00000000   1      27  H
    1.83441067    2.91228531    0.00000000   3      28  Si
    3.02942684    1.89786011    0.00000000   4      29  O
    2.90047543    5.02900106    0.00000000   1      30  H

outcell: Unit cell vectors (Ang):
       15.810354    0.000000    0.000000
        0.000000   24.209982    0.000000
        0.000000    0.000000   10.224979

outcell: Cell vector modules (Ang)   :   15.810354   24.209982   10.224979
outcell: Cell angles (23,13,12) (deg):     90.0000     90.0000     90.0000
outcell: Cell volume (Ang**3)        :   3913.7988
<dSpData1D:S at geom step 0
  <sparsity:sparsity for geom step 0
    nrows_g=302 nrows=62 sparsity=.1618 nnzs=14757, refcount: 8>
  <dData1D:(new from dSpData1D) n=14757, refcount: 1>
refcount: 1>
new_DM -- step:     1
Initializing Density Matrix...
DM filled with atomic data:
<dSpData2D:DM initialized from atoms
  <sparsity:sparsity for geom step 0
    nrows_g=302 nrows=62 sparsity=.1618 nnzs=14757, refcount: 9>
  <dData2D:DM n=14757 m=8, refcount: 1>
refcount: 1>
     spin moment: S , {S} =   56.00000   0.00000   0.00000  56.00000
No. of atoms with KB's overlaping orbs in proc 0. Max # of overlaps:      24     215

Initializing spin-orbit part of the Hamiltonian
  Adding spin-orbit effects for H 
  Adding spin-orbit effects for N 
  Adding spin-orbit effects for Si
  Adding spin-orbit effects for O 


New grid distribution:   1
           1       1:   90    1:   68    1:   20
           2       1:   90    1:   68   21:   40
           3       1:   90    1:   68   41:   60
           4       1:   90   69:  135    1:   20
           5       1:   90   69:  135   21:   40
           6       1:   90   69:  135   41:   60

InitMesh: MESH =   180 x   270 x   120 =     5832000
InitMesh: (bp) =    90 x   135 x    60 =      729000
InitMesh: Mesh cutoff (required, used) =   340.000   343.748 Ry
ExtMesh (bp) on 0 =   194 x   168 x   128 =     4171776
New grid distribution:   2
           1      14:   90    1:   16    1:   60
           2       1:   12   37:  135    1:   60
           3       1:   13    1:   36    1:   60
           4      13:   90   37:  116    1:   60
           5      14:   90   17:   36    1:   60
           6      13:   90  117:  135    1:   60
New grid distribution:   3
           1      24:   90    1:   26    1:   60
           2      24:   90   27:   49    1:   60
           3       1:   23    1:   49    1:   60
           4      19:   90   50:  110    1:   60
           5      19:   90  111:  135    1:   60
           6       1:   18   50:  135    1:   60
Setting up quadratic distribution...
ExtMesh (bp) on 0 =   181 x   116 x   168 =     3527328
PhiOnMesh: Number of (b)points on node 0 =                73920
PhiOnMesh: nlist on node 0 =              1446261

stepf: Fermi-Dirac step function

siesta: Program's energy decomposition (eV):
siesta: Ebs     =      -599.417778
siesta: Eions   =      3553.971015
siesta: Ena     =       379.544681
siesta: Ekin    =      3197.786866
siesta: Enl     =     -3010.401247
siesta: Eso     =        -0.004043
siesta: Edftu   =         0.000000
siesta: DEna    =       132.232981
siesta: DUscf   =        75.386924
siesta: DUext   =         0.000000
siesta: Exc     =     -1175.623725
siesta: eta*DQ  =         0.000000
siesta: Emadel  =         0.000000
siesta: Emeta   =         0.000000
siesta: Emolmec =         0.000000
siesta: Ekinion =         0.000000
siesta: Eharris =     -3874.346193
siesta: Etot    =     -3955.048577
siesta: FreeEng =     -3955.053890

        iscf     Eharris(eV)        E_KS(eV)     FreeEng(eV)     dDmax    Ef(eV) dHmax(eV)
   scf:    1    -3874.346193    -3955.048577    -3955.053890  0.961127 -4.959314 22.063174
     spin moment: S , {S} =    2.04259   0.00004   0.00000   2.04259
timer: Routine,Calls,Time,% = IterSCF        1       5.333  20.12
   scf:    2    -4000.725472    -3989.887431    -3989.887500  0.446902 -4.342771  9.793122
     spin moment: S , {S} =    2.00039  -0.00000   0.00002   2.00039
   scf:    3    -3992.063722    -3994.261245    -3994.262426  0.415256 -4.136588  7.419179
     spin moment: S , {S} =    0.00698   0.00001  -0.00000   0.00698
   scf:    4    -3996.861302    -3995.697979    -3995.698173  0.022744 -3.810632  5.523440
     spin moment: S , {S} =    0.00096   0.00001  -0.00000   0.00096
   scf:    5    -3990.323328    -3994.748195    -3994.774911  0.384793 -3.785213  4.303906
     spin moment: S , {S} =    1.57584   0.00002   0.00006   1.57584
   scf:    6    -3995.940765    -3996.749605    -3996.749627  0.366775 -3.761308  2.321354
     spin moment: S , {S} =    0.00011   0.00000  -0.00000   0.00011
   scf:    7    -3997.274444    -3997.010304    -3997.010353  0.023396 -3.814847  1.316237
     spin moment: S , {S} =    0.00020   0.00000  -0.00000   0.00020
   scf:    8    -3997.231113    -3997.125560    -3997.126222  0.015331 -3.864306  0.629093
     spin moment: S , {S} =    0.00290   0.00000  -0.00000   0.00290
   scf:    9    -3997.179902    -3997.160887    -3997.164329  0.016296 -3.889707  0.154739
     spin moment: S , {S} =    0.01348   0.00000   0.00000   0.01348
   scf:   10    -3997.168515    -3997.165601    -3997.170459  0.008098 -3.897353  0.278407
     spin moment: S , {S} =    0.00829   0.00000   0.00000   0.00829
   scf:   11    -3997.186559    -3997.178095    -3997.181098  0.008260 -3.895978  0.083864
     spin moment: S , {S} =    0.00089   0.00000   0.00000   0.00089
   scf:   12    -3997.185704    -3997.181685    -3997.184481  0.004210 -3.896301  0.047893
     spin moment: S , {S} =    0.00094   0.00000   0.00000  -0.00094
   scf:   13    -3997.186877    -3997.183977    -3997.186581  0.005188 -3.896148  0.049195
     spin moment: S , {S} =    0.00175   0.00000   0.00000  -0.00175
   scf:   14    -3997.185039    -3997.184452    -3997.187086  0.002676 -3.894963  0.033711
     spin moment: S , {S} =    0.00101   0.00000   0.00000  -0.00101
   scf:   15    -3997.184657    -3997.184546    -3997.187301  0.001964 -3.894069  0.014338
     spin moment: S , {S} =    0.00052   0.00000   0.00000  -0.00052
   scf:   16    -3997.184710    -3997.184610    -3997.187387  0.001823 -3.893568  0.010862
     spin moment: S , {S} =    0.00052   0.00000   0.00000  -0.00052
   scf:   17    -3997.184706    -3997.184657    -3997.187404  0.000592 -3.893617  0.005077
     spin moment: S , {S} =    0.00045   0.00000   0.00000  -0.00045
   scf:   18    -3997.184680    -3997.184668    -3997.187412  0.000485 -3.893628  0.004009
     spin moment: S , {S} =    0.00026   0.00000   0.00000  -0.00026
   scf:   19    -3997.184685    -3997.184676    -3997.187418  0.000437 -3.893703  0.002235
     spin moment: S , {S} =    0.00005   0.00000   0.00000  -0.00005
   scf:   20    -3997.184676    -3997.184676    -3997.187419  0.000252 -3.893749  0.001182
     spin moment: S , {S} =    0.00004   0.00000   0.00000   0.00004
   scf:   21    -3997.184674    -3997.184675    -3997.187419  0.000087 -3.893769  0.000847
     spin moment: S , {S} =    0.00004   0.00000   0.00000   0.00004
   scf:   22    -3997.184675    -3997.184675    -3997.187420  0.000148 -3.893785  0.000212
     spin moment: S , {S} =    0.00001   0.00000   0.00000  -0.00001
   scf:   23    -3997.184675    -3997.184675    -3997.187420  0.000047 -3.893786  0.000133
     spin moment: S , {S} =    0.00001  -0.00000  -0.00000  -0.00001
   scf:   24    -3997.184675    -3997.184675    -3997.187420  0.000004 -3.893782  0.000088
     spin moment: S , {S} =    0.00001  -0.00000  -0.00000  -0.00001
mix: Pulay -- resetting history
   scf:   25    -3997.184676    -3997.184675    -3997.187420  0.000009 -3.893776  0.000062
     spin moment: S , {S} =    0.00000  -0.00000  -0.00000  -0.00000
   scf:   26    -3997.184675    -3997.184675    -3997.187420  0.000002 -3.893773  0.000036
     spin moment: S , {S} =    0.00000   0.00000   0.00000   0.00000
   scf:   27    -3997.184675    -3997.184675    -3997.187420  0.000002 -3.893772  0.000027
     spin moment: S , {S} =    0.00000   0.00000   0.00000   0.00000
   scf:   28    -3997.184675    -3997.184675    -3997.187420  0.000002 -3.893772  0.000017
     spin moment: S , {S} =    0.00000   0.00000   0.00000   0.00000
   scf:   29    -3997.184675    -3997.184675    -3997.187420  0.000001 -3.893772  0.000013
     spin moment: S , {S} =    0.00000   0.00000   0.00000   0.00000
   scf:   30    -3997.184675    -3997.184675    -3997.187420  0.000002 -3.893773  0.000007
     spin moment: S , {S} =    0.00000   0.00000   0.00000   0.00000
   scf:   31    -3997.184675    -3997.184675    -3997.187420  0.000001 -3.893773  0.000005
     spin moment: S , {S} =    0.00000   0.00000   0.00000   0.00000
   scf:   32    -3997.184675    -3997.184675    -3997.187420  0.000001 -3.893773  0.000005
     spin moment: S , {S} =    0.00000   0.00000   0.00000   0.00000
   scf:   33    -3997.184675    -3997.184675    -3997.187420  0.000001 -3.893773  0.000004
     spin moment: S , {S} =    0.00000   0.00000   0.00000   0.00000
   scf:   34    -3997.184675    -3997.184675    -3997.187420  0.000001 -3.893773  0.000003
     spin moment: S , {S} =    0.00000   0.00000   0.00000   0.00000
   scf:   35    -3997.184675    -3997.184675    -3997.187420  0.000000 -3.893773  0.000002
     spin moment: S , {S} =    0.00000   0.00000   0.00000   0.00000
   scf:   36    -3997.184675    -3997.184675    -3997.187420  0.000001 -3.893773  0.000001
     spin moment: S , {S} =    0.00000  -0.00000   0.00000   0.00000
   scf:   37    -3997.184675    -3997.184675    -3997.187420  0.000000 -3.893773  0.000001
     spin moment: S , {S} =    0.00000  -0.00000   0.00000   0.00000
   scf:   38    -3997.184675    -3997.184675    -3997.187420  0.000000 -3.893773  0.000001
     spin moment: S , {S} =    0.00000   0.00000   0.00000   0.00000

SCF Convergence by DM+H criterion
max |DM_out - DM_in|         :     0.0000003088
max |H_out - H_in|      (eV) :     0.0000005676
SCF cycle converged after 38 iterations

Using DM_out to compute the final energy and forces
No. of atoms with KB's overlaping orbs in proc 0. Max # of overlaps:      24     215

siesta: E_KS(eV) =            -3997.1847

siesta: E_KS - E_eggbox =     -3997.1847
     spin moment: S , {S} =    0.00000   0.00000   0.00000   0.00000

siesta: Atomic forces (eV/Ang):
     1   -0.010513    0.023425    0.000015
     2   -0.055868   -0.135635   -0.000129
     3    0.084854    0.060059   -0.000145
     4   -0.047272   -0.056690    0.000094
     5   -0.043550   -0.011415   -0.000003
     6    0.207462   -0.050469    0.000373
     7   -1.756657    0.093795    0.000371
     8    0.146679   -5.800831   -0.001689
     9   -0.273741   -0.167768    0.001270
    10    0.122583   -0.470901    0.000147
    11   -0.097975   -1.184650   -0.000497
    12    0.823339   -1.269002   -0.000714
    13   -0.171709   -0.719136   -0.000134
    14   -0.296410   -0.554717    0.000620
    15    0.176200   -0.027630   -0.000226
    16    0.304252   -0.096267    0.006993
    17    0.040244    0.007513   -0.035179
    18    0.004795    0.115975    0.006653
    19   -0.232855   -0.144554   -0.043482
    20    0.080985   -0.016949    0.016403
    21   -0.147557    0.181090    0.075662
    22   -0.032055    0.043098    0.029687
    23    0.054124   -0.088122   -0.030838
    24    1.314173    0.787722   -0.026471
    25    3.498292    7.579587    0.004682
    26    0.007912    3.415386    0.008354
    27   -0.319666   -2.134134    0.002856
    28   -1.358972    0.770745   -0.000703
    29    1.814554   -2.307813   -0.001102
    30    0.009605    0.069437    0.006606
----------------------------------------
   Tot    3.845253   -2.088850    0.019474
----------------------------------------
   Max    7.579587
   Res    1.254183    sqrt( Sum f_i^2 / 3N )
----------------------------------------
   Max    7.579587    constrained

Stress tensor Voigt[x,y,z,yz,xz,xy] (kbar):       -2.16      -12.11       -0.22       -0.05        0.06       -1.04
(Free)E + p*V (eV/cell)    -3985.3891
Target enthalpy (eV/cell)    -3997.1874

mulliken: Atomic and Orbital Populations:

Species: H                   

Atom      Orb        Charge      Spin       Svec
----------------------------------------------------------------
    1  1 1s         0.51226   0.00000     -0.000  -0.000   0.000
    1  2 1s         0.18738   0.00000      0.000   0.000  -0.000
    1  3 2Ppy       0.02838   0.00000     -0.000  -0.000   0.000
    1  4 2Ppz       0.04021   0.00000      0.000   0.000   0.000
    1  5 2Ppx       0.02523   0.00000      0.000  -0.000  -0.000
    1     Total     0.79345   0.00000     -0.000  -0.000   0.000

    4  1 1s         1.02451   0.00000      0.000  -0.000   0.000
    4  2 1s         0.09515   0.00000     -0.000   0.000  -0.000
    4  3 2Ppy       0.03893   0.00000      0.000  -0.000  -0.000
    4  4 2Ppz       0.01993   0.00000     -0.000  -0.000  -0.000
    4  5 2Ppx       0.01361   0.00000      0.000   0.000  -0.000
    4     Total     1.19214   0.00000      0.000  -0.000   0.000

    9  1 1s         0.34439   0.00000     -0.000   0.000   0.000
    9  2 1s         0.23090   0.00000      0.000  -0.000  -0.000
    9  3 2Ppy       0.16550   0.00000     -0.000  -0.000  -0.000
    9  4 2Ppz       0.07411   0.00000     -0.000  -0.000   0.000
    9  5 2Ppx       0.04846   0.00000     -0.000   0.000   0.000
    9     Total     0.86336   0.00000     -0.000  -0.000   0.000

   10  1 1s         0.52136   0.00000     -0.000  -0.000   0.000
   10  2 1s         0.18936   0.00000      0.000  -0.000   0.000
   10  3 2Ppy       0.01811   0.00000     -0.000   0.000   0.000
   10  4 2Ppz       0.05384   0.00000     -0.000   0.000  -0.000
   10  5 2Ppx       0.03174   0.00000     -0.000  -0.000   0.000
   10     Total     0.81440   0.00000     -0.000   0.000   0.000

   13  1 1s         0.80203   0.00000      0.000  -0.000   0.000
   13  2 1s         0.12490   0.00000     -0.000   0.000  -0.000
   13  3 2Ppy       0.10054   0.00000     -0.000  -0.000  -0.000
   13  4 2Ppz       0.02708   0.00000      0.000  -0.000   0.000
   13  5 2Ppx       0.04268   0.00000     -0.000   0.000   0.000
   13     Total     1.09723   0.00000      0.000  -0.000   0.000

   18  1 1s         1.04626   0.00000     -0.000  -0.000  -0.000
   18  2 1s         0.08438   0.00000      0.000   0.000   0.000
   18  3 2Ppy       0.02802   0.00000     -0.000   0.000  -0.000
   18  4 2Ppz       0.02004   0.00000      0.000   0.000   0.000
   18  5 2Ppx       0.01751   0.00000      0.000   0.000  -0.000
   18     Total     1.19622   0.00000     -0.000  -0.000  -0.000

   21  1 1s         1.06648   0.00000     -0.000   0.000   0.000
   21  2 1s         0.08253   0.00000      0.000  -0.000  -0.000
   21  3 2Ppy       0.02230   0.00000      0.000   0.000   0.000
   21  4 2Ppz       0.02100   0.00000      0.000   0.000  -0.000
   21  5 2Ppx       0.01169   0.00000     -0.000   0.000   0.000
   21     Total     1.20400   0.00000     -0.000   0.000   0.000

   22  1 1s         1.05575   0.00000      0.000   0.000   0.000
   22  2 1s         0.08295   0.00000     -0.000  -0.000  -0.000
   22  3 2Ppy       0.01982   0.00000     -0.000   0.000   0.000
   22  4 2Ppz       0.01777   0.00000     -0.000  -0.000  -0.000
   22  5 2Ppx       0.01722   0.00000      0.000  -0.000   0.000
   22     Total     1.19351   0.00000      0.000   0.000   0.000

   23  1 1s         1.06455   0.00000     -0.000  -0.000   0.000
   23  2 1s         0.08245   0.00000     -0.000  -0.000  -0.000
   23  3 2Ppy       0.01684   0.00000      0.000  -0.000   0.000
   23  4 2Ppz       0.02456   0.00000     -0.000  -0.000  -0.000
   23  5 2Ppx       0.01353   0.00000      0.000   0.000   0.000
   23     Total     1.20193   0.00000     -0.000  -0.000   0.000

   27  1 1s         0.46007   0.00000     -0.000  -0.000   0.000
   27  2 1s         0.17917   0.00000      0.000   0.000  -0.000
   27  3 2Ppy       0.13366   0.00000     -0.000   0.000  -0.000
   27  4 2Ppz       0.03919   0.00000      0.000   0.000   0.000
   27  5 2Ppx       0.04768   0.00000      0.000   0.000   0.000
   27     Total     0.85978   0.00000     -0.000   0.000   0.000

   30  1 1s         0.49556   0.00000      0.000   0.000   0.000
   30  2 1s         0.18783   0.00000     -0.000  -0.000   0.000
   30  3 2Ppy       0.02956   0.00000     -0.000  -0.000   0.000
   30  4 2Ppz       0.03493   0.00000      0.000  -0.000  -0.000
   30  5 2Ppx       0.02544   0.00000      0.000  -0.000   0.000
   30     Total     0.77332   0.00000     -0.000  -0.000   0.000

----------------------------------------------------------------
Total              11.18935   0.00000     -0.000  -0.000   0.000


Species: N                   

Atom      Orb        Charge      Spin       Svec
----------------------------------------------------------------
    2  1 2s         1.38035   0.00000     -0.000   0.000   0.000
    2  2 2s         0.12704   0.00000      0.000  -0.000  -0.000
    2  3 2py        1.07152   0.00000      0.000   0.000   0.000
    2  4 2pz        1.49162   0.00000      0.000  -0.000   0.000
    2  5 2px        1.01360   0.00000      0.000   0.000   0.000
    2  6 2py        0.19578   0.00000      0.000  -0.000  -0.000
    2  7 2pz        0.01482   0.00000      0.000  -0.000  -0.000
    2  8 2px        0.21111   0.00000     -0.000  -0.000  -0.000
    2  9 3Pdxy      0.00700   0.00000     -0.000  -0.000   0.000
    2 10 3Pdyz      0.00590   0.00000     -0.000   0.000  -0.000
    2 11 3Pdz2      0.00158   0.00000      0.000  -0.000  -0.000
    2 12 3Pdxz      0.00303   0.00000     -0.000   0.000  -0.000
    2 13 3Pdx2-y2   0.00300   0.00000     -0.000  -0.000   0.000
    2     Total     5.52637   0.00000      0.000   0.000   0.000

    5  1 2s         1.55772   0.00000      0.000  -0.000   0.000
    5  2 2s         0.08162   0.00000     -0.000   0.000  -0.000
    5  3 2py        0.90261   0.00000     -0.000   0.000   0.000
    5  4 2pz        1.22247   0.00000      0.000   0.000   0.000
    5  5 2px        1.14507   0.00000     -0.000   0.000   0.000
    5  6 2py        0.22940   0.00000      0.000  -0.000  -0.000
    5  7 2pz        0.05527   0.00000     -0.000  -0.000  -0.000
    5  8 2px        0.14574   0.00000     -0.000  -0.000  -0.000
    5  9 3Pdxy      0.00861   0.00000     -0.000  -0.000   0.000
    5 10 3Pdyz      0.00698   0.00000     -0.000   0.000  -0.000
    5 11 3Pdz2      0.00192   0.00000      0.000   0.000  -0.000
    5 12 3Pdxz      0.01129   0.00000      0.000  -0.000  -0.000
    5 13 3Pdx2-y2   0.00922   0.00000     -0.000   0.000   0.000
    5     Total     5.37791   0.00000     -0.000   0.000   0.000

    8  1 2s         1.31447   0.00000      0.000   0.000  -0.000
    8  2 2s         0.16116   0.00000     -0.000  -0.000   0.000
    8  3 2py        1.16272   0.00000     -0.000  -0.000  -0.000
    8  4 2pz        1.46119   0.00000      0.000   0.000  -0.000
    8  5 2px        0.95777   0.00000      0.000  -0.000  -0.000
    8  6 2py        0.17289   0.00000     -0.000   0.000  -0.000
    8  7 2pz        0.03358   0.00000      0.000   0.000   0.000
    8  8 2px        0.23397   0.00000     -0.000  -0.000  -0.000
    8  9 3Pdxy      0.00400   0.00000      0.000  -0.000   0.000
    8 10 3Pdyz      0.00175   0.00000      0.000  -0.000  -0.000
    8 11 3Pdz2      0.00259   0.00000      0.000  -0.000  -0.000
    8 12 3Pdxz      0.00241   0.00000      0.000  -0.000   0.000
    8 13 3Pdx2-y2   0.00548   0.00000     -0.000   0.000  -0.000
    8     Total     5.51398   0.00000      0.000   0.000  -0.000

   11  1 2s         1.43739   0.00000     -0.000  -0.000   0.000
   11  2 2s         0.10790   0.00000      0.000   0.000  -0.000
   11  3 2py        1.18968   0.00000     -0.000   0.000   0.000
   11  4 2pz        1.36984   0.00000     -0.000   0.000   0.000
   11  5 2px        0.86341   0.00000     -0.000   0.000   0.000
   11  6 2py        0.12506   0.00000      0.000  -0.000  -0.000
   11  7 2pz        0.02488   0.00000      0.000  -0.000  -0.000
   11  8 2px        0.29460   0.00000      0.000  -0.000  -0.000
   11  9 3Pdxy      0.00553   0.00000      0.000  -0.000   0.000
   11 10 3Pdyz      0.00420   0.00000      0.000  -0.000   0.000
   11 11 3Pdz2      0.00175   0.00000      0.000   0.000  -0.000
   11 12 3Pdxz      0.00526   0.00000     -0.000   0.000  -0.000
   11 13 3Pdx2-y2   0.00999   0.00000      0.000   0.000  -0.000
   11     Total     5.43950   0.00000     -0.000   0.000   0.000

   14  1 2s         1.50003   0.00000     -0.000  -0.000   0.000
   14  2 2s         0.10615   0.00000      0.000   0.000   0.000
   14  3 2py        0.84900   0.00000      0.000  -0.000   0.000
   14  4 2pz        1.22949   0.00000      0.000   0.000   0.000
   14  5 2px        1.14337   0.00000      0.000   0.000   0.000
   14  6 2py        0.27940   0.00000     -0.000   0.000  -0.000
   14  7 2pz        0.05627   0.00000     -0.000  -0.000  -0.000
   14  8 2px        0.14158   0.00000      0.000  -0.000  -0.000
   14  9 3Pdxy      0.00915   0.00000      0.000  -0.000   0.000
   14 10 3Pdyz      0.00428   0.00000      0.000  -0.000  -0.000
   14 11 3Pdz2      0.00163   0.00000     -0.000   0.000   0.000
   14 12 3Pdxz      0.01066   0.00000      0.000  -0.000   0.000
   14 13 3Pdx2-y2   0.00880   0.00000     -0.000  -0.000   0.000
   14     Total     5.33979   0.00000      0.000   0.000   0.000

   16  1 2s         1.34963   0.00000     -0.000   0.000  -0.000
   16  2 2s         0.14114   0.00000      0.000  -0.000   0.000
   16  3 2py        0.97750   0.00000     -0.000   0.000  -0.000
   16  4 2pz        1.53667   0.00000      0.000   0.000   0.000
   16  5 2px        1.07400   0.00000      0.000   0.000  -0.000
   16  6 2py        0.24592   0.00000      0.000  -0.000   0.000
   16  7 2pz        0.00678   0.00000     -0.000  -0.000   0.000
   16  8 2px        0.18361   0.00000     -0.000  -0.000   0.000
   16  9 3Pdxy      0.00200   0.00000     -0.000   0.000   0.000
   16 10 3Pdyz      0.00489   0.00000     -0.000  -0.000   0.000
   16 11 3Pdz2      0.00151   0.00000     -0.000   0.000   0.000
   16 12 3Pdxz      0.00236   0.00000     -0.000   0.000   0.000
   16 13 3Pdx2-y2   0.00600   0.00000     -0.000  -0.000   0.000
   16     Total     5.53202   0.00000     -0.000   0.000   0.000

   26  1 2s         1.36113   0.00000      0.000  -0.000   0.000
   26  2 2s         0.13027   0.00000     -0.000   0.000  -0.000
   26  3 2py        1.13171   0.00000     -0.000  -0.000   0.000
   26  4 2pz        1.46052   0.00000      0.000  -0.000   0.000
   26  5 2px        0.86372   0.00000     -0.000   0.000  -0.000
   26  6 2py        0.18883   0.00000      0.000  -0.000   0.000
   26  7 2pz        0.01291   0.00000     -0.000  -0.000  -0.000
   26  8 2px        0.29388   0.00000      0.000  -0.000   0.000
   26  9 3Pdxy      0.00126   0.00000      0.000   0.000   0.000
   26 10 3Pdyz      0.00193   0.00000      0.000   0.000   0.000
   26 11 3Pdz2     -0.00099   0.00000     -0.000  -0.000  -0.000
   26 12 3Pdxz      0.00407   0.00000     -0.000  -0.000   0.000
   26 13 3Pdx2-y2   0.00498   0.00000      0.000  -0.000   0.000
   26     Total     5.45421   0.00000      0.000  -0.000   0.000

----------------------------------------------------------------
Total              49.37313   0.00000     -0.000  -0.000   0.000


Species: Si                  

Atom      Orb        Charge      Spin       Svec
----------------------------------------------------------------
    3  1 3s         0.55076   0.00000     -0.000   0.000  -0.000
    3  2 3s         0.38749   0.00000      0.000  -0.000  -0.000
    3  3 3py        0.08367   0.00000     -0.000   0.000  -0.000
    3  4 3pz        0.53603   0.00000     -0.000   0.000  -0.000
    3  5 3px        0.37308   0.00000     -0.000  -0.000  -0.000
    3  6 3py        0.49695   0.00000      0.000   0.000  -0.000
    3  7 3pz        0.17392   0.00000     -0.000   0.000  -0.000
    3  8 3px        0.23647   0.00000      0.000   0.000  -0.000
    3  9 3Pdxy      0.10933   0.00000     -0.000  -0.000  -0.000
    3 10 3Pdyz      0.05238   0.00000      0.000  -0.000  -0.000
    3 11 3Pdz2      0.01042   0.00000     -0.000   0.000  -0.000
    3 12 3Pdxz      0.13426   0.00000      0.000  -0.000  -0.000
    3 13 3Pdx2-y2   0.32534   0.00000     -0.000  -0.000  -0.000
    3     Total     3.47008   0.00000     -0.000  -0.000  -0.000

    6  1 3s         0.66108   0.00000      0.000   0.000  -0.000
    6  2 3s         0.37148   0.00000     -0.000  -0.000   0.000
    6  3 3py        0.13144   0.00000     -0.000   0.000  -0.000
    6  4 3pz        0.68716   0.00000     -0.000   0.000  -0.000
    6  5 3px        0.49089   0.00000      0.000   0.000  -0.000
    6  6 3py        0.46877   0.00000      0.000  -0.000  -0.000
    6  7 3pz        0.23874   0.00000     -0.000  -0.000  -0.000
    6  8 3px        0.24729   0.00000     -0.000  -0.000   0.000
    6  9 3Pdxy      0.18071   0.00000     -0.000  -0.000  -0.000
    6 10 3Pdyz      0.14523   0.00000     -0.000   0.000  -0.000
    6 11 3Pdz2      0.01169   0.00000      0.000  -0.000  -0.000
    6 12 3Pdxz      0.03758   0.00000     -0.000   0.000  -0.000
    6 13 3Pdx2-y2   0.18495   0.00000      0.000   0.000  -0.000
    6     Total     3.85700   0.00000     -0.000   0.000  -0.000

    7  1 3s         0.63932   0.00000      0.000  -0.000  -0.000
    7  2 3s         0.36166   0.00000     -0.000   0.000  -0.000
    7  3 3py        0.33534   0.00000      0.000   0.000  -0.000
    7  4 3pz        0.51000   0.00000      0.000  -0.000   0.000
    7  5 3px        0.09046   0.00000      0.000   0.000   0.000
    7  6 3py        0.31706   0.00000     -0.000  -0.000   0.000
    7  7 3pz        0.20161   0.00000     -0.000  -0.000  -0.000
    7  8 3px        0.42381   0.00000     -0.000   0.000  -0.000
    7  9 3Pdxy      0.19841   0.00000      0.000   0.000   0.000
    7 10 3Pdyz      0.13847   0.00000     -0.000   0.000  -0.000
    7 11 3Pdz2      0.00907   0.00000      0.000   0.000  -0.000
    7 12 3Pdxz      0.15708   0.00000      0.000  -0.000  -0.000
    7 13 3Pdx2-y2   0.22975   0.00000     -0.000   0.000   0.000
    7     Total     3.61203   0.00000      0.000   0.000  -0.000

   12  1 3s         0.65646   0.00000     -0.000  -0.000  -0.000
   12  2 3s         0.37059   0.00000      0.000   0.000  -0.000
   12  3 3py        0.17602   0.00000      0.000   0.000  -0.000
   12  4 3pz        0.40556   0.00000     -0.000  -0.000  -0.000
   12  5 3px        0.33652   0.00000      0.000   0.000  -0.000
   12  6 3py        0.44499   0.00000     -0.000  -0.000  -0.000
   12  7 3pz        0.15374   0.00000     -0.000   0.000  -0.000
   12  8 3px        0.32167   0.00000     -0.000  -0.000  -0.000
   12  9 3Pdxy      0.34147   0.00000     -0.000   0.000  -0.000
   12 10 3Pdyz      0.08670   0.00000      0.000  -0.000  -0.000
   12 11 3Pdz2      0.01643   0.00000      0.000  -0.000  -0.000
   12 12 3Pdxz      0.09210   0.00000     -0.000  -0.000  -0.000
   12 13 3Pdx2-y2   0.16354   0.00000      0.000  -0.000  -0.000
   12     Total     3.56581   0.00000     -0.000  -0.000  -0.000

   15  1 3s         0.67837   0.00000     -0.000   0.000  -0.000
   15  2 3s         0.36270   0.00000     -0.000   0.000  -0.000
   15  3 3py       -0.00233   0.00000      0.000  -0.000  -0.000
   15  4 3pz        0.50448   0.00000     -0.000   0.000  -0.000
   15  5 3px        0.40715   0.00000     -0.000  -0.000  -0.000
   15  6 3py        0.45882   0.00000     -0.000   0.000  -0.000
   15  7 3pz        0.19428   0.00000      0.000  -0.000  -0.000
   15  8 3px        0.33699   0.00000      0.000   0.000  -0.000
   15  9 3Pdxy      0.14291   0.00000      0.000  -0.000  -0.000
   15 10 3Pdyz      0.12769   0.00000     -0.000  -0.000  -0.000
   15 11 3Pdz2      0.01545   0.00000     -0.000   0.000  -0.000
   15 12 3Pdxz      0.12626   0.00000     -0.000  -0.000  -0.000
   15 13 3Pdx2-y2   0.31229   0.00000      0.000  -0.000  -0.000
   15     Total     3.66505   0.00000     -0.000  -0.000  -0.000

   17  1 3s         0.72850   0.00000      0.000   0.000   0.000
   17  2 3s         0.35613   0.00000     -0.000  -0.000   0.000
   17  3 3py        0.10245   0.00000      0.000   0.000   0.000
   17  4 3pz        0.64589   0.00000      0.000  -0.000   0.000
   17  5 3px        0.36190   0.00000     -0.000  -0.000   0.000
   17  6 3py        0.44887   0.00000     -0.000  -0.000  -0.000
   17  7 3pz        0.15119   0.00000     -0.000   0.000   0.000
   17  8 3px        0.32871   0.00000      0.000   0.000   0.000
   17  9 3Pdxy      0.15233   0.00000      0.000   0.000   0.000
   17 10 3Pdyz      0.02452   0.00000      0.000   0.000   0.000
   17 11 3Pdz2      0.00915   0.00000      0.000   0.000  -0.000
   17 12 3Pdxz      0.12429   0.00000      0.000  -0.000   0.000
   17 13 3Pdx2-y2   0.12643   0.00000     -0.000  -0.000   0.000
   17     Total     3.56036   0.00000      0.000  -0.000   0.000

   19  1 3s         0.86326   0.00000     -0.000   0.000  -0.000
   19  2 3s         0.31396   0.00000      0.000  -0.000  -0.000
   19  3 3py        0.41986   0.00000      0.000  -0.000  -0.000
   19  4 3pz        0.66000   0.00000     -0.000   0.000  -0.000
   19  5 3px        0.34946   0.00000     -0.000  -0.000  -0.000
   19  6 3py        0.32984   0.00000     -0.000   0.000  -0.000
   19  7 3pz        0.26838   0.00000      0.000  -0.000  -0.000
   19  8 3px        0.35788   0.00000      0.000  -0.000  -0.000
   19  9 3Pdxy      0.09558   0.00000      0.000   0.000  -0.000
   19 10 3Pdyz      0.03149   0.00000     -0.000  -0.000   0.000
   19 11 3Pdz2      0.01461   0.00000     -0.000  -0.000   0.000
   19 12 3Pdxz      0.05878   0.00000      0.000   0.000   0.000
   19 13 3Pdx2-y2   0.13173   0.00000     -0.000  -0.000   0.000
   19     Total     3.89483   0.00000     -0.000  -0.000  -0.000

   20  1 3s         0.54171   0.00000     -0.000   0.000  -0.000
   20  2 3s         0.44312   0.00000      0.000  -0.000  -0.000
   20  3 3py        0.31190   0.00000      0.000  -0.000  -0.000
   20  4 3pz        0.25637   0.00000     -0.000   0.000  -0.000
   20  5 3px        0.45781   0.00000     -0.000   0.000  -0.000
   20  6 3py        0.38583   0.00000      0.000   0.000  -0.000
   20  7 3pz        0.42198   0.00000      0.000   0.000  -0.000
   20  8 3px        0.27762   0.00000      0.000  -0.000   0.000
   20  9 3Pdxy      0.07031   0.00000     -0.000  -0.000  -0.000
   20 10 3Pdyz      0.08499   0.00000     -0.000  -0.000  -0.000
   20 11 3Pdz2      0.05104   0.00000     -0.000   0.000  -0.000
   20 12 3Pdxz      0.07207   0.00000      0.000  -0.000  -0.000
   20 13 3Pdx2-y2   0.04595   0.00000      0.000   0.000  -0.000
   20     Total     3.42072   0.00000     -0.000  -0.000  -0.000

   24  1 3s         0.61239   0.00000      0.000   0.000   0.000
   24  2 3s         0.36727   0.00000     -0.000  -0.000  -0.000
   24  3 3py        0.26634   0.00000      0.000  -0.000   0.000
   24  4 3pz        0.38348   0.00000     -0.000   0.000   0.000
   24  5 3px        0.21312   0.00000      0.000  -0.000   0.000
   24  6 3py        0.37217   0.00000      0.000  -0.000  -0.000
   24  7 3pz        0.19963   0.00000     -0.000  -0.000   0.000
   24  8 3px        0.33273   0.00000     -0.000   0.000  -0.000
   24  9 3Pdxy      0.15034   0.00000      0.000   0.000  -0.000
   24 10 3Pdyz      0.14278   0.00000     -0.000  -0.000  -0.000
   24 11 3Pdz2      0.00861   0.00000     -0.000  -0.000  -0.000
   24 12 3Pdxz      0.11775   0.00000     -0.000  -0.000   0.000
   24 13 3Pdx2-y2   0.31421   0.00000      0.000   0.000   0.000
   24     Total     3.48081   0.00000      0.000  -0.000   0.000

   28  1 3s         0.45247   0.00000      0.000   0.000   0.000
   28  2 3s         0.37012   0.00000     -0.000  -0.000  -0.000
   28  3 3py        0.04624   0.00000     -0.000   0.000  -0.000
   28  4 3pz        0.37270   0.00000     -0.000   0.000  -0.000
   28  5 3px        0.20727   0.00000     -0.000   0.000  -0.000
   28  6 3py        0.43624   0.00000      0.000  -0.000   0.000
   28  7 3pz        0.20746   0.00000      0.000   0.000   0.000
   28  8 3px        0.36296   0.00000      0.000   0.000   0.000
   28  9 3Pdxy      0.14606   0.00000     -0.000  -0.000  -0.000
   28 10 3Pdyz      0.13106   0.00000     -0.000   0.000   0.000
   28 11 3Pdz2      0.00865   0.00000      0.000   0.000   0.000
   28 12 3Pdxz      0.15460   0.00000      0.000   0.000  -0.000
   28 13 3Pdx2-y2   0.32493   0.00000     -0.000   0.000  -0.000
   28     Total     3.22075   0.00000     -0.000   0.000  -0.000

----------------------------------------------------------------
Total              85.12056   0.00000     -0.000  -0.000   0.000


Species: O                   

Atom      Orb        Charge      Spin       Svec
----------------------------------------------------------------
   25  1 2s         1.65806   0.00000     -0.000  -0.000   0.000
   25  2 2s         0.08090   0.00000      0.000   0.000  -0.000
   25  3 2py        1.29903   0.00000      0.000   0.000  -0.000
   25  4 2pz        1.61113   0.00000      0.000   0.000  -0.000
   25  5 2px        1.56151   0.00000     -0.000  -0.000  -0.000
   25  6 2py        0.12460   0.00000     -0.000  -0.000   0.000
   25  7 2pz       -0.01113   0.00000     -0.000   0.000   0.000
   25  8 2px        0.05161   0.00000     -0.000   0.000   0.000
   25  9 3Pdxy      0.00568   0.00000     -0.000   0.000  -0.000
   25 10 3Pdyz      0.00483   0.00000     -0.000  -0.000   0.000
   25 11 3Pdz2      0.00279   0.00000     -0.000   0.000  -0.000
   25 12 3Pdxz      0.00349   0.00000     -0.000   0.000   0.000
   25 13 3Pdx2-y2   0.01220   0.00000     -0.000   0.000  -0.000
   25     Total     6.40469   0.00000      0.000   0.000  -0.000

   29  1 2s         1.74547   0.00000      0.000   0.000  -0.000
   29  2 2s         0.05254   0.00000     -0.000  -0.000   0.000
   29  3 2py        1.41871   0.00000     -0.000  -0.000  -0.000
   29  4 2pz        1.59225   0.00000     -0.000   0.000   0.000
   29  5 2px        1.54074   0.00000      0.000  -0.000   0.000
   29  6 2py        0.05622   0.00000     -0.000  -0.000   0.000
   29  7 2pz       -0.00680   0.00000      0.000   0.000  -0.000
   29  8 2px        0.03986   0.00000      0.000  -0.000  -0.000
   29  9 3Pdxy      0.00803   0.00000     -0.000  -0.000  -0.000
   29 10 3Pdyz      0.00310   0.00000     -0.000  -0.000  -0.000
   29 11 3Pdz2      0.00340   0.00000      0.000  -0.000   0.000
   29 12 3Pdxz      0.00639   0.00000     -0.000  -0.000   0.000
   29 13 3Pdx2-y2   0.01483   0.00000     -0.000   0.000   0.000
   29     Total     6.47475   0.00000      0.000   0.000  -0.000

----------------------------------------------------------------
Total              98.00000   0.00000      0.000   0.000   0.000


siesta: Eigenvalues (eV):
ik =     1
  -24.0542  -24.0542  -23.7717  -23.7717  -22.0901  -22.0901  -21.1689  -21.1689  -20.8562  -20.8562
  -19.8279  -19.8279  -19.2746  -19.2746  -19.1299  -19.1299  -18.6021  -18.6021  -15.3354  -15.3354
  -14.3828  -14.3828  -13.9532  -13.9532  -13.7159  -13.7159  -13.3312  -13.3312  -12.7657  -12.7657
  -12.6018  -12.6018  -12.3282  -12.3282  -12.0590  -12.0590  -11.8046  -11.8046  -11.3959  -11.3959
  -10.8238  -10.8238  -10.6870  -10.6870  -10.2929  -10.2929   -9.8119   -9.8119   -9.6530   -9.6530
   -9.5673   -9.5673   -9.2783   -9.2783   -9.1706   -9.1706   -8.8657   -8.8657   -8.6796   -8.6796
   -8.5791   -8.5791   -8.4591   -8.4591   -8.4312   -8.4312   -8.1669   -8.1669   -8.0077   -8.0077
   -7.9539   -7.9539   -7.5086   -7.5086   -7.3134   -7.3134   -7.2438   -7.2438   -7.1595   -7.1595
   -6.6240   -6.6240   -6.4749   -6.4749   -6.2598   -6.2598   -6.0926   -6.0926   -5.9831   -5.9831
   -5.7984   -5.7984   -5.4057   -5.4057   -5.3990   -5.3990   -4.0359   -4.0359   -3.7517   -3.7517
   -2.9078   -2.9078   -2.5735   -2.5735   -2.3958   -2.3958   -2.0823   -2.0823   -2.0694   -2.0694
   -1.8413   -1.8413   -1.7472   -1.7472   -1.4785   -1.4785   -1.3672   -1.3672   -1.1852   -1.1852
   -1.0516   -1.0516   -0.4154   -0.4154   -0.3259   -0.3259   -0.2416   -0.2416   -0.1711   -0.1711
   -0.0486   -0.0486    0.1398    0.1398    0.2891    0.2891    0.3463    0.3463    0.7206    0.7206
    0.8133    0.8133    0.9443    0.9443    1.0786    1.0786    1.3539    1.3539    1.4105    1.4105
    1.8166    1.8166    1.9517    1.9517    2.2140    2.2140    2.4129    2.4129    2.5107    2.5107
    2.5675    2.5675    2.7381    2.7381    2.8601    2.8601    3.0142    3.0142    3.0925    3.0925
    3.1838    3.1838    3.2637    3.2637    3.6708    3.6708    3.8406    3.8406    3.9758    3.9758
    4.1948    4.1948    4.2684    4.2684    4.5196    4.5196    4.6385    4.6385    4.8259    4.8259
    4.8805    4.8805    5.1500    5.1500    5.1839    5.1839    5.2297    5.2297    5.4601    5.4601
    5.6233    5.6233    5.8024    5.8024    5.9356    5.9356    6.0758    6.0758    6.3026    6.3026
    6.4353    6.4353    6.4610    6.4610    6.7692    6.7692    6.9414    6.9414    6.9902    6.9902
    7.0942    7.0942    7.1886    7.1886    7.3601    7.3601    7.6224    7.6224    7.6336    7.6336
    7.7905    7.7905    7.8514    7.8514    8.2521    8.2521    8.3377    8.3377    8.3585    8.3585
    8.4680    8.4680    8.7890    8.7890    8.9229    8.9229    8.9718    8.9718    9.2275    9.2275
    9.3873    9.3873    9.6310    9.6310    9.7138    9.7138    9.8094    9.8094    9.9042    9.9042
    9.9562    9.9562   10.3360   10.3360   10.5010   10.5010   10.5161   10.5161   10.7782   10.7782
   10.9744   10.9744   11.1253   11.1253   11.3417   11.3417   11.5472   11.5472   11.6355   11.6355
   11.8222   11.8222   12.0456   12.0456   12.1371   12.1371   12.3069   12.3069   12.5282   12.5282
   12.5858   12.5858   13.0871   13.0871   13.1684   13.1684   13.3794   13.3794   13.4156   13.4156
   13.6786   13.6786   13.9897   13.9897   14.1783   14.1783   14.5504   14.5504   14.6792   14.6792
   14.9345   14.9345   15.3057   15.3057   15.3450   15.3450   15.6386   15.6386   15.6804   15.6804
   16.1136   16.1136   16.2410   16.2410   16.5282   16.5282   16.5909   16.5909   16.8875   16.8875
   17.0398   17.0398   17.4258   17.4258   17.7833   17.7833   18.1986   18.1986   18.2735   18.2735
   18.5001   18.5001   18.8031   18.8031   18.8081   18.8081   19.4409   19.4409   19.8855   19.8855
   19.9888   19.9888   20.5380   20.5380   20.9326   20.9326   21.1164   21.1164   21.4161   21.4161
   21.8185   21.8185   22.2913   22.2913   22.8798   22.8798   22.9479   22.9479   23.3365   23.3365
   23.7587   23.7587   24.1208   24.1208   24.3361   24.3361   24.6253   24.6253   25.2624   25.2624
   25.5026   25.5026   25.7155   25.7155   25.9331   25.9331   26.5795   26.5795   27.3171   27.3171
   27.5755   27.5755   28.1088   28.1088   28.3977   28.3977   29.1988   29.1988   29.5954   29.5954
   29.9108   29.9108   30.5890   30.5890   31.0013   31.0013   31.2517   31.2517   31.4791   31.4791
   31.6008   31.6008   31.9057   31.9057   32.5612   32.5612   33.0526   33.0526   33.6382   33.6382
   34.8438   34.8438   35.4948   35.4948   36.1256   36.1256   36.2602   36.2602   36.5553   36.5553
   36.6436   36.6436   37.2024   37.2024   37.4167   37.4167   38.2203   38.2203   38.6230   38.6230
   39.0596   39.0596   39.5405   39.5405   40.0994   40.0994   40.8472   40.8472   41.0378   41.0378
   41.0745   41.0745   41.2258   41.2258   42.0424   42.0424   42.5561   42.5561   43.0676   43.0676
   43.5169   43.5169   43.8838   43.8838   43.9441   43.9441   44.1519   44.1519   44.5943   44.5943
   44.6349   44.6349   45.4978   45.4978   45.6338   45.6338   45.9370   45.9370   46.6421   46.6421
   46.9093   46.9093   47.5654   47.5654   47.7335   47.7335   47.8527   47.8527   48.3274   48.3274
   48.8627   48.8627   49.2747   49.2747   49.8027   49.8027   50.0598   50.0598   50.3409   50.3409
   50.6965   50.6965   51.0087   51.0087   51.1888   51.1888   51.3453   51.3453   52.7169   52.7169
   53.1934   53.1934   54.4862   54.4862   54.7878   54.7878   54.9387   54.9387   55.8496   55.8496
   56.1282   56.1282   57.6105   57.6105   57.7713   57.7713   58.2479   58.2479   58.5654   58.5654
   59.2302   59.2302   59.6479   59.6479   60.6052   60.6052   60.8175   60.8175   61.2353   61.2353
   62.7197   62.7197   62.8368   62.8368   64.0171   64.0171   65.2522   65.2522   66.2738   66.2738
   67.1005   67.1005   67.8823   67.8823   68.5172   68.5172   69.5947   69.5947   70.8690   70.8690
   72.4060   72.4060   72.5117   72.5117   74.2599   74.2599   78.8483   78.8483   83.4841   83.4841
   85.3586   85.3586   92.0113   92.0113   93.5656   93.5656   93.9908   93.9908   95.0746   95.0746
   98.3032   98.3032  101.0485  101.0485  101.5001  101.5001  104.0711  104.0711  106.3478  106.3478
  109.0317  109.0317  111.9998  111.9998  122.3431  122.3431  125.9134  125.9134  128.5322  128.5322
  145.7171  145.7171  149.2245  149.2245
siesta: Fermi energy =      -3.893773 eV

siesta: Program's energy decomposition (eV):
siesta: Ebs     =     -1120.349177
siesta: Eions   =      3553.971015
siesta: Ena     =       379.544681
siesta: Ekin    =      2773.244679
siesta: Enl     =     -2548.639082
siesta: Eso     =        -0.004872
siesta: Edftu   =         0.000000
siesta: DEna    =        38.046542
siesta: DUscf   =        13.769582
siesta: DUext   =         0.000000
siesta: Exc     =     -1099.175191
siesta: eta*DQ  =         0.000000
siesta: Emadel  =         0.000000
siesta: Emeta   =         0.000000
siesta: Emolmec =         0.000000
siesta: Ekinion =         0.000000
siesta: Eharris =     -3997.184675
siesta: Etot    =     -3997.184675
siesta: FreeEng =     -3997.187420

siesta: Final energy (eV):
siesta:  Band Struct. =   -1120.349177
siesta:       Kinetic =    2773.244679
siesta:       Hartree =    8441.458620
siesta:       Edftu   =       0.000000
siesta:       Eso     =      -0.004872
siesta:    Ext. field =       0.000000
siesta:   Exch.-corr. =   -1099.175191
siesta:  Ion-electron =  -19349.508576
siesta:       Ion-ion =    5236.800665
siesta:       Ekinion =       0.000000
siesta:         Total =   -3997.184675
siesta:         Fermi =      -3.893773

siesta: Atomic forces (eV/Ang):
siesta:      1   -0.010513    0.023425    0.000015
siesta:      2   -0.055868   -0.135635   -0.000129
siesta:      3    0.084854    0.060059   -0.000145
siesta:      4   -0.047272   -0.056690    0.000094
siesta:      5   -0.043550   -0.011415   -0.000003
siesta:      6    0.207462   -0.050469    0.000373
siesta:      7   -1.756657    0.093795    0.000371
siesta:      8    0.146679   -5.800831   -0.001689
siesta:      9   -0.273741   -0.167768    0.001270
siesta:     10    0.122583   -0.470901    0.000147
siesta:     11   -0.097975   -1.184650   -0.000497
siesta:     12    0.823339   -1.269002   -0.000714
siesta:     13   -0.171709   -0.719136   -0.000134
siesta:     14   -0.296410   -0.554717    0.000620
siesta:     15    0.176200   -0.027630   -0.000226
siesta:     16    0.304252   -0.096267    0.006993
siesta:     17    0.040244    0.007513   -0.035179
siesta:     18    0.004795    0.115975    0.006653
siesta:     19   -0.232855   -0.144554   -0.043482
siesta:     20    0.080985   -0.016949    0.016403
siesta:     21   -0.147557    0.181090    0.075662
siesta:     22   -0.032055    0.043098    0.029687
siesta:     23    0.054124   -0.088122   -0.030838
siesta:     24    1.314173    0.787722   -0.026471
siesta:     25    3.498292    7.579587    0.004682
siesta:     26    0.007912    3.415386    0.008354
siesta:     27   -0.319666   -2.134134    0.002856
siesta:     28   -1.358972    0.770745   -0.000703
siesta:     29    1.814554   -2.307813   -0.001102
siesta:     30    0.009605    0.069437    0.006606
siesta: ----------------------------------------
siesta:    Tot    3.845253   -2.088850    0.019474

siesta: Stress tensor (static) (eV/Ang**3):
siesta:    -0.001349   -0.000646    0.000035
siesta:    -0.000646   -0.007556   -0.000030
siesta:     0.000035   -0.000030   -0.000139

siesta: Cell volume =       3913.798767 Ang**3

siesta: Pressure (static):
siesta:                Solid            Molecule  Units
siesta:           0.00003283          0.00001058  Ry/Bohr**3
siesta:           0.00301454          0.00097163  eV/Ang**3
siesta:           4.82988024          1.55674707  kBar
(Free)E+ p_basis*V_orbitals  =       -3976.059335
(Free)Eharris+ p_basis*V_orbitals  =       -3976.059335
     spin moment: S , {S} =    0.00000   0.00000   0.00000   0.00000

siesta: Electric dipole (a.u.)  =    0.107120    2.849327   -0.013161
siesta: Electric dipole (Debye) =    0.272272    7.242272   -0.033452

cite: Please see "AT.bib" for an exhaustive BiBTeX file.
cite: Please clearly indicate Siesta version in published work: v4.1.5-1-g384057250
cite: This calculation has made use of the following articles
cite: which are encouraged to be cited in a published work.
        Primary SIESTA paper
          DOI: www.doi.org/10.1088/0953-8984/14/11/302
        Spin-orbit coupling (on-site approximation)
          DOI: www.doi.org/10.1088/0953-8984/19/19/489001


WARNING: alloc-realloc-dealloc name mismatch
         Name: atomlist isa
         Size:              -120. Bytes
         Node:     0
         Subsequent mismatches will not be reported
>> End of run:  22-MAY-2023   9:43:15
Job completed
