Siesta Version  : v4.1.5-1-g384057250
Architecture    : gcc
Compiler version: GNU Fortran (Debian 10.2.1-6) 10.2.1 20210110
Compiler flags  : mpifort -O2 -fPIC -ftree-vectorize -fallow-argument-mismatch
PP flags        : -DFC_HAVE_ABORT -DMPI -DSIESTA__FLOOK -DSIESTA__METIS -DSIESTA__MUMPS -DCDF -DNCDF -DNCDF_4 -DNCDF_PARALLEL -DSIESTA__MRRR -DSIESTA__ELPA
Libraries       : libncdf.a libfdict.a  -lflookall -ldl -lnetcdff -lnetcdf -lhdf5_hl -lhdf5 -lhdf5_fortran -lz -lscalapack-openmpi -lopenblas -lmetis -lzmumps -lcmumps -ldmumps -lmumps_common -lpord -lsmumps -lesmumps -lscotch -lscotcherr -fopenmp -lelpa
PARALLEL version
NetCDF support
NetCDF-4 support
NetCDF-4 MPI-IO support
METIS ordering support
Lua support

* Running on 6 nodes in parallel
>> Start of run:  22-MAY-2023   9:53:53

                           ***********************       
                           *  WELCOME TO SIESTA  *       
                           ***********************       

reinit: Reading from standard input
reinit: Dumped input in INPUT_TMP.36958
************************** Dump of input data file ****************************
SystemLabel      AT
NumberOfAtoms    30
NumberOfSpecies  4
%block ChemicalSpeciesLabel
    1    1  H
    2    7  N
    3   14  Si
    4    8  O
%endblock ChemicalSpeciesLabel
# Single point calculation
MD.TypeOfRun                CG
MD.Steps                    0
SCF.MustConverge            F # In case it does not. There can be 2 very close atoms
AtomicCoordinatesFormat NotScaledCartesianAng
%block AtomicCoordinatesAndAtomicSpecies
2.582377650    -5.776830440   0.000000000       1
1.654759240    -5.269361980   0.000000000       2
0.063128840    -6.101704590   0.000000000       3
0.119223240    -7.596849500   0.000000000       1
-1.376892050   -5.182603740   0.000000000       2
-0.824371900   -3.460866440   0.000000000       3
-1.170571480   -1.270002100   0.000000000       3
-2.706933680   -0.417515780   0.000000000       2
-2.754569660   0.634858620    0.000000000       1
-3.637675640   -0.909967860   0.000000000       1
0.218091790    -0.234193970   0.000000000       2
1.872004100    -0.697162300   0.000000000       3
2.828001130    0.461464770    0.000000000       1
2.648150080    -2.255024470   0.000000000       2
1.391921380    -3.454727220   0.000000000       3
1.886042351    5.529525342    0.000000000       2
0.558670831    6.739729642    0.000000000       3
1.198672101    8.101047882    0.000000000       1
-1.527075109   6.069198292    0.000000000       3
-3.556637709   7.199314482    0.000000000       3
-3.402401939   8.359544692    0.940305280       1
-4.542572429   6.177393862    0.512613700       1
-3.972852669   7.675540332    -1.366678340      1
-1.460579689   3.795221672    0.000000000       3
-2.499628419   2.602162172    0.000000000       4
0.196411891    3.161246482    0.000000000       2
0.178394521    2.098801652    0.000000000       1
1.820014961    3.758316692    0.000000000       3
3.015031131    2.743891492    0.000000000       4
2.886079721    5.875032442    0.000000000       1
%endblock AtomicCoordinatesAndAtomicSpecies
%include ../../../Defaults.fdf
************************** End of input data file *****************************

reinit: -----------------------------------------------------------------------
reinit: System Name: 
reinit: -----------------------------------------------------------------------
reinit: System Label: AT
reinit: -----------------------------------------------------------------------

initatom: Reading input for the pseudopotentials and atomic orbitals ----------
Species number:   1 Atomic number:    1 Label: H
Species number:   2 Atomic number:    7 Label: N
Species number:   3 Atomic number:   14 Label: Si
Species number:   4 Atomic number:    8 Label: O

Ground state valence configuration:   1s01
Reading pseudopotential information in formatted form from H.psf

Pseudopotential generated from a relativistic atomic calculation

Valence configuration for pseudopotential generation:
1s( 1.00) rc: 0.01
2p( 0.00) rc: 0.60
3d( 0.00) rc: 1.99
4f( 0.00) rc: 2.49
Ground state valence configuration:   2s02  2p03
Reading pseudopotential information in formatted form from N.psf

Pseudopotential generated from a relativistic atomic calculation

Valence configuration for pseudopotential generation:
2s( 2.00) rc: 0.94
2p( 3.00) rc: 0.59
3d( 0.00) rc: 3.46
4f( 0.00) rc: 2.47
Ground state valence configuration:   3s02  3p02
Reading pseudopotential information in formatted form from Si.psf

Pseudopotential generated from a relativistic atomic calculation

Valence configuration for pseudopotential generation:
3s( 2.00) rc: 1.67
3p( 2.00) rc: 2.04
3d( 0.00) rc: 2.89
4f( 0.00) rc: 2.49
Ground state valence configuration:   2s02  2p04
Reading pseudopotential information in formatted form from O.psf

Pseudopotential generated from a relativistic atomic calculation

Valence configuration for pseudopotential generation:
2s( 2.00) rc: 0.45
2p( 4.00) rc: 0.92
3d( 0.00) rc: 2.24
4f( 0.00) rc: 0.25
For H, standard SIESTA heuristics set lmxkb to 2
 (one more than the basis l, including polarization orbitals).
Use PS.lmax or PS.KBprojectors blocks to override.
For N, standard SIESTA heuristics set lmxkb to 3
 (one more than the basis l, including polarization orbitals).
Use PS.lmax or PS.KBprojectors blocks to override.
For Si, standard SIESTA heuristics set lmxkb to 3
 (one more than the basis l, including polarization orbitals).
Use PS.lmax or PS.KBprojectors blocks to override.
For O, standard SIESTA heuristics set lmxkb to 3
 (one more than the basis l, including polarization orbitals).
Use PS.lmax or PS.KBprojectors blocks to override.

<basis_specs>
===============================================================================
H                    Z=   1    Mass=  1.0100        Charge= 0.17977+309
Lmxo=0 Lmxkb= 2    BasisType=split      Semic=F
L=0  Nsemic=0  Cnfigmx=1
          i=1  nzeta=2  polorb=1  (1s)
            splnorm:   0.62000    
               vcte:    0.0000    
               rinn:    0.0000    
               qcoe:    0.0000    
               qyuk:    0.0000    
               qwid:   0.10000E-01
                rcs:    0.0000      0.0000    
            lambdas:    1.0000      1.0000    
-------------------------------------------------------------------------------
L=0  Nkbl=1  erefs: 0.17977+309
L=1  Nkbl=1  erefs: 0.17977+309
L=2  Nkbl=1  erefs: 0.17977+309
===============================================================================
</basis_specs>

atom: Called for H                     (Z =   1)

read_vps: Pseudopotential generation method:
read_vps: ATM4.2.7  Troullier-Martins                       
Valence charge for ps generation:    1.00000

xc_check: Exchange-correlation functional:
xc_check: GGA Perdew, Burke & Ernzerhof 1996
V l=0 = -2*Zval/r beyond r=  0.0098
V l=1 = -2*Zval/r beyond r=  0.5817
V l=2 = -2*Zval/r beyond r=  1.9372
All V_l potentials equal beyond r=  1.9372
This should be close to max(r_c) in ps generation
All pots = -2*Zval/r beyond r=  1.9372

VLOCAL1: 99.0% of the norm of Vloc inside     11.567 Ry
VLOCAL1: 99.9% of the norm of Vloc inside     26.362 Ry
atom: Maximum radius for 4*pi*r*r*local-pseudopot. charge    2.25106
atom: Maximum radius for r*vlocal+2*Zval:    1.91306
GHOST: No ghost state for L =  0
GHOST: No ghost state for L =  1
GHOST: No ghost state for L =  2

KBgen: Kleinman-Bylander projectors: 
   l= 0   rc=  2.036604   el= -0.477180   Ekb= -6.081590   kbcos= -0.277285
   l= 1   rc=  2.195416   el=  0.001076   Ekb= -0.926943   kbcos= -0.034643
   l= 2   rc=  2.251056   el=  0.002010   Ekb= -0.130941   kbcos= -0.009788

KBgen: Total number of Kleinman-Bylander projectors:    9
atom: -------------------------------------------------------------------------

atom: SANKEY-TYPE ORBITALS:
atom: Selected multiple-zeta basis: split     

SPLIT: Orbitals with angular momentum L= 0

SPLIT: Basis orbitals for state 1s

SPLIT: PAO cut-off radius determined from an
SPLIT: energy shift=  0.002000 Ry

   izeta = 1
                 lambda =    1.000000
                     rc =    6.518340
                 energy =   -0.475305
                kinetic =    0.912139
    potential(screened) =   -1.387444
       potential(ionic) =   -1.907295

   izeta = 2
                 rmatch =    2.141150
              splitnorm =    0.620000
                 energy =    0.566467
                kinetic =    3.772856
    potential(screened) =   -3.206389
       potential(ionic) =   -3.759093

POLgen: Perturbative polarization orbital with L=  1

POLgen: Polarization orbital for state 1s

   izeta = 1
                     rc =    6.518340
                 energy =    0.533861
                kinetic =    1.121086
    potential(screened) =   -0.587225
       potential(ionic) =   -1.053027
atom: Total number of Sankey-type orbitals:  5

atm_pop: Valence configuration (for local Pseudopot. screening):
 1s( 1.00)                                                            
Vna: chval, zval:    1.00000   1.00000

Vna:  Cut-off radius for the neutral-atom potential:   6.518340

atom: _________________________________________________________________________

<basis_specs>
===============================================================================
N                    Z=   7    Mass=  14.010        Charge= 0.17977+309
Lmxo=1 Lmxkb= 3    BasisType=split      Semic=F
L=0  Nsemic=0  Cnfigmx=2
          i=1  nzeta=2  polorb=0  (2s)
            splnorm:   0.28000    
               vcte:    0.0000    
               rinn:    0.0000    
               qcoe:    0.0000    
               qyuk:    0.0000    
               qwid:   0.10000E-01
                rcs:    0.0000      0.0000    
            lambdas:    1.0000      1.0000    
L=1  Nsemic=0  Cnfigmx=2
          i=1  nzeta=2  polorb=1  (2p)
            splnorm:   0.28000    
               vcte:    0.0000    
               rinn:    0.0000    
               qcoe:    0.0000    
               qyuk:    0.0000    
               qwid:   0.10000E-01
                rcs:    0.0000      0.0000    
            lambdas:    1.0000      1.0000    
-------------------------------------------------------------------------------
L=0  Nkbl=1  erefs: 0.17977+309
L=1  Nkbl=1  erefs: 0.17977+309
L=2  Nkbl=1  erefs: 0.17977+309
L=3  Nkbl=1  erefs: 0.17977+309
===============================================================================
</basis_specs>

atom: Called for N                     (Z =   7)

read_vps: Pseudopotential generation method:
read_vps: ATM4.2.7  Troullier-Martins                       
Valence charge for ps generation:    5.00000

xc_check: Exchange-correlation functional:
xc_check: GGA Perdew, Burke & Ernzerhof 1996
V l=0 = -2*Zval/r beyond r=  1.2889
V l=1 = -2*Zval/r beyond r=  1.2889
V l=2 = -2*Zval/r beyond r=  3.4178
V l=3 = -2*Zval/r beyond r=  2.4084
All V_l potentials equal beyond r=  3.3753
This should be close to max(r_c) in ps generation
All pots = -2*Zval/r beyond r=  3.4178

VLOCAL1: 99.0% of the norm of Vloc inside      3.810 Ry
VLOCAL1: 99.9% of the norm of Vloc inside      8.683 Ry
atom: Maximum radius for 4*pi*r*r*local-pseudopot. charge    4.02088
atom: Maximum radius for r*vlocal+2*Zval:    3.54838
GHOST: No ghost state for L =  0
GHOST: No ghost state for L =  1
GHOST: No ghost state for L =  2
GHOST: No ghost state for L =  3

KBgen: Kleinman-Bylander projectors: 
   l= 0   rc=  3.417763   el= -1.365098   Ekb= -4.433130   kbcos= -0.707855
   l= 1   rc=  3.375302   el= -0.521201   Ekb=-13.264039   kbcos= -0.535594
   l= 2   rc=  3.872880   el=  0.001991   Ekb= -0.641094   kbcos= -0.062456
   l= 3   rc=  3.970931   el=  0.003093   Ekb= -0.474517   kbcos= -0.018236

KBgen: Total number of Kleinman-Bylander projectors:   16
atom: -------------------------------------------------------------------------

atom: SANKEY-TYPE ORBITALS:
atom: Selected multiple-zeta basis: split     

SPLIT: Orbitals with angular momentum L= 0

SPLIT: Basis orbitals for state 2s

SPLIT: PAO cut-off radius determined from an
SPLIT: energy shift=  0.002000 Ry

   izeta = 1
                 lambda =    1.000000
                     rc =    4.730425
                 energy =   -1.363399
                kinetic =    1.245246
    potential(screened) =   -2.608645
       potential(ionic) =   -8.121105

   izeta = 2
                 rmatch =    2.531849
              splitnorm =    0.280000
                 energy =   -0.959908
                kinetic =    2.409435
    potential(screened) =   -3.369343
       potential(ionic) =   -9.427975

SPLIT: Orbitals with angular momentum L= 1

SPLIT: Basis orbitals for state 2p

SPLIT: PAO cut-off radius determined from an
SPLIT: energy shift=  0.002000 Ry

   izeta = 1
                 lambda =    1.000000
                     rc =    5.924108
                 energy =   -0.519262
                kinetic =    3.672940
    potential(screened) =   -4.192202
       potential(ionic) =   -9.518354

   izeta = 2
                 rmatch =    2.531849
              splitnorm =    0.280000
                 energy =   -0.104258
                kinetic =    6.807538
    potential(screened) =   -6.911796
       potential(ionic) =  -13.149920

POLgen: Perturbative polarization orbital with L=  2

POLgen: Polarization orbital for state 2p

   izeta = 1
                     rc =    5.924108
                 energy =    1.427508
                kinetic =    2.872379
    potential(screened) =   -1.444871
       potential(ionic) =   -5.563644
atom: Total number of Sankey-type orbitals: 13

atm_pop: Valence configuration (for local Pseudopot. screening):
 2s( 2.00)                                                            
 2p( 3.00)                                                            
Vna: chval, zval:    5.00000   5.00000

Vna:  Cut-off radius for the neutral-atom potential:   5.924108

atom: _________________________________________________________________________

<basis_specs>
===============================================================================
Si                   Z=  14    Mass=  28.090        Charge= 0.17977+309
Lmxo=1 Lmxkb= 3    BasisType=split      Semic=F
L=0  Nsemic=0  Cnfigmx=3
          i=1  nzeta=2  polorb=0  (3s)
            splnorm:   0.28000    
               vcte:    0.0000    
               rinn:    0.0000    
               qcoe:    0.0000    
               qyuk:    0.0000    
               qwid:   0.10000E-01
                rcs:    0.0000      0.0000    
            lambdas:    1.0000      1.0000    
L=1  Nsemic=0  Cnfigmx=3
          i=1  nzeta=2  polorb=1  (3p)
            splnorm:   0.28000    
               vcte:    0.0000    
               rinn:    0.0000    
               qcoe:    0.0000    
               qyuk:    0.0000    
               qwid:   0.10000E-01
                rcs:    0.0000      0.0000    
            lambdas:    1.0000      1.0000    
-------------------------------------------------------------------------------
L=0  Nkbl=1  erefs: 0.17977+309
L=1  Nkbl=1  erefs: 0.17977+309
L=2  Nkbl=1  erefs: 0.17977+309
L=3  Nkbl=1  erefs: 0.17977+309
===============================================================================
</basis_specs>

atom: Called for Si                    (Z =  14)

read_vps: Pseudopotential generation method:
read_vps: ATM4.2.7  Troullier-Martins                       
Valence charge for ps generation:    4.00000

xc_check: Exchange-correlation functional:
xc_check: GGA Perdew, Burke & Ernzerhof 1996
V l=0 = -2*Zval/r beyond r=  2.7826
V l=1 = -2*Zval/r beyond r=  2.7826
V l=2 = -2*Zval/r beyond r=  2.9253
V l=3 = -2*Zval/r beyond r=  2.7826
All V_l potentials equal beyond r=  2.8530
This should be close to max(r_c) in ps generation
All pots = -2*Zval/r beyond r=  2.9253

VLOCAL1: 99.0% of the norm of Vloc inside      5.333 Ry
VLOCAL1: 99.9% of the norm of Vloc inside     12.154 Ry
atom: Maximum radius for 4*pi*r*r*local-pseudopot. charge    3.39869
atom: Maximum radius for r*vlocal+2*Zval:    2.96205
GHOST: No ghost state for L =  0
GHOST: No ghost state for L =  1
GHOST: No ghost state for L =  2
GHOST: No ghost state for L =  3

KBgen: Kleinman-Bylander projectors: 
   l= 0   rc=  3.075247   el= -0.794092   Ekb=  5.879390   kbcos=  0.167461
   l= 1   rc=  3.153101   el= -0.300068   Ekb=  2.642817   kbcos=  0.058301
   l= 2   rc=  3.273594   el=  0.001958   Ekb= -1.185135   kbcos= -0.104411
   l= 3   rc=  3.232927   el=  0.003046   Ekb= -0.497174   kbcos= -0.015889

KBgen: Total number of Kleinman-Bylander projectors:   16
atom: -------------------------------------------------------------------------

atom: SANKEY-TYPE ORBITALS:
atom: Selected multiple-zeta basis: split     

SPLIT: Orbitals with angular momentum L= 0

SPLIT: Basis orbitals for state 3s

SPLIT: PAO cut-off radius determined from an
SPLIT: energy shift=  0.002000 Ry

   izeta = 1
                 lambda =    1.000000
                     rc =    6.429618
                 energy =   -0.792283
                kinetic =    0.525293
    potential(screened) =   -1.317576
       potential(ionic) =   -3.744923

   izeta = 2
                 rmatch =    3.998416
              splitnorm =    0.280000
                 energy =   -0.583081
                kinetic =    1.069570
    potential(screened) =   -1.652651
       potential(ionic) =   -4.235185

SPLIT: Orbitals with angular momentum L= 1

SPLIT: Basis orbitals for state 3p

SPLIT: PAO cut-off radius determined from an
SPLIT: energy shift=  0.002000 Ry

   izeta = 1
                 lambda =    1.000000
                     rc =    8.464845
                 energy =   -0.298236
                kinetic =    0.785360
    potential(screened) =   -1.083596
       potential(ionic) =   -3.273779

   izeta = 2
                 rmatch =    4.587816
              splitnorm =    0.280000
                 energy =   -0.131871
                kinetic =    1.403687
    potential(screened) =   -1.535557
       potential(ionic) =   -4.015310

POLgen: Perturbative polarization orbital with L=  2

POLgen: Polarization orbital for state 3p

   izeta = 1
                     rc =    8.464845
                 energy =    0.321949
                kinetic =    1.055677
    potential(screened) =   -0.733728
       potential(ionic) =   -2.672950
atom: Total number of Sankey-type orbitals: 13

atm_pop: Valence configuration (for local Pseudopot. screening):
 3s( 2.00)                                                            
 3p( 2.00)                                                            
Vna: chval, zval:    4.00000   4.00000

Vna:  Cut-off radius for the neutral-atom potential:   8.464845

atom: _________________________________________________________________________

<basis_specs>
===============================================================================
O                    Z=   8    Mass=  16.000        Charge= 0.17977+309
Lmxo=1 Lmxkb= 3    BasisType=split      Semic=F
L=0  Nsemic=0  Cnfigmx=2
          i=1  nzeta=2  polorb=0  (2s)
            splnorm:   0.28000    
               vcte:    0.0000    
               rinn:    0.0000    
               qcoe:    0.0000    
               qyuk:    0.0000    
               qwid:   0.10000E-01
                rcs:    0.0000      0.0000    
            lambdas:    1.0000      1.0000    
L=1  Nsemic=0  Cnfigmx=2
          i=1  nzeta=2  polorb=1  (2p)
            splnorm:   0.28000    
               vcte:    0.0000    
               rinn:    0.0000    
               qcoe:    0.0000    
               qyuk:    0.0000    
               qwid:   0.10000E-01
                rcs:    0.0000      0.0000    
            lambdas:    1.0000      1.0000    
-------------------------------------------------------------------------------
L=0  Nkbl=1  erefs: 0.17977+309
L=1  Nkbl=1  erefs: 0.17977+309
L=2  Nkbl=1  erefs: 0.17977+309
L=3  Nkbl=1  erefs: 0.17977+309
===============================================================================
</basis_specs>

atom: Called for O                     (Z =   8)

read_vps: Pseudopotential generation method:
read_vps: ATM4.2.7  Troullier-Martins                       
Valence charge for ps generation:    6.00000

xc_check: Exchange-correlation functional:
xc_check: GGA Perdew, Burke & Ernzerhof 1996
V l=0 = -2*Zval/r beyond r=  1.1000
V l=1 = -2*Zval/r beyond r=  1.1000
V l=2 = -2*Zval/r beyond r=  2.2154
V l=3 = -2*Zval/r beyond r=  1.1000
All V_l potentials equal beyond r=  2.2154
This should be close to max(r_c) in ps generation
All pots = -2*Zval/r beyond r=  2.2154

VLOCAL1: 99.0% of the norm of Vloc inside      8.845 Ry
VLOCAL1: 99.9% of the norm of Vloc inside     20.157 Ry
atom: Maximum radius for 4*pi*r*r*local-pseudopot. charge    2.67231
atom: Maximum radius for r*vlocal+2*Zval:    2.32897
GHOST: No ghost state for L =  0
GHOST: No ghost state for L =  1
GHOST: No ghost state for L =  2
GHOST: No ghost state for L =  3

KBgen: Kleinman-Bylander projectors: 
   l= 0   rc=  2.243238   el= -1.759686   Ekb=**********   kbcos= -0.171774
   l= 1   rc=  2.328968   el= -0.663873   Ekb=-14.506792   kbcos= -0.519897
   l= 2   rc=  2.573941   el=  0.002031   Ekb= -1.137373   kbcos= -0.019581
   l= 3   rc=  2.606321   el=  0.003153   Ekb= -1.013546   kbcos= -0.003122

KBgen: Total number of Kleinman-Bylander projectors:   16
atom: -------------------------------------------------------------------------

atom: SANKEY-TYPE ORBITALS:
atom: Selected multiple-zeta basis: split     

SPLIT: Orbitals with angular momentum L= 0

SPLIT: Basis orbitals for state 2s

SPLIT: PAO cut-off radius determined from an
SPLIT: energy shift=  0.002000 Ry

   izeta = 1
                 lambda =    1.000000
                     rc =    4.243912
                 energy =   -1.758270
                kinetic =    3.286084
    potential(screened) =   -5.044353
       potential(ionic) =  -12.921184

   izeta = 2
                 rmatch =    2.187845
              splitnorm =    0.280000
                 energy =   -0.885018
                kinetic =    8.134434
    potential(screened) =   -9.019452
       potential(ionic) =  -17.710645

SPLIT: Orbitals with angular momentum L= 1

SPLIT: Basis orbitals for state 2p

SPLIT: PAO cut-off radius determined from an
SPLIT: energy shift=  0.002000 Ry

   izeta = 1
                 lambda =    1.000000
                     rc =    5.314825
                 energy =   -0.661986
                kinetic =    4.917472
    potential(screened) =   -5.579458
       potential(ionic) =  -13.236259

   izeta = 2
                 rmatch =    2.160663
              splitnorm =    0.280000
                 energy =   -0.068760
                kinetic =    9.183374
    potential(screened) =   -9.252135
       potential(ionic) =  -18.274251

POLgen: Perturbative polarization orbital with L=  2

POLgen: Polarization orbital for state 2p

   izeta = 1
                     rc =    5.314825
                 energy =    1.970580
                kinetic =    3.886128
    potential(screened) =   -1.915547
       potential(ionic) =   -7.749584
atom: Total number of Sankey-type orbitals: 13

atm_pop: Valence configuration (for local Pseudopot. screening):
 2s( 2.00)                                                            
 2p( 4.00)                                                            
Vna: chval, zval:    6.00000   6.00000

Vna:  Cut-off radius for the neutral-atom potential:   5.314825

atom: _________________________________________________________________________

prinput: Basis input ----------------------------------------------------------

PAO.BasisType split     

%block ChemicalSpeciesLabel
    1    1 H                       # Species index, atomic number, species label
    2    7 N                       # Species index, atomic number, species label
    3   14 Si                      # Species index, atomic number, species label
    4    8 O                       # Species index, atomic number, species label
%endblock ChemicalSpeciesLabel

%block PAO.Basis                 # Define Basis set
H                     1                    # Species label, number of l-shells
 n=1   0   2 P   1                   # n, l, Nzeta, Polarization, NzetaPol
   6.518      2.141   
   1.000      1.000   
N                     2                    # Species label, number of l-shells
 n=2   0   2                         # n, l, Nzeta 
   4.730      2.532   
   1.000      1.000   
 n=2   1   2 P   1                   # n, l, Nzeta, Polarization, NzetaPol
   5.924      2.532   
   1.000      1.000   
Si                    2                    # Species label, number of l-shells
 n=3   0   2                         # n, l, Nzeta 
   6.430      3.998   
   1.000      1.000   
 n=3   1   2 P   1                   # n, l, Nzeta, Polarization, NzetaPol
   8.465      4.588   
   1.000      1.000   
O                     2                    # Species label, number of l-shells
 n=2   0   2                         # n, l, Nzeta 
   4.244      2.188   
   1.000      1.000   
 n=2   1   2 P   1                   # n, l, Nzeta, Polarization, NzetaPol
   5.315      2.161   
   1.000      1.000   
%endblock PAO.Basis

prinput: ----------------------------------------------------------------------

Dumping basis to NetCDF file H.ion.nc
Dumping basis to NetCDF file N.ion.nc
Dumping basis to NetCDF file Si.ion.nc
Dumping basis to NetCDF file O.ion.nc
coor:   Atomic-coordinates input format  =     Cartesian coordinates
coor:                                          (in Angstroms)

siesta: Atomic coordinates (Bohr) and species
siesta:      4.87999 -10.91663   0.00000  1        1
siesta:      3.12704  -9.95765   0.00000  2        2
siesta:      0.11930 -11.53056   0.00000  3        3
siesta:      0.22530 -14.35597   0.00000  1        4
siesta:     -2.60195  -9.79371   0.00000  2        5
siesta:     -1.55784  -6.54009   0.00000  3        6
siesta:     -2.21206  -2.39996   0.00000  3        7
siesta:     -5.11537  -0.78899   0.00000  2        8
siesta:     -5.20538   1.19971   0.00000  1        9
siesta:     -6.87421  -1.71959   0.00000  1       10
siesta:      0.41213  -0.44256   0.00000  2       11
siesta:      3.53758  -1.31745   0.00000  3       12
siesta:      5.34415   0.87204   0.00000  1       13
siesta:      5.00428  -4.26138   0.00000  2       14
siesta:      2.63035  -6.52849   0.00000  3       15
siesta:      3.56410  10.44929   0.00000  2       16
siesta:      1.05574  12.73625   0.00000  3       17
siesta:      2.26516  15.30877   0.00000  1       18
siesta:     -2.88575  11.46913   0.00000  3       19
siesta:     -6.72107  13.60474   0.00000  3       20
siesta:     -6.42961  15.79726   1.77692  1       21
siesta:     -8.58422  11.67359   0.96870  1       22
siesta:     -7.50761  14.50467  -2.58265  1       23
siesta:     -2.76010   7.17193   0.00000  3       24
siesta:     -4.72362   4.91738   0.00000  4       25
siesta:      0.37116   5.97389   0.00000  2       26
siesta:      0.33712   3.96616   0.00000  1       27
siesta:      3.43933   7.10219   0.00000  3       28
siesta:      5.69759   5.18521   0.00000  4       29
siesta:      5.45390  11.10221   0.00000  1       30

siesta: Automatic unit cell vectors (Ang):
siesta:   15.826189    0.000000    0.000000
siesta:    0.000000   25.140616    0.000000
siesta:    0.000000    0.000000   10.224979

siesta: System type = molecule  

initatomlists: Number of atoms, orbitals, and projectors:     30   302   403

siesta: ******************** Simulation parameters ****************************
siesta:
siesta: The following are some of the parameters of the simulation.
siesta: A complete list of the parameters used, including default values,
siesta: can be found in file out.fdf
siesta:
redata: Spin configuration                          = spin-orbit
redata: Number of spin components                   = 8
redata: Time-Reversal Symmetry                      = F
redata: Spin spiral                                 = F
############################################################
This spin-orbit implementation uses a local approximation.
From 4.2 and onwards the full non-local approximation is implemented
You are strongly advised to use >=4.2 versions!
############################################################
redata: Long output                                 =   F
redata: Number of Atomic Species                    =        4
redata: Charge density info will appear in .RHO file
redata: Write Mulliken Pop.                         = Atomic and Orbital charges
redata: Matel table size (NRTAB)                    =     1024
redata: Mesh Cutoff                                 =   340.0000 Ry
redata: Net charge of the system                    =     0.0000 |e|
redata: Min. number of SCF Iter                     =        1
redata: Max. number of SCF Iter                     =      200
redata: SCF mix quantity                            = Hamiltonian
redata: Mix DM or H after convergence               =   F
redata: Recompute H after scf cycle                 =   F
redata: Mix DM in first SCF step                    =   T
redata: Write Pulay info on disk                    =   F
redata: New DM Occupancy tolerance                  = 0.000000000001
redata: No kicks to SCF
redata: DM Mixing Weight for Kicks                  =     0.5000
redata: Require Harris convergence for SCF          =   F
redata: Harris energy tolerance for SCF             =     0.000100 eV
redata: Require DM convergence for SCF              =   T
redata: DM tolerance for SCF                        =     0.000008
redata: Require EDM convergence for SCF             =   F
redata: EDM tolerance for SCF                       =     0.001000 eV
redata: Require H convergence for SCF               =   T
redata: Hamiltonian tolerance for SCF               =     0.000001 eV
redata: Require (free) Energy convergence for SCF   =   F
redata: (free) Energy tolerance for SCF             =     0.000100 eV
redata: Using Saved Data (generic)                  =   F
redata: Use continuation files for DM               =   F
redata: Neglect nonoverlap interactions             =   F
redata: Method of Calculation                       = Diagonalization
redata: Electronic Temperature                      =   299.9978 K
redata: Fix the spin of the system                  =   F
redata: Dynamics option                             = Single-point calculation
mix.SCF: Pulay mixing                            = Pulay
mix.SCF:    Variant                              = stable
mix.SCF:    History steps                        = 6
mix.SCF:    Linear mixing weight                 =     0.250000
mix.SCF:    Mixing weight                        =     0.250000
mix.SCF:    SVD condition                        = 0.1000E-07
mix.SCF:    Restart steps                        = 24
mix.SCF:    Restart save steps                   = 3
mix.SCF: Spin-component mixing                   all
redata: Save all siesta data in one NC              =   F
redata: ***********************************************************************

%block SCF.Mixers
  Pulay
%endblock SCF.Mixers

%block SCF.Mixer.Pulay
  # Mixing method
  method pulay
  variant stable

  # Mixing options
  weight 0.2500
  weight.linear 0.2500
  history 6
  restart 24
  restart.save 3
%endblock SCF.Mixer.Pulay

DM_history_depth set to one: no extrapolation allowed by default for geometry relaxation
Size of DM history Fstack: 1
Total number of electrons:    98.000000
Total ionic charge:    98.000000

* ProcessorY, Blocksize:    2  24


* Orbital distribution balance (max,min):    62    48


Time-reversal symmetry not used.

siesta: k-grid: Number of k-points =     1
siesta: k-grid: Cutoff (effective) =     5.112 Ang
siesta: k-grid: Supercell and displacements
siesta: k-grid:    1   0   0      0.000
siesta: k-grid:    0   1   0      0.000
siesta: k-grid:    0   0   1      0.000

diag: Algorithm                                     = ELPA-1stage
diag: Parallel over k                               =   F
diag: Use parallel 2D distribution                  =   T
diag: Parallel block-size                           = 24
diag: Parallel distribution                         =     2 x     3
diag: Used triangular part                          = Lower
diag: Absolute tolerance                            =  0.100E-15
diag: Orthogonalization factor                      =  0.100E-05
diag: Memory factor                                 =  1.0000


ts: **************************************************************
ts: Save H and S matrices                           =    F
ts: Save DM and EDM matrices                        =    F
ts: Only save the overlap matrix S                  =    F
ts: **************************************************************

************************ Begin: TS CHECKS AND WARNINGS ************************
************************ End: TS CHECKS AND WARNINGS **************************


                     ====================================
                        Single-point calculation
                     ====================================

outcoor: Atomic coordinates (Ang):                          
    2.58237765   -5.77683044    0.00000000   1       1  H
    1.65475924   -5.26936198    0.00000000   2       2  N
    0.06312884   -6.10170459    0.00000000   3       3  Si
    0.11922324   -7.59684950    0.00000000   1       4  H
   -1.37689205   -5.18260374    0.00000000   2       5  N
   -0.82437190   -3.46086644    0.00000000   3       6  Si
   -1.17057148   -1.27000210    0.00000000   3       7  Si
   -2.70693368   -0.41751578    0.00000000   2       8  N
   -2.75456966    0.63485862    0.00000000   1       9  H
   -3.63767564   -0.90996786    0.00000000   1      10  H
    0.21809179   -0.23419397    0.00000000   2      11  N
    1.87200410   -0.69716230    0.00000000   3      12  Si
    2.82800113    0.46146477    0.00000000   1      13  H
    2.64815008   -2.25502447    0.00000000   2      14  N
    1.39192138   -3.45472722    0.00000000   3      15  Si
    1.88604235    5.52952534    0.00000000   2      16  N
    0.55867083    6.73972964    0.00000000   3      17  Si
    1.19867210    8.10104788    0.00000000   1      18  H
   -1.52707511    6.06919829    0.00000000   3      19  Si
   -3.55663771    7.19931448    0.00000000   3      20  Si
   -3.40240194    8.35954469    0.94030528   1      21  H
   -4.54257243    6.17739386    0.51261370   1      22  H
   -3.97285267    7.67554033   -1.36667834   1      23  H
   -1.46057969    3.79522167    0.00000000   3      24  Si
   -2.49962842    2.60216217    0.00000000   4      25  O
    0.19641189    3.16124648    0.00000000   2      26  N
    0.17839452    2.09880165    0.00000000   1      27  H
    1.82001496    3.75831669    0.00000000   3      28  Si
    3.01503113    2.74389149    0.00000000   4      29  O
    2.88607972    5.87503244    0.00000000   1      30  H

outcell: Unit cell vectors (Ang):
       15.826189    0.000000    0.000000
        0.000000   25.140616    0.000000
        0.000000    0.000000   10.224979

outcell: Cell vector modules (Ang)   :   15.826189   25.140616   10.224979
outcell: Cell angles (23,13,12) (deg):     90.0000     90.0000     90.0000
outcell: Cell volume (Ang**3)        :   4068.3163
<dSpData1D:S at geom step 0
  <sparsity:sparsity for geom step 0
    nrows_g=302 nrows=62 sparsity=.1411 nnzs=12868, refcount: 8>
  <dData1D:(new from dSpData1D) n=12868, refcount: 1>
refcount: 1>
new_DM -- step:     1
Initializing Density Matrix...
DM filled with atomic data:
<dSpData2D:DM initialized from atoms
  <sparsity:sparsity for geom step 0
    nrows_g=302 nrows=62 sparsity=.1411 nnzs=12868, refcount: 9>
  <dData2D:DM n=12868 m=8, refcount: 1>
refcount: 1>
     spin moment: S , {S} =   56.00000   0.00000   0.00000  56.00000
No. of atoms with KB's overlaping orbs in proc 0. Max # of overlaps:      24     197

Initializing spin-orbit part of the Hamiltonian
  Adding spin-orbit effects for H 
  Adding spin-orbit effects for N 
  Adding spin-orbit effects for Si
  Adding spin-orbit effects for O 


New grid distribution:   1
           1       1:   90    1:   72    1:   20
           2       1:   90    1:   72   21:   40
           3       1:   90    1:   72   41:   60
           4       1:   90   73:  144    1:   20
           5       1:   90   73:  144   21:   40
           6       1:   90   73:  144   41:   60

InitMesh: MESH =   180 x   288 x   120 =     6220800
InitMesh: (bp) =    90 x   144 x    60 =      777600
InitMesh: Mesh cutoff (required, used) =   340.000   357.515 Ry
ExtMesh (bp) on 0 =   194 x   176 x   128 =     4370432
New grid distribution:   2
           1      14:   90   22:   42    1:   60
           2       1:   12   43:  144    1:   60
           3       1:   13    1:   42    1:   60
           4      13:   90   43:  123    1:   60
           5      13:   90  124:  144    1:   60
           6      14:   90    1:   21    1:   60
New grid distribution:   3
           1       1:   18   54:  144    1:   60
           2      23:   90   30:   53    1:   60
           3       1:   22    1:   53    1:   60
           4      19:   90   54:  118    1:   60
           5      23:   90    1:   29    1:   60
           6      19:   90  119:  144    1:   60
Setting up quadratic distribution...
ExtMesh (bp) on 0 =   181 x   125 x   168 =     3801000
PhiOnMesh: Number of (b)points on node 0 =                97020
PhiOnMesh: nlist on node 0 =              1835059

stepf: Fermi-Dirac step function

siesta: Program's energy decomposition (eV):
siesta: Ebs     =      -616.555208
siesta: Eions   =      3553.971015
siesta: Ena     =       377.597945
siesta: Ekin    =      3178.017573
siesta: Enl     =     -2993.543450
siesta: Eso     =        -0.003942
siesta: Edftu   =         0.000000
siesta: DEna    =       130.431740
siesta: DUscf   =        74.656980
siesta: DUext   =         0.000000
siesta: Exc     =     -1170.456980
siesta: eta*DQ  =         0.000000
siesta: Emadel  =         0.000000
siesta: Emeta   =         0.000000
siesta: Emolmec =         0.000000
siesta: Ekinion =         0.000000
siesta: Eharris =     -3886.860208
siesta: Etot    =     -3957.271148
siesta: FreeEng =     -3957.275397

        iscf     Eharris(eV)        E_KS(eV)     FreeEng(eV)     dDmax    Ef(eV) dHmax(eV)
   scf:    1    -3886.860208    -3957.271148    -3957.275397  0.970546 -4.942399 20.819601
     spin moment: S , {S} =    2.03218   0.00003   0.00001   2.03218
timer: Routine,Calls,Time,% = IterSCF        1       5.464  20.64
   scf:    2    -4000.530049    -3990.917401    -3990.917404  0.455236 -4.358459 10.052495
     spin moment: S , {S} =    2.00011  -0.00001   0.00004   2.00011
   scf:    3    -3993.912249    -3996.101152    -3996.114417  0.417589 -4.237828  7.415722
     spin moment: S , {S} =    0.14127   0.00001  -0.00000   0.14127
   scf:    4    -3999.401711    -3997.937588    -3997.937588  0.030439 -3.920863  5.359672
     spin moment: S , {S} =    0.00009   0.00001  -0.00000   0.00009
   scf:    5    -3999.530551    -3998.761872    -3998.761876  0.033208 -3.847921  2.810500
     spin moment: S , {S} =    0.00006   0.00000  -0.00000   0.00006
   scf:    6    -3999.433185    -3999.095471    -3999.095538  0.029625 -3.882032  0.946872
     spin moment: S , {S} =    0.00028   0.00000  -0.00000   0.00028
   scf:    7    -3999.301789    -3999.194026    -3999.194628  0.017426 -3.931812  0.334980
     spin moment: S , {S} =    0.00038   0.00000   0.00000  -0.00038
   scf:    8    -3999.252424    -3999.222125    -3999.223367  0.008814 -3.955742  0.157290
     spin moment: S , {S} =    0.00352   0.00000   0.00000  -0.00352
   scf:    9    -3999.253444    -3999.236854    -3999.238078  0.007225 -3.963225  0.083603
     spin moment: S , {S} =    0.00305   0.00000   0.00000  -0.00305
   scf:   10    -3999.251900    -3999.243840    -3999.244993  0.005874 -3.963435  0.062828
     spin moment: S , {S} =    0.00213   0.00000   0.00000  -0.00213
   scf:   11    -3999.254146    -3999.248277    -3999.249417  0.007135 -3.963550  0.036680
     spin moment: S , {S} =    0.00125   0.00000   0.00000  -0.00125
   scf:   12    -3999.250768    -3999.249347    -3999.250404  0.004258 -3.962503  0.025859
     spin moment: S , {S} =    0.00038   0.00000   0.00000  -0.00038
   scf:   13    -3999.249734    -3999.249523    -3999.250601  0.001700 -3.962102  0.016791
     spin moment: S , {S} =    0.00026   0.00000   0.00000  -0.00026
   scf:   14    -3999.249805    -3999.249648    -3999.250727  0.001704 -3.961568  0.011312
     spin moment: S , {S} =    0.00012   0.00000   0.00000  -0.00012
   scf:   15    -3999.249798    -3999.249712    -3999.250790  0.001482 -3.961172  0.006364
     spin moment: S , {S} =    0.00004   0.00000   0.00000  -0.00004
   scf:   16    -3999.249763    -3999.249734    -3999.250809  0.000855 -3.961122  0.003491
     spin moment: S , {S} =    0.00002   0.00000   0.00000  -0.00002
   scf:   17    -3999.249744    -3999.249738    -3999.250814  0.000472 -3.961170  0.001916
     spin moment: S , {S} =    0.00001   0.00000   0.00000  -0.00001
   scf:   18    -3999.249741    -3999.249739    -3999.250815  0.000236 -3.961256  0.000866
     spin moment: S , {S} =    0.00001   0.00000   0.00000  -0.00001
   scf:   19    -3999.249740    -3999.249740    -3999.250816  0.000100 -3.961279  0.000523
     spin moment: S , {S} =    0.00001   0.00000   0.00000  -0.00001
   scf:   20    -3999.249739    -3999.249739    -3999.250816  0.000036 -3.961284  0.000356
     spin moment: S , {S} =    0.00001   0.00000   0.00000  -0.00001
   scf:   21    -3999.249739    -3999.249739    -3999.250816  0.000038 -3.961278  0.000183
     spin moment: S , {S} =    0.00001   0.00000   0.00000  -0.00001
   scf:   22    -3999.249739    -3999.249739    -3999.250816  0.000019 -3.961275  0.000100
     spin moment: S , {S} =    0.00000   0.00000   0.00000  -0.00000
   scf:   23    -3999.249740    -3999.249739    -3999.250816  0.000011 -3.961274  0.000043
     spin moment: S , {S} =    0.00000   0.00000   0.00000  -0.00000
   scf:   24    -3999.249739    -3999.249739    -3999.250816  0.000005 -3.961273  0.000024
     spin moment: S , {S} =    0.00000   0.00000  -0.00000  -0.00000
mix: Pulay -- resetting history
   scf:   25    -3999.249739    -3999.249739    -3999.250816  0.000002 -3.961272  0.000017
     spin moment: S , {S} =    0.00000   0.00000  -0.00000  -0.00000
   scf:   26    -3999.249739    -3999.249739    -3999.250816  0.000001 -3.961272  0.000014
     spin moment: S , {S} =    0.00000   0.00000  -0.00000  -0.00000
   scf:   27    -3999.249739    -3999.249739    -3999.250816  0.000001 -3.961272  0.000009
     spin moment: S , {S} =    0.00000   0.00000  -0.00000  -0.00000
   scf:   28    -3999.249739    -3999.249739    -3999.250816  0.000001 -3.961272  0.000006
     spin moment: S , {S} =    0.00000   0.00000  -0.00000  -0.00000
   scf:   29    -3999.249739    -3999.249739    -3999.250816  0.000001 -3.961272  0.000004
     spin moment: S , {S} =    0.00000   0.00000  -0.00000  -0.00000
   scf:   30    -3999.249739    -3999.249739    -3999.250816  0.000001 -3.961272  0.000002
     spin moment: S , {S} =    0.00000   0.00000  -0.00000  -0.00000
   scf:   31    -3999.249739    -3999.249739    -3999.250816  0.000000 -3.961272  0.000001
     spin moment: S , {S} =    0.00000   0.00000  -0.00000  -0.00000
   scf:   32    -3999.249739    -3999.249739    -3999.250816  0.000000 -3.961272  0.000001
     spin moment: S , {S} =    0.00000   0.00000  -0.00000  -0.00000

SCF Convergence by DM+H criterion
max |DM_out - DM_in|         :     0.0000001452
max |H_out - H_in|      (eV) :     0.0000008891
SCF cycle converged after 32 iterations

Using DM_out to compute the final energy and forces
No. of atoms with KB's overlaping orbs in proc 0. Max # of overlaps:      24     197

siesta: E_KS(eV) =            -3999.2497

siesta: E_KS - E_eggbox =     -3999.2497
     spin moment: S , {S} =    0.00000   0.00000  -0.00000  -0.00000

siesta: Atomic forces (eV/Ang):
     1   -0.037860    0.049448    0.000004
     2   -0.014193   -0.070116   -0.000010
     3    0.018040    0.046855   -0.000017
     4   -0.061029   -0.009956    0.000013
     5   -0.000021   -0.044571   -0.000024
     6    0.114156   -0.000029    0.000085
     7   -0.643516    0.209890    0.000050
     8    0.217171   -0.491142   -0.000275
     9    0.076423    0.489554    0.000414
    10    0.109656   -0.017879    0.000038
    11    0.027351    0.238407   -0.000107
    12    0.423724    0.075581   -0.000056
    13   -0.144670   -0.153725   -0.000018
    14   -0.090141   -0.080250    0.000058
    15    0.013782    0.037337   -0.000031
    16    0.044577    0.098543    0.007943
    17    0.048689   -0.084078   -0.039657
    18   -0.066047    0.094289    0.008312
    19   -0.090547    0.003047   -0.041606
    20    0.042029   -0.035733    0.022915
    21   -0.157995    0.188015    0.069482
    22   -0.058314    0.089724    0.027671
    23    0.132301    0.078233   -0.034597
    24    0.424510   -0.066079   -0.026375
    25    0.008543    3.582255    0.002999
    26   -0.100338    0.455554    0.006787
    27   -0.118317   -0.828177    0.002878
    28   -0.263303   -0.125296   -0.000813
    29   -2.987998   -1.727751   -0.001071
    30    0.082070    0.117543    0.008047
----------------------------------------
   Tot   -3.051269    2.119492    0.013041
----------------------------------------
   Max    3.582255
   Res    0.552212    sqrt( Sum f_i^2 / 3N )
----------------------------------------
   Max    3.582255    constrained

Stress tensor Voigt[x,y,z,yz,xz,xy] (kbar):       -1.70       -0.62       -0.21       -0.05        0.05        0.26
(Free)E + p*V (eV/cell)    -3997.1046
Target enthalpy (eV/cell)    -3999.2508

mulliken: Atomic and Orbital Populations:

Species: H                   

Atom      Orb        Charge      Spin       Svec
----------------------------------------------------------------
    1  1 1s         0.51030   0.00000     -0.000   0.000   0.000
    1  2 1s         0.18780   0.00000      0.000  -0.000   0.000
    1  3 2Ppy       0.02816   0.00000      0.000   0.000   0.000
    1  4 2Ppz       0.04018   0.00000     -0.000   0.000   0.000
    1  5 2Ppx       0.02520   0.00000     -0.000  -0.000  -0.000
    1     Total     0.79164   0.00000     -0.000   0.000   0.000

    4  1 1s         1.02462   0.00000     -0.000   0.000   0.000
    4  2 1s         0.09509   0.00000      0.000  -0.000  -0.000
    4  3 2Ppy       0.03893   0.00000     -0.000  -0.000   0.000
    4  4 2Ppz       0.02008   0.00000     -0.000  -0.000  -0.000
    4  5 2Ppx       0.01358   0.00000      0.000  -0.000   0.000
    4     Total     1.19230   0.00000     -0.000  -0.000   0.000

    9  1 1s         0.45492   0.00000      0.000  -0.000   0.000
    9  2 1s         0.19422   0.00000     -0.000   0.000   0.000
    9  3 2Ppy       0.06248   0.00000     -0.000  -0.000   0.000
    9  4 2Ppz       0.04630   0.00000     -0.000   0.000   0.000
    9  5 2Ppx       0.01421   0.00000      0.000   0.000   0.000
    9     Total     0.77213   0.00000      0.000   0.000   0.000

   10  1 1s         0.49482   0.00000      0.000   0.000   0.000
   10  2 1s         0.19393   0.00000     -0.000  -0.000   0.000
   10  3 2Ppy       0.00831   0.00000      0.000   0.000  -0.000
   10  4 2Ppz       0.05373   0.00000     -0.000   0.000   0.000
   10  5 2Ppx       0.03047   0.00000     -0.000  -0.000   0.000
   10     Total     0.78125   0.00000     -0.000   0.000   0.000

   13  1 1s         0.94966   0.00000     -0.000  -0.000  -0.000
   13  2 1s         0.10703   0.00000      0.000   0.000   0.000
   13  3 2Ppy       0.04182   0.00000     -0.000   0.000  -0.000
   13  4 2Ppz       0.01459   0.00000     -0.000  -0.000   0.000
   13  5 2Ppx       0.02034   0.00000     -0.000  -0.000   0.000
   13     Total     1.13344   0.00000     -0.000  -0.000  -0.000

   18  1 1s         1.04861   0.00000     -0.000  -0.000   0.000
   18  2 1s         0.08390   0.00000      0.000   0.000   0.000
   18  3 2Ppy       0.02799   0.00000     -0.000  -0.000  -0.000
   18  4 2Ppz       0.01895   0.00000     -0.000  -0.000  -0.000
   18  5 2Ppx       0.01755   0.00000      0.000  -0.000   0.000
   18     Total     1.19699   0.00000     -0.000  -0.000   0.000

   21  1 1s         1.06626   0.00000     -0.000  -0.000   0.000
   21  2 1s         0.08257   0.00000      0.000  -0.000   0.000
   21  3 2Ppy       0.02234   0.00000     -0.000   0.000  -0.000
   21  4 2Ppz       0.02109   0.00000      0.000   0.000  -0.000
   21  5 2Ppx       0.01156   0.00000      0.000  -0.000   0.000
   21     Total     1.20383   0.00000     -0.000  -0.000   0.000

   22  1 1s         1.05322   0.00000     -0.000  -0.000   0.000
   22  2 1s         0.08327   0.00000      0.000  -0.000   0.000
   22  3 2Ppy       0.02003   0.00000      0.000   0.000   0.000
   22  4 2Ppz       0.01772   0.00000     -0.000  -0.000  -0.000
   22  5 2Ppx       0.01713   0.00000      0.000  -0.000  -0.000
   22     Total     1.19137   0.00000     -0.000  -0.000   0.000

   23  1 1s         1.06438   0.00000      0.000  -0.000   0.000
   23  2 1s         0.08235   0.00000     -0.000   0.000  -0.000
   23  3 2Ppy       0.01685   0.00000     -0.000  -0.000  -0.000
   23  4 2Ppz       0.02464   0.00000     -0.000  -0.000   0.000
   23  5 2Ppx       0.01346   0.00000      0.000  -0.000  -0.000
   23     Total     1.20167   0.00000      0.000  -0.000   0.000

   27  1 1s         0.45295   0.00000     -0.000   0.000   0.000
   27  2 1s         0.18841   0.00000      0.000  -0.000   0.000
   27  3 2Ppy       0.05128   0.00000     -0.000   0.000   0.000
   27  4 2Ppz       0.02262   0.00000     -0.000   0.000   0.000
   27  5 2Ppx       0.02933   0.00000      0.000  -0.000   0.000
   27     Total     0.74459   0.00000     -0.000   0.000   0.000

   30  1 1s         0.48680   0.00000     -0.000  -0.000   0.000
   30  2 1s         0.18885   0.00000     -0.000   0.000   0.000
   30  3 2Ppy       0.02784   0.00000      0.000   0.000   0.000
   30  4 2Ppz       0.03448   0.00000     -0.000  -0.000   0.000
   30  5 2Ppx       0.02405   0.00000     -0.000  -0.000  -0.000
   30     Total     0.76201   0.00000     -0.000  -0.000   0.000

----------------------------------------------------------------
Total              10.97121   0.00000     -0.000  -0.000   0.000


Species: N                   

Atom      Orb        Charge      Spin       Svec
----------------------------------------------------------------
    2  1 2s         1.38002   0.00000      0.000  -0.000   0.000
    2  2 2s         0.12721   0.00000     -0.000   0.000   0.000
    2  3 2py        1.06912   0.00000     -0.000  -0.000   0.000
    2  4 2pz        1.49453   0.00000     -0.000  -0.000   0.000
    2  5 2px        1.01615   0.00000     -0.000   0.000   0.000
    2  6 2py        0.19585   0.00000     -0.000   0.000  -0.000
    2  7 2pz        0.01452   0.00000     -0.000   0.000   0.000
    2  8 2px        0.21040   0.00000      0.000  -0.000  -0.000
    2  9 3Pdxy      0.00682   0.00000     -0.000   0.000  -0.000
    2 10 3Pdyz      0.00608   0.00000     -0.000   0.000  -0.000
    2 11 3Pdz2      0.00156   0.00000      0.000   0.000  -0.000
    2 12 3Pdxz      0.00304   0.00000      0.000  -0.000  -0.000
    2 13 3Pdx2-y2   0.00298   0.00000      0.000   0.000   0.000
    2     Total     5.52827   0.00000     -0.000  -0.000   0.000

    5  1 2s         1.55754   0.00000     -0.000   0.000   0.000
    5  2 2s         0.08151   0.00000      0.000  -0.000   0.000
    5  3 2py        0.90385   0.00000     -0.000   0.000   0.000
    5  4 2pz        1.22294   0.00000     -0.000  -0.000   0.000
    5  5 2px        1.14331   0.00000      0.000   0.000   0.000
    5  6 2py        0.22967   0.00000      0.000  -0.000   0.000
    5  7 2pz        0.05523   0.00000     -0.000  -0.000  -0.000
    5  8 2px        0.14607   0.00000     -0.000  -0.000   0.000
    5  9 3Pdxy      0.00855   0.00000     -0.000   0.000   0.000
    5 10 3Pdyz      0.00708   0.00000      0.000  -0.000  -0.000
    5 11 3Pdz2      0.00190   0.00000     -0.000  -0.000  -0.000
    5 12 3Pdxz      0.01128   0.00000     -0.000   0.000  -0.000
    5 13 3Pdx2-y2   0.00919   0.00000     -0.000  -0.000  -0.000
    5     Total     5.37810   0.00000     -0.000   0.000   0.000

    8  1 2s         1.27793   0.00000     -0.000   0.000  -0.000
    8  2 2s         0.17415   0.00000      0.000  -0.000   0.000
    8  3 2py        1.08645   0.00000     -0.000   0.000  -0.000
    8  4 2pz        1.54518   0.00000     -0.000  -0.000   0.000
    8  5 2px        0.98843   0.00000     -0.000  -0.000  -0.000
    8  6 2py        0.19528   0.00000      0.000  -0.000   0.000
    8  7 2pz        0.02837   0.00000      0.000   0.000   0.000
    8  8 2px        0.23176   0.00000      0.000  -0.000   0.000
    8  9 3Pdxy      0.00298   0.00000      0.000  -0.000   0.000
    8 10 3Pdyz      0.00102   0.00000     -0.000  -0.000   0.000
    8 11 3Pdz2      0.00247   0.00000      0.000  -0.000  -0.000
    8 12 3Pdxz      0.00237   0.00000      0.000  -0.000   0.000
    8 13 3Pdx2-y2   0.00398   0.00000     -0.000  -0.000   0.000
    8     Total     5.54037   0.00000     -0.000  -0.000   0.000

   11  1 2s         1.45820   0.00000     -0.000  -0.000  -0.000
   11  2 2s         0.11075   0.00000      0.000   0.000   0.000
   11  3 2py        1.24802   0.00000      0.000   0.000  -0.000
   11  4 2pz        1.31436   0.00000     -0.000   0.000  -0.000
   11  5 2px        0.81587   0.00000     -0.000   0.000  -0.000
   11  6 2py        0.09955   0.00000     -0.000  -0.000   0.000
   11  7 2pz        0.03907   0.00000      0.000  -0.000   0.000
   11  8 2px        0.31295   0.00000      0.000   0.000   0.000
   11  9 3Pdxy      0.00705   0.00000      0.000  -0.000  -0.000
   11 10 3Pdyz      0.00540   0.00000      0.000   0.000  -0.000
   11 11 3Pdz2      0.00036   0.00000      0.000   0.000   0.000
   11 12 3Pdxz      0.00503   0.00000      0.000   0.000   0.000
   11 13 3Pdx2-y2   0.00503   0.00000     -0.000   0.000  -0.000
   11     Total     5.42165   0.00000      0.000   0.000  -0.000

   14  1 2s         1.50132   0.00000     -0.000  -0.000  -0.000
   14  2 2s         0.10493   0.00000      0.000   0.000   0.000
   14  3 2py        0.84623   0.00000      0.000  -0.000  -0.000
   14  4 2pz        1.23721   0.00000     -0.000  -0.000  -0.000
   14  5 2px        1.16528   0.00000     -0.000  -0.000  -0.000
   14  6 2py        0.27768   0.00000     -0.000  -0.000   0.000
   14  7 2pz        0.05490   0.00000     -0.000   0.000   0.000
   14  8 2px        0.13571   0.00000      0.000   0.000   0.000
   14  9 3Pdxy      0.00938   0.00000     -0.000  -0.000  -0.000
   14 10 3Pdyz      0.00476   0.00000      0.000   0.000   0.000
   14 11 3Pdz2      0.00149   0.00000     -0.000   0.000   0.000
   14 12 3Pdxz      0.01067   0.00000      0.000  -0.000   0.000
   14 13 3Pdx2-y2   0.00813   0.00000      0.000   0.000  -0.000
   14     Total     5.35769   0.00000     -0.000  -0.000  -0.000

   16  1 2s         1.36631   0.00000     -0.000  -0.000  -0.000
   16  2 2s         0.13231   0.00000      0.000   0.000   0.000
   16  3 2py        0.99052   0.00000     -0.000  -0.000   0.000
   16  4 2pz        1.54534   0.00000      0.000  -0.000  -0.000
   16  5 2px        1.07862   0.00000      0.000   0.000  -0.000
   16  6 2py        0.24032   0.00000      0.000   0.000  -0.000
   16  7 2pz        0.00370   0.00000      0.000   0.000   0.000
   16  8 2px        0.18132   0.00000     -0.000   0.000  -0.000
   16  9 3Pdxy      0.00173   0.00000     -0.000  -0.000   0.000
   16 10 3Pdyz      0.00475   0.00000     -0.000   0.000  -0.000
   16 11 3Pdz2      0.00104   0.00000     -0.000  -0.000   0.000
   16 12 3Pdxz      0.00235   0.00000      0.000  -0.000  -0.000
   16 13 3Pdx2-y2   0.00604   0.00000      0.000   0.000  -0.000
   16     Total     5.55435   0.00000      0.000  -0.000  -0.000

   26  1 2s         1.35531   0.00000      0.000  -0.000  -0.000
   26  2 2s         0.13371   0.00000     -0.000   0.000   0.000
   26  3 2py        1.12036   0.00000      0.000  -0.000  -0.000
   26  4 2pz        1.51462   0.00000     -0.000   0.000   0.000
   26  5 2px        0.91625   0.00000      0.000  -0.000  -0.000
   26  6 2py        0.17647   0.00000     -0.000  -0.000   0.000
   26  7 2pz        0.00612   0.00000      0.000  -0.000   0.000
   26  8 2px        0.27808   0.00000     -0.000   0.000   0.000
   26  9 3Pdxy      0.00085   0.00000     -0.000   0.000   0.000
   26 10 3Pdyz      0.00103   0.00000     -0.000   0.000   0.000
   26 11 3Pdz2     -0.00138   0.00000     -0.000   0.000  -0.000
   26 12 3Pdxz      0.00446   0.00000     -0.000  -0.000  -0.000
   26 13 3Pdx2-y2   0.00233   0.00000     -0.000   0.000  -0.000
   26     Total     5.50822   0.00000      0.000  -0.000  -0.000

----------------------------------------------------------------
Total              49.25986   0.00000     -0.000  -0.000   0.000


Species: Si                  

Atom      Orb        Charge      Spin       Svec
----------------------------------------------------------------
    3  1 3s         0.55025   0.00000      0.000  -0.000  -0.000
    3  2 3s         0.38741   0.00000     -0.000  -0.000   0.000
    3  3 3py        0.08343   0.00000      0.000   0.000  -0.000
    3  4 3pz        0.53983   0.00000      0.000  -0.000  -0.000
    3  5 3px        0.37000   0.00000      0.000  -0.000  -0.000
    3  6 3py        0.49713   0.00000     -0.000  -0.000  -0.000
    3  7 3pz        0.17502   0.00000      0.000   0.000  -0.000
    3  8 3px        0.23661   0.00000     -0.000   0.000  -0.000
    3  9 3Pdxy      0.10881   0.00000      0.000   0.000  -0.000
    3 10 3Pdyz      0.05250   0.00000     -0.000  -0.000  -0.000
    3 11 3Pdz2      0.01021   0.00000      0.000  -0.000  -0.000
    3 12 3Pdxz      0.13342   0.00000      0.000   0.000  -0.000
    3 13 3Pdx2-y2   0.32469   0.00000      0.000  -0.000  -0.000
    3     Total     3.46930   0.00000      0.000  -0.000  -0.000

    6  1 3s         0.65878   0.00000      0.000   0.000  -0.000
    6  2 3s         0.37082   0.00000     -0.000   0.000  -0.000
    6  3 3py        0.12540   0.00000      0.000  -0.000  -0.000
    6  4 3pz        0.69734   0.00000     -0.000  -0.000  -0.000
    6  5 3px        0.49029   0.00000     -0.000  -0.000  -0.000
    6  6 3py        0.46967   0.00000     -0.000  -0.000  -0.000
    6  7 3pz        0.24276   0.00000      0.000   0.000  -0.000
    6  8 3px        0.24606   0.00000      0.000   0.000  -0.000
    6  9 3Pdxy      0.18321   0.00000      0.000  -0.000  -0.000
    6 10 3Pdyz      0.14631   0.00000     -0.000  -0.000   0.000
    6 11 3Pdz2      0.01137   0.00000      0.000   0.000   0.000
    6 12 3Pdxz      0.03688   0.00000     -0.000   0.000   0.000
    6 13 3Pdx2-y2   0.18666   0.00000     -0.000  -0.000  -0.000
    6     Total     3.86555   0.00000     -0.000  -0.000  -0.000

    7  1 3s         0.63052   0.00000     -0.000   0.000   0.000
    7  2 3s         0.36763   0.00000      0.000  -0.000   0.000
    7  3 3py        0.36941   0.00000      0.000   0.000   0.000
    7  4 3pz        0.49640   0.00000      0.000  -0.000   0.000
    7  5 3px        0.07895   0.00000     -0.000   0.000   0.000
    7  6 3py        0.30321   0.00000      0.000  -0.000  -0.000
    7  7 3pz        0.20669   0.00000     -0.000   0.000   0.000
    7  8 3px        0.42398   0.00000      0.000  -0.000  -0.000
    7  9 3Pdxy      0.20312   0.00000      0.000   0.000  -0.000
    7 10 3Pdyz      0.14303   0.00000     -0.000  -0.000   0.000
    7 11 3Pdz2      0.01008   0.00000     -0.000   0.000   0.000
    7 12 3Pdxz      0.15460   0.00000      0.000   0.000   0.000
    7 13 3Pdx2-y2   0.23561   0.00000      0.000  -0.000  -0.000
    7     Total     3.62324   0.00000      0.000   0.000   0.000

   12  1 3s         0.55403   0.00000     -0.000   0.000   0.000
   12  2 3s         0.39532   0.00000      0.000   0.000   0.000
   12  3 3py        0.19753   0.00000     -0.000   0.000   0.000
   12  4 3pz        0.43147   0.00000      0.000   0.000   0.000
   12  5 3px        0.30629   0.00000     -0.000   0.000   0.000
   12  6 3py        0.42178   0.00000      0.000  -0.000  -0.000
   12  7 3pz        0.16415   0.00000     -0.000   0.000   0.000
   12  8 3px        0.33794   0.00000      0.000  -0.000  -0.000
   12  9 3Pdxy      0.38315   0.00000     -0.000   0.000  -0.000
   12 10 3Pdyz      0.08254   0.00000     -0.000  -0.000   0.000
   12 11 3Pdz2      0.00994   0.00000     -0.000   0.000   0.000
   12 12 3Pdxz      0.09327   0.00000     -0.000   0.000   0.000
   12 13 3Pdx2-y2   0.16660   0.00000      0.000   0.000   0.000
   12     Total     3.54400   0.00000      0.000   0.000   0.000

   15  1 3s         0.66337   0.00000     -0.000   0.000  -0.000
   15  2 3s         0.36720   0.00000     -0.000   0.000   0.000
   15  3 3py       -0.02236   0.00000      0.000   0.000  -0.000
   15  4 3pz        0.51228   0.00000      0.000   0.000  -0.000
   15  5 3px        0.39490   0.00000      0.000  -0.000   0.000
   15  6 3py        0.47037   0.00000     -0.000  -0.000  -0.000
   15  7 3pz        0.19833   0.00000     -0.000   0.000   0.000
   15  8 3px        0.33862   0.00000     -0.000  -0.000  -0.000
   15  9 3Pdxy      0.14180   0.00000      0.000   0.000  -0.000
   15 10 3Pdyz      0.12618   0.00000      0.000  -0.000  -0.000
   15 11 3Pdz2      0.01424   0.00000     -0.000  -0.000  -0.000
   15 12 3Pdxz      0.12600   0.00000      0.000   0.000  -0.000
   15 13 3Pdx2-y2   0.30584   0.00000      0.000  -0.000  -0.000
   15     Total     3.63677   0.00000      0.000   0.000  -0.000

   17  1 3s         0.73038   0.00000      0.000  -0.000  -0.000
   17  2 3s         0.35661   0.00000     -0.000   0.000  -0.000
   17  3 3py        0.09709   0.00000     -0.000   0.000  -0.000
   17  4 3pz        0.62456   0.00000      0.000  -0.000  -0.000
   17  5 3px        0.35830   0.00000     -0.000   0.000  -0.000
   17  6 3py        0.45377   0.00000     -0.000  -0.000  -0.000
   17  7 3pz        0.15244   0.00000     -0.000  -0.000  -0.000
   17  8 3px        0.33320   0.00000      0.000  -0.000  -0.000
   17  9 3Pdxy      0.15075   0.00000     -0.000   0.000  -0.000
   17 10 3Pdyz      0.02348   0.00000     -0.000  -0.000  -0.000
   17 11 3Pdz2      0.00895   0.00000      0.000  -0.000   0.000
   17 12 3Pdxz      0.12873   0.00000      0.000   0.000  -0.000
   17 13 3Pdx2-y2   0.12728   0.00000     -0.000   0.000  -0.000
   17     Total     3.54554   0.00000      0.000  -0.000  -0.000

   19  1 3s         0.86097   0.00000      0.000  -0.000   0.000
   19  2 3s         0.31427   0.00000     -0.000   0.000   0.000
   19  3 3py        0.42835   0.00000      0.000   0.000   0.000
   19  4 3pz        0.65937   0.00000     -0.000   0.000   0.000
   19  5 3px        0.35145   0.00000     -0.000  -0.000   0.000
   19  6 3py        0.33025   0.00000     -0.000   0.000  -0.000
   19  7 3pz        0.27023   0.00000      0.000   0.000   0.000
   19  8 3px        0.35832   0.00000      0.000   0.000   0.000
   19  9 3Pdxy      0.09329   0.00000      0.000   0.000  -0.000
   19 10 3Pdyz      0.02904   0.00000     -0.000  -0.000   0.000
   19 11 3Pdz2      0.01437   0.00000     -0.000  -0.000  -0.000
   19 12 3Pdxz      0.05670   0.00000     -0.000  -0.000  -0.000
   19 13 3Pdx2-y2   0.13164   0.00000      0.000   0.000   0.000
   19     Total     3.89825   0.00000      0.000   0.000   0.000

   20  1 3s         0.54082   0.00000     -0.000  -0.000  -0.000
   20  2 3s         0.44388   0.00000      0.000   0.000   0.000
   20  3 3py        0.31019   0.00000      0.000   0.000  -0.000
   20  4 3pz        0.25476   0.00000     -0.000  -0.000  -0.000
   20  5 3px        0.45466   0.00000     -0.000   0.000   0.000
   20  6 3py        0.38759   0.00000     -0.000   0.000  -0.000
   20  7 3pz        0.42347   0.00000      0.000   0.000   0.000
   20  8 3px        0.27764   0.00000      0.000  -0.000  -0.000
   20  9 3Pdxy      0.07003   0.00000     -0.000   0.000   0.000
   20 10 3Pdyz      0.08422   0.00000      0.000   0.000   0.000
   20 11 3Pdz2      0.05100   0.00000     -0.000   0.000   0.000
   20 12 3Pdxz      0.07230   0.00000     -0.000   0.000   0.000
   20 13 3Pdx2-y2   0.04584   0.00000     -0.000  -0.000   0.000
   20     Total     3.41639   0.00000     -0.000   0.000  -0.000

   24  1 3s         0.60140   0.00000     -0.000   0.000  -0.000
   24  2 3s         0.37291   0.00000      0.000  -0.000   0.000
   24  3 3py        0.27249   0.00000      0.000   0.000   0.000
   24  4 3pz        0.39895   0.00000     -0.000  -0.000   0.000
   24  5 3px        0.17919   0.00000     -0.000  -0.000   0.000
   24  6 3py        0.38715   0.00000     -0.000  -0.000  -0.000
   24  7 3pz        0.19542   0.00000      0.000  -0.000   0.000
   24  8 3px        0.35585   0.00000     -0.000  -0.000  -0.000
   24  9 3Pdxy      0.14158   0.00000      0.000  -0.000   0.000
   24 10 3Pdyz      0.14092   0.00000     -0.000  -0.000   0.000
   24 11 3Pdz2      0.01196   0.00000      0.000  -0.000   0.000
   24 12 3Pdxz      0.12270   0.00000      0.000  -0.000  -0.000
   24 13 3Pdx2-y2   0.33930   0.00000     -0.000   0.000  -0.000
   24     Total     3.51983   0.00000     -0.000  -0.000   0.000

   28  1 3s         0.43342   0.00000      0.000   0.000   0.000
   28  2 3s         0.37708   0.00000     -0.000  -0.000   0.000
   28  3 3py        0.12581   0.00000     -0.000   0.000  -0.000
   28  4 3pz        0.39527   0.00000      0.000   0.000   0.000
   28  5 3px        0.18096   0.00000      0.000   0.000  -0.000
   28  6 3py        0.38836   0.00000      0.000  -0.000   0.000
   28  7 3pz        0.20534   0.00000      0.000  -0.000   0.000
   28  8 3px        0.37910   0.00000      0.000  -0.000   0.000
   28  9 3Pdxy      0.14425   0.00000     -0.000  -0.000  -0.000
   28 10 3Pdyz      0.12360   0.00000      0.000  -0.000  -0.000
   28 11 3Pdz2      0.01334   0.00000      0.000   0.000   0.000
   28 12 3Pdxz      0.15749   0.00000      0.000  -0.000   0.000
   28 13 3Pdx2-y2   0.35222   0.00000      0.000  -0.000  -0.000
   28     Total     3.27625   0.00000      0.000  -0.000   0.000

----------------------------------------------------------------
Total              85.05497   0.00000      0.000  -0.000  -0.000


Species: O                   

Atom      Orb        Charge      Spin       Svec
----------------------------------------------------------------
   25  1 2s         1.74865   0.00000     -0.000   0.000  -0.000
   25  2 2s         0.05929   0.00000      0.000  -0.000   0.000
   25  3 2py        1.44397   0.00000      0.000  -0.000   0.000
   25  4 2pz        1.54109   0.00000      0.000   0.000  -0.000
   25  5 2px        1.59223   0.00000      0.000  -0.000   0.000
   25  6 2py        0.04767   0.00000     -0.000   0.000   0.000
   25  7 2pz       -0.00574   0.00000     -0.000   0.000   0.000
   25  8 2px        0.02741   0.00000     -0.000   0.000   0.000
   25  9 3Pdxy      0.00638   0.00000      0.000   0.000  -0.000
   25 10 3Pdyz      0.00543   0.00000      0.000  -0.000  -0.000
   25 11 3Pdz2      0.00124   0.00000     -0.000   0.000  -0.000
   25 12 3Pdxz      0.00413   0.00000     -0.000   0.000   0.000
   25 13 3Pdx2-y2   0.00761   0.00000     -0.000  -0.000  -0.000
   25     Total     6.47936   0.00000      0.000   0.000   0.000

   29  1 2s         1.75196   0.00000     -0.000   0.000  -0.000
   29  2 2s         0.06037   0.00000      0.000  -0.000   0.000
   29  3 2py        1.47385   0.00000     -0.000   0.000  -0.000
   29  4 2pz        1.53878   0.00000     -0.000   0.000  -0.000
   29  5 2px        1.52401   0.00000      0.000   0.000  -0.000
   29  6 2py        0.04510   0.00000      0.000  -0.000   0.000
   29  7 2pz        0.00210   0.00000     -0.000   0.000  -0.000
   29  8 2px        0.04059   0.00000     -0.000   0.000   0.000
   29  9 3Pdxy      0.00788   0.00000     -0.000  -0.000   0.000
   29 10 3Pdyz      0.00456   0.00000      0.000   0.000   0.000
   29 11 3Pdz2      0.00151   0.00000     -0.000  -0.000   0.000
   29 12 3Pdxz      0.00621   0.00000      0.000   0.000   0.000
   29 13 3Pdx2-y2   0.00877   0.00000     -0.000  -0.000  -0.000
   29     Total     6.46568   0.00000     -0.000   0.000  -0.000

----------------------------------------------------------------
Total              98.00000   0.00000      0.000  -0.000  -0.000


siesta: Eigenvalues (eV):
ik =     1
  -23.0151  -23.0151  -22.7875  -22.7875  -22.0304  -22.0304  -21.1758  -21.1758  -20.9399  -20.9399
  -20.3246  -20.3246  -19.3520  -19.3520  -19.1727  -19.1727  -18.5936  -18.5936  -15.3741  -15.3741
  -14.4262  -14.4262  -13.6645  -13.6645  -13.5225  -13.5225  -13.3477  -13.3477  -12.8341  -12.8341
  -12.3596  -12.3596  -12.0591  -12.0591  -11.7390  -11.7390  -11.4268  -11.4268  -11.2778  -11.2778
  -10.7914  -10.7914  -10.7443  -10.7443  -10.1033  -10.1033   -9.9065   -9.9065   -9.6199   -9.6199
   -9.4481   -9.4481   -9.2025   -9.2025   -9.0171   -9.0171   -8.8559   -8.8559   -8.7509   -8.7509
   -8.5905   -8.5905   -8.2237   -8.2237   -8.1651   -8.1651   -8.0636   -8.0636   -7.9557   -7.9557
   -7.8003   -7.8003   -7.4460   -7.4460   -7.2821   -7.2821   -7.2462   -7.2462   -6.8612   -6.8612
   -6.7671   -6.7671   -6.5978   -6.5978   -6.5837   -6.5837   -6.2411   -6.2411   -6.1624   -6.1624
   -6.0196   -6.0196   -5.6313   -5.6313   -5.5186   -5.5186   -4.1316   -4.1316   -3.7909   -3.7909
   -2.9322   -2.9322   -2.5687   -2.5687   -2.2594   -2.2594   -2.1421   -2.1421   -2.0691   -2.0691
   -1.9368   -1.9368   -1.6710   -1.6710   -1.5608   -1.5608   -1.4748   -1.4748   -1.2263   -1.2263
   -1.1202   -1.1202   -0.4855   -0.4855   -0.4414   -0.4414   -0.2543   -0.2543   -0.1466   -0.1466
   -0.1280   -0.1280   -0.0194   -0.0194    0.2036    0.2036    0.3391    0.3391    0.6636    0.6636
    0.7274    0.7274    0.8205    0.8205    1.0154    1.0154    1.3155    1.3155    1.3898    1.3898
    1.5870    1.5870    1.8295    1.8295    2.0876    2.0876    2.2213    2.2213    2.3971    2.3971
    2.5397    2.5397    2.7393    2.7393    2.9009    2.9009    2.9577    2.9577    3.0413    3.0413
    3.1188    3.1188    3.1267    3.1267    3.3007    3.3007    3.7175    3.7175    3.8862    3.8862
    4.1498    4.1498    4.2776    4.2776    4.3160    4.3160    4.4530    4.4530    4.4777    4.4777
    4.5455    4.5455    4.7705    4.7705    4.8017    4.8017    5.0608    5.0608    5.1758    5.1758
    5.3475    5.3475    5.5040    5.5040    5.6583    5.6583    5.9058    5.9058    5.9912    5.9912
    6.1881    6.1881    6.2252    6.2252    6.3626    6.3626    6.4752    6.4752    6.6822    6.6822
    6.8806    6.8806    6.8891    6.8891    6.9021    6.9021    7.2202    7.2202    7.4769    7.4769
    7.5568    7.5568    7.6500    7.6500    7.7611    7.7611    7.9710    7.9710    8.1429    8.1429
    8.3806    8.3806    8.4524    8.4524    8.4850    8.4850    8.6744    8.6744    8.7535    8.7535
    9.0353    9.0353    9.2179    9.2179    9.2545    9.2545    9.5262    9.5262    9.6931    9.6931
    9.8278    9.8278    9.9293    9.9293   10.0582   10.0582   10.1283   10.1283   10.1432   10.1432
   10.5124   10.5124   10.7539   10.7539   10.8775   10.8775   11.2078   11.2078   11.2661   11.2661
   11.6052   11.6052   11.7591   11.7591   11.8134   11.8134   11.9674   11.9674   11.9962   11.9962
   12.2889   12.2889   12.5983   12.5983   12.7226   12.7226   12.9179   12.9179   12.9507   12.9507
   13.1608   13.1608   13.3666   13.3666   13.5377   13.5377   13.7896   13.7896   13.9121   13.9121
   14.1094   14.1094   14.2022   14.2022   14.7884   14.7884   14.8875   14.8875   15.1189   15.1189
   15.4973   15.4973   15.6290   15.6290   16.0676   16.0676   16.3082   16.3082   16.4680   16.4680
   16.7467   16.7467   17.1095   17.1095   17.1565   17.1565   17.5686   17.5686   17.9870   17.9870
   18.1480   18.1480   18.2831   18.2831   18.7281   18.7281   18.7598   18.7598   19.1366   19.1366
   19.2773   19.2773   19.7913   19.7913   19.9650   19.9650   20.4760   20.4760   21.0383   21.0383
   21.0974   21.0974   21.5170   21.5170   22.0613   22.0613   22.5010   22.5010   22.6197   22.6197
   23.0436   23.0436   23.2614   23.2614   23.5446   23.5446   23.6170   23.6170   23.9464   23.9464
   24.8882   24.8882   25.3165   25.3165   25.4206   25.4206   25.7425   25.7425   26.3788   26.3788
   26.6656   26.6656   27.0673   27.0673   27.5771   27.5771   28.1536   28.1536   28.3763   28.3763
   28.8413   28.8413   29.2109   29.2109   30.4631   30.4631   30.9273   30.9273   30.9561   30.9561
   31.2035   31.2035   31.3651   31.3651   31.5605   31.5605   31.9627   31.9627   32.3871   32.3871
   32.8124   32.8124   33.8316   33.8316   33.9565   33.9565   34.2516   34.2516   35.1033   35.1033
   35.1834   35.1834   35.4674   35.4674   35.6014   35.6014   36.2290   36.2290   36.6411   36.6411
   36.9211   36.9211   37.3274   37.3274   38.4679   38.4679   38.6251   38.6251   39.0574   39.0574
   39.4992   39.4992   39.6807   39.6807   40.1487   40.1487   40.8433   40.8433   41.2786   41.2786
   41.7434   41.7434   41.9530   41.9530   42.1655   42.1655   42.7135   42.7135   43.1568   43.1568
   43.4944   43.4944   43.6020   43.6020   44.2378   44.2378   44.5484   44.5484   45.0232   45.0232
   45.2637   45.2637   45.4903   45.4903   46.0957   46.0957   46.8016   46.8016   46.8160   46.8160
   47.3095   47.3095   47.7098   47.7098   47.7968   47.7968   48.4948   48.4948   48.7690   48.7690
   49.1210   49.1210   49.5747   49.5747   49.7155   49.7155   50.0212   50.0212   50.3890   50.3890
   50.9546   50.9546   50.9954   50.9954   51.7452   51.7452   52.9549   52.9549   52.9654   52.9654
   54.3146   54.3146   54.5325   54.5325   55.4918   55.4918   55.9946   55.9946   56.3696   56.3696
   57.2358   57.2358   57.8713   57.8713   58.2332   58.2332   58.8243   58.8243   59.1290   59.1290
   60.2707   60.2707   60.3194   60.3194   61.2625   61.2625   61.7901   61.7901   62.9485   62.9485
   63.0667   63.0667   63.6584   63.6584   63.9257   63.9257   65.9070   65.9070   66.5998   66.5998
   67.1779   67.1779   67.6276   67.6276   68.1573   68.1573   68.4931   68.4931   70.5690   70.5690
   71.7460   71.7460   72.6432   72.6432   78.2175   78.2175   85.5940   85.5940   92.5599   92.5599
   93.3370   93.3370   95.0727   95.0727   96.7080   96.7080   99.7895   99.7895  100.8405  100.8405
  103.2390  103.2390  103.4471  103.4471  116.2667  116.2667  122.9961  122.9961  124.3842  124.3842
  141.1524  141.1524  146.4610  146.4610
siesta: Fermi energy =      -3.961272 eV

siesta: Program's energy decomposition (eV):
siesta: Ebs     =     -1114.300043
siesta: Eions   =      3553.971015
siesta: Ena     =       377.597945
siesta: Ekin    =      2752.945522
siesta: Enl     =     -2533.498389
siesta: Eso     =        -0.004741
siesta: Edftu   =         0.000000
siesta: DEna    =        37.487091
siesta: DUscf   =        13.884707
siesta: DUext   =         0.000000
siesta: Exc     =     -1093.690860
siesta: eta*DQ  =         0.000000
siesta: Emadel  =         0.000000
siesta: Emeta   =         0.000000
siesta: Emolmec =         0.000000
siesta: Ekinion =         0.000000
siesta: Eharris =     -3999.249739
siesta: Etot    =     -3999.249739
siesta: FreeEng =     -3999.250816

siesta: Final energy (eV):
siesta:  Band Struct. =   -1114.300043
siesta:       Kinetic =    2752.945522
siesta:       Hartree =    7898.174459
siesta:       Edftu   =       0.000000
siesta:       Eso     =      -0.004741
siesta:    Ext. field =       0.000000
siesta:   Exch.-corr. =   -1093.690860
siesta:  Ion-electron =  -18244.091753
siesta:       Ion-ion =    4687.417633
siesta:       Ekinion =       0.000000
siesta:         Total =   -3999.249739
siesta:         Fermi =      -3.961272

siesta: Atomic forces (eV/Ang):
siesta:      1   -0.037860    0.049448    0.000004
siesta:      2   -0.014193   -0.070116   -0.000010
siesta:      3    0.018040    0.046855   -0.000017
siesta:      4   -0.061029   -0.009956    0.000013
siesta:      5   -0.000021   -0.044571   -0.000024
siesta:      6    0.114156   -0.000029    0.000085
siesta:      7   -0.643516    0.209890    0.000050
siesta:      8    0.217171   -0.491142   -0.000275
siesta:      9    0.076423    0.489554    0.000414
siesta:     10    0.109656   -0.017879    0.000038
siesta:     11    0.027351    0.238407   -0.000107
siesta:     12    0.423724    0.075581   -0.000056
siesta:     13   -0.144670   -0.153725   -0.000018
siesta:     14   -0.090141   -0.080250    0.000058
siesta:     15    0.013782    0.037337   -0.000031
siesta:     16    0.044577    0.098543    0.007943
siesta:     17    0.048689   -0.084078   -0.039657
siesta:     18   -0.066047    0.094289    0.008312
siesta:     19   -0.090547    0.003047   -0.041606
siesta:     20    0.042029   -0.035733    0.022915
siesta:     21   -0.157995    0.188015    0.069482
siesta:     22   -0.058314    0.089724    0.027671
siesta:     23    0.132301    0.078233   -0.034597
siesta:     24    0.424510   -0.066079   -0.026375
siesta:     25    0.008543    3.582255    0.002999
siesta:     26   -0.100338    0.455554    0.006787
siesta:     27   -0.118317   -0.828177    0.002878
siesta:     28   -0.263303   -0.125296   -0.000813
siesta:     29   -2.987998   -1.727751   -0.001071
siesta:     30    0.082070    0.117543    0.008047
siesta: ----------------------------------------
siesta:    Tot   -3.051269    2.119492    0.013041

siesta: Stress tensor (static) (eV/Ang**3):
siesta:    -0.001063    0.000162    0.000033
siesta:     0.000162   -0.000387   -0.000030
siesta:     0.000033   -0.000030   -0.000133

siesta: Cell volume =       4068.316301 Ang**3

siesta: Pressure (static):
siesta:                Solid            Molecule  Units
siesta:           0.00000575          0.00001095  Ry/Bohr**3
siesta:           0.00052755          0.00100566  eV/Ang**3
siesta:           0.84523035          1.61125617  kBar
(Free)E+ p_basis*V_orbitals  =       -3978.122731
(Free)Eharris+ p_basis*V_orbitals  =       -3978.122731
     spin moment: S , {S} =    0.00000   0.00000  -0.00000  -0.00000

siesta: Electric dipole (a.u.)  =   -0.179393    2.879057   -0.012888
siesta: Electric dipole (Debye) =   -0.455972    7.317838   -0.032758

cite: Please see "AT.bib" for an exhaustive BiBTeX file.
cite: Please clearly indicate Siesta version in published work: v4.1.5-1-g384057250
cite: This calculation has made use of the following articles
cite: which are encouraged to be cited in a published work.
        Primary SIESTA paper
          DOI: www.doi.org/10.1088/0953-8984/14/11/302
        Spin-orbit coupling (on-site approximation)
          DOI: www.doi.org/10.1088/0953-8984/19/19/489001


WARNING: alloc-realloc-dealloc name mismatch
         Name: atomlist isa
         Size:              -120. Bytes
         Node:     0
         Subsequent mismatches will not be reported
>> End of run:  22-MAY-2023   9:55:53
Job completed
