Siesta Version  : v4.1.5-1-g384057250
Architecture    : gcc
Compiler version: GNU Fortran (Ubuntu 11.3.0-1ubuntu1~22.04) 11.3.0
Compiler flags  : mpifort -O2 -fPIC -ftree-vectorize -fallow-argument-mismatch
PP flags        : -DFC_HAVE_ABORT -DMPI -DSIESTA__FLOOK -DSIESTA__METIS -DSIESTA__MUMPS -DCDF -DNCDF -DNCDF_4 -DNCDF_PARALLEL -DSIESTA__MRRR -DSIESTA__ELPA
Libraries       : libncdf.a libfdict.a  -lflookall -ldl -lnetcdff -lnetcdf -lhdf5_hl -lhdf5 -lhdf5_fortran -lz -lscalapack-openmpi -lopenblas -lmetis -lzmumps -lcmumps -ldmumps -lmumps_common -lpord -lsmumps -lesmumps -lscotch -lscotcherr -fopenmp -lelpa
PARALLEL version
NetCDF support
NetCDF-4 support
NetCDF-4 MPI-IO support
METIS ordering support
Lua support

* Running on 4 nodes in parallel
>> Start of run:  28-JUN-2023  14:38:25

                           ***********************       
                           *  WELCOME TO SIESTA  *       
                           ***********************       

reinit: Reading from standard input
reinit: Dumped input in INPUT_TMP.45538
************************** Dump of input data file ****************************
SystemLabel      GC
NumberOfAtoms    29
NumberOfSpecies  4
%block ChemicalSpeciesLabel
    1    8  O
    2    7  N
    3   14  Si
    4    1  H
%endblock ChemicalSpeciesLabel
# Single point calculation
MD.TypeOfRun                CG
MD.Steps                    0
SCF.MustConverge            F # In case it does not. There can be 2 very close atoms
AtomicCoordinatesFormat NotScaledCartesianAng
%block AtomicCoordinatesAndAtomicSpecies
1.043624880    3.939228610    0.000000000       1
-3.040641290   1.071078170    0.000000000       2
2.054601450    1.213582070    0.000000000       2
0.999014100    -1.732643800   0.000000000       2
-2.132351640   -1.812968220   0.000000000       2
3.860190550    -1.112298180   0.000000000       2
-1.236183220   1.152964460    0.000000000       3
-0.532924260   -0.939006270   0.000000000       3
0.635660470    2.374516770    0.000000000       3
2.245170240    -0.549967100   0.000000000       3
-3.449816660   -0.583665030   0.000000000       3
2.963714090    1.790992630    0.000000000       4
-4.845591350   -1.123549660   0.000000000       4
4.007020910    -2.152308560   0.000000000       4
4.772194380    -0.502318160   0.000000000       4
-2.265399090   -2.864605110   0.000000000       4
4.483986607    4.588482810    0.000000000       3
6.388870577    5.795121750    0.000000000       3
5.893116437    1.822147840    0.000000000       3
7.970586727    4.291365000    0.000000000       3
4.543609277    2.871055240    0.000000000       2
2.944851547    5.342160120    0.000000000       2
7.545411697    2.551985060    0.000000000       2
6.580215377    7.287275500    0.000000000       4
9.454954707    4.510095820    0.000000000       4
2.833506267    6.391355230    0.000000000       4
2.012293837    4.717245940    0.000000000       4
5.882889607    0.214036720    0.000000000       1
8.320837577    1.825293500    0.000000000       4
%endblock AtomicCoordinatesAndAtomicSpecies
%include ../../../Defaults.fdf
************************** End of input data file *****************************

reinit: -----------------------------------------------------------------------
reinit: System Name: 
reinit: -----------------------------------------------------------------------
reinit: System Label: GC
reinit: -----------------------------------------------------------------------

initatom: Reading input for the pseudopotentials and atomic orbitals ----------
Species number:   1 Atomic number:    8 Label: O
Species number:   2 Atomic number:    7 Label: N
Species number:   3 Atomic number:   14 Label: Si
Species number:   4 Atomic number:    1 Label: H

Ground state valence configuration:   2s02  2p04
Reading pseudopotential information in formatted form from O.psf

Pseudopotential generated from a relativistic atomic calculation

Valence configuration for pseudopotential generation:
2s( 2.00) rc: 0.45
2p( 4.00) rc: 0.92
3d( 0.00) rc: 2.24
4f( 0.00) rc: 0.25
Ground state valence configuration:   2s02  2p03
Reading pseudopotential information in formatted form from N.psf

Pseudopotential generated from a relativistic atomic calculation

Valence configuration for pseudopotential generation:
2s( 2.00) rc: 0.94
2p( 3.00) rc: 0.59
3d( 0.00) rc: 3.46
4f( 0.00) rc: 2.47
Ground state valence configuration:   3s02  3p02
Reading pseudopotential information in formatted form from Si.psf

Pseudopotential generated from a relativistic atomic calculation

Valence configuration for pseudopotential generation:
3s( 2.00) rc: 1.67
3p( 2.00) rc: 2.04
3d( 0.00) rc: 2.89
4f( 0.00) rc: 2.49
Ground state valence configuration:   1s01
Reading pseudopotential information in formatted form from H.psf

Pseudopotential generated from a relativistic atomic calculation

Valence configuration for pseudopotential generation:
1s( 1.00) rc: 0.01
2p( 0.00) rc: 0.60
3d( 0.00) rc: 1.99
4f( 0.00) rc: 2.49
For O, standard SIESTA heuristics set lmxkb to 3
 (one more than the basis l, including polarization orbitals).
Use PS.lmax or PS.KBprojectors blocks to override.
For N, standard SIESTA heuristics set lmxkb to 3
 (one more than the basis l, including polarization orbitals).
Use PS.lmax or PS.KBprojectors blocks to override.
For Si, standard SIESTA heuristics set lmxkb to 3
 (one more than the basis l, including polarization orbitals).
Use PS.lmax or PS.KBprojectors blocks to override.
For H, standard SIESTA heuristics set lmxkb to 2
 (one more than the basis l, including polarization orbitals).
Use PS.lmax or PS.KBprojectors blocks to override.

<basis_specs>
===============================================================================
O                    Z=   8    Mass=  16.000        Charge= 0.17977+309
Lmxo=1 Lmxkb= 3    BasisType=split      Semic=F
L=0  Nsemic=0  Cnfigmx=2
          i=1  nzeta=2  polorb=0  (2s)
            splnorm:   0.28000    
               vcte:    0.0000    
               rinn:    0.0000    
               qcoe:    0.0000    
               qyuk:    0.0000    
               qwid:   0.10000E-01
                rcs:    0.0000      0.0000    
            lambdas:    1.0000      1.0000    
L=1  Nsemic=0  Cnfigmx=2
          i=1  nzeta=2  polorb=1  (2p)
            splnorm:   0.28000    
               vcte:    0.0000    
               rinn:    0.0000    
               qcoe:    0.0000    
               qyuk:    0.0000    
               qwid:   0.10000E-01
                rcs:    0.0000      0.0000    
            lambdas:    1.0000      1.0000    
-------------------------------------------------------------------------------
L=0  Nkbl=1  erefs: 0.17977+309
L=1  Nkbl=1  erefs: 0.17977+309
L=2  Nkbl=1  erefs: 0.17977+309
L=3  Nkbl=1  erefs: 0.17977+309
===============================================================================
</basis_specs>

atom: Called for O                     (Z =   8)

read_vps: Pseudopotential generation method:
read_vps: ATM4.2.7  Troullier-Martins                       
Valence charge for ps generation:    6.00000

xc_check: Exchange-correlation functional:
xc_check: GGA Perdew, Burke & Ernzerhof 1996
V l=0 = -2*Zval/r beyond r=  1.1000
V l=1 = -2*Zval/r beyond r=  1.1000
V l=2 = -2*Zval/r beyond r=  2.2154
V l=3 = -2*Zval/r beyond r=  1.1000
All V_l potentials equal beyond r=  2.2154
This should be close to max(r_c) in ps generation
All pots = -2*Zval/r beyond r=  2.2154

VLOCAL1: 99.0% of the norm of Vloc inside      8.845 Ry
VLOCAL1: 99.9% of the norm of Vloc inside     20.157 Ry
atom: Maximum radius for 4*pi*r*r*local-pseudopot. charge    2.67231
atom: Maximum radius for r*vlocal+2*Zval:    2.32897
GHOST: No ghost state for L =  0
GHOST: No ghost state for L =  1
GHOST: No ghost state for L =  2
GHOST: No ghost state for L =  3

KBgen: Kleinman-Bylander projectors: 
   l= 0   rc=  2.243238   el= -1.759686   Ekb=**********   kbcos= -0.171774
   l= 1   rc=  2.328968   el= -0.663873   Ekb=-14.506792   kbcos= -0.519897
   l= 2   rc=  2.573941   el=  0.002031   Ekb= -1.137373   kbcos= -0.019581
   l= 3   rc=  2.606321   el=  0.003153   Ekb= -1.013546   kbcos= -0.003122

KBgen: Total number of Kleinman-Bylander projectors:   16
atom: -------------------------------------------------------------------------

atom: SANKEY-TYPE ORBITALS:
atom: Selected multiple-zeta basis: split     

SPLIT: Orbitals with angular momentum L= 0

SPLIT: Basis orbitals for state 2s

SPLIT: PAO cut-off radius determined from an
SPLIT: energy shift=  0.002000 Ry

   izeta = 1
                 lambda =    1.000000
                     rc =    4.243912
                 energy =   -1.758270
                kinetic =    3.286084
    potential(screened) =   -5.044353
       potential(ionic) =  -12.921184

   izeta = 2
                 rmatch =    2.187845
              splitnorm =    0.280000
                 energy =   -0.885018
                kinetic =    8.134434
    potential(screened) =   -9.019452
       potential(ionic) =  -17.710645

SPLIT: Orbitals with angular momentum L= 1

SPLIT: Basis orbitals for state 2p

SPLIT: PAO cut-off radius determined from an
SPLIT: energy shift=  0.002000 Ry

   izeta = 1
                 lambda =    1.000000
                     rc =    5.314825
                 energy =   -0.661986
                kinetic =    4.917472
    potential(screened) =   -5.579458
       potential(ionic) =  -13.236259

   izeta = 2
                 rmatch =    2.160663
              splitnorm =    0.280000
                 energy =   -0.068760
                kinetic =    9.183374
    potential(screened) =   -9.252135
       potential(ionic) =  -18.274251

POLgen: Perturbative polarization orbital with L=  2

POLgen: Polarization orbital for state 2p

   izeta = 1
                     rc =    5.314825
                 energy =    1.970580
                kinetic =    3.886128
    potential(screened) =   -1.915547
       potential(ionic) =   -7.749584
atom: Total number of Sankey-type orbitals: 13

atm_pop: Valence configuration (for local Pseudopot. screening):
 2s( 2.00)                                                            
 2p( 4.00)                                                            
Vna: chval, zval:    6.00000   6.00000

Vna:  Cut-off radius for the neutral-atom potential:   5.314825

atom: _________________________________________________________________________

<basis_specs>
===============================================================================
N                    Z=   7    Mass=  14.010        Charge= 0.17977+309
Lmxo=1 Lmxkb= 3    BasisType=split      Semic=F
L=0  Nsemic=0  Cnfigmx=2
          i=1  nzeta=2  polorb=0  (2s)
            splnorm:   0.28000    
               vcte:    0.0000    
               rinn:    0.0000    
               qcoe:    0.0000    
               qyuk:    0.0000    
               qwid:   0.10000E-01
                rcs:    0.0000      0.0000    
            lambdas:    1.0000      1.0000    
L=1  Nsemic=0  Cnfigmx=2
          i=1  nzeta=2  polorb=1  (2p)
            splnorm:   0.28000    
               vcte:    0.0000    
               rinn:    0.0000    
               qcoe:    0.0000    
               qyuk:    0.0000    
               qwid:   0.10000E-01
                rcs:    0.0000      0.0000    
            lambdas:    1.0000      1.0000    
-------------------------------------------------------------------------------
L=0  Nkbl=1  erefs: 0.17977+309
L=1  Nkbl=1  erefs: 0.17977+309
L=2  Nkbl=1  erefs: 0.17977+309
L=3  Nkbl=1  erefs: 0.17977+309
===============================================================================
</basis_specs>

atom: Called for N                     (Z =   7)

read_vps: Pseudopotential generation method:
read_vps: ATM4.2.7  Troullier-Martins                       
Valence charge for ps generation:    5.00000

xc_check: Exchange-correlation functional:
xc_check: GGA Perdew, Burke & Ernzerhof 1996
V l=0 = -2*Zval/r beyond r=  1.2889
V l=1 = -2*Zval/r beyond r=  1.2889
V l=2 = -2*Zval/r beyond r=  3.4178
V l=3 = -2*Zval/r beyond r=  2.4084
All V_l potentials equal beyond r=  3.3753
This should be close to max(r_c) in ps generation
All pots = -2*Zval/r beyond r=  3.4178

VLOCAL1: 99.0% of the norm of Vloc inside      3.810 Ry
VLOCAL1: 99.9% of the norm of Vloc inside      8.683 Ry
atom: Maximum radius for 4*pi*r*r*local-pseudopot. charge    4.02088
atom: Maximum radius for r*vlocal+2*Zval:    3.54838
GHOST: No ghost state for L =  0
GHOST: No ghost state for L =  1
GHOST: No ghost state for L =  2
GHOST: No ghost state for L =  3

KBgen: Kleinman-Bylander projectors: 
   l= 0   rc=  3.417763   el= -1.365098   Ekb= -4.433130   kbcos= -0.707855
   l= 1   rc=  3.375302   el= -0.521201   Ekb=-13.264039   kbcos= -0.535594
   l= 2   rc=  3.872880   el=  0.001991   Ekb= -0.641094   kbcos= -0.062456
   l= 3   rc=  3.970931   el=  0.003093   Ekb= -0.474517   kbcos= -0.018236

KBgen: Total number of Kleinman-Bylander projectors:   16
atom: -------------------------------------------------------------------------

atom: SANKEY-TYPE ORBITALS:
atom: Selected multiple-zeta basis: split     

SPLIT: Orbitals with angular momentum L= 0

SPLIT: Basis orbitals for state 2s

SPLIT: PAO cut-off radius determined from an
SPLIT: energy shift=  0.002000 Ry

   izeta = 1
                 lambda =    1.000000
                     rc =    4.730425
                 energy =   -1.363399
                kinetic =    1.245246
    potential(screened) =   -2.608645
       potential(ionic) =   -8.121105

   izeta = 2
                 rmatch =    2.531849
              splitnorm =    0.280000
                 energy =   -0.959908
                kinetic =    2.409435
    potential(screened) =   -3.369343
       potential(ionic) =   -9.427975

SPLIT: Orbitals with angular momentum L= 1

SPLIT: Basis orbitals for state 2p

SPLIT: PAO cut-off radius determined from an
SPLIT: energy shift=  0.002000 Ry

   izeta = 1
                 lambda =    1.000000
                     rc =    5.924108
                 energy =   -0.519262
                kinetic =    3.672940
    potential(screened) =   -4.192202
       potential(ionic) =   -9.518354

   izeta = 2
                 rmatch =    2.531849
              splitnorm =    0.280000
                 energy =   -0.104258
                kinetic =    6.807538
    potential(screened) =   -6.911796
       potential(ionic) =  -13.149920

POLgen: Perturbative polarization orbital with L=  2

POLgen: Polarization orbital for state 2p

   izeta = 1
                     rc =    5.924108
                 energy =    1.427508
                kinetic =    2.872379
    potential(screened) =   -1.444871
       potential(ionic) =   -5.563644
atom: Total number of Sankey-type orbitals: 13

atm_pop: Valence configuration (for local Pseudopot. screening):
 2s( 2.00)                                                            
 2p( 3.00)                                                            
Vna: chval, zval:    5.00000   5.00000

Vna:  Cut-off radius for the neutral-atom potential:   5.924108

atom: _________________________________________________________________________

<basis_specs>
===============================================================================
Si                   Z=  14    Mass=  28.090        Charge= 0.17977+309
Lmxo=1 Lmxkb= 3    BasisType=split      Semic=F
L=0  Nsemic=0  Cnfigmx=3
          i=1  nzeta=2  polorb=0  (3s)
            splnorm:   0.28000    
               vcte:    0.0000    
               rinn:    0.0000    
               qcoe:    0.0000    
               qyuk:    0.0000    
               qwid:   0.10000E-01
                rcs:    0.0000      0.0000    
            lambdas:    1.0000      1.0000    
L=1  Nsemic=0  Cnfigmx=3
          i=1  nzeta=2  polorb=1  (3p)
            splnorm:   0.28000    
               vcte:    0.0000    
               rinn:    0.0000    
               qcoe:    0.0000    
               qyuk:    0.0000    
               qwid:   0.10000E-01
                rcs:    0.0000      0.0000    
            lambdas:    1.0000      1.0000    
-------------------------------------------------------------------------------
L=0  Nkbl=1  erefs: 0.17977+309
L=1  Nkbl=1  erefs: 0.17977+309
L=2  Nkbl=1  erefs: 0.17977+309
L=3  Nkbl=1  erefs: 0.17977+309
===============================================================================
</basis_specs>

atom: Called for Si                    (Z =  14)

read_vps: Pseudopotential generation method:
read_vps: ATM4.2.7  Troullier-Martins                       
Valence charge for ps generation:    4.00000

xc_check: Exchange-correlation functional:
xc_check: GGA Perdew, Burke & Ernzerhof 1996
V l=0 = -2*Zval/r beyond r=  2.7826
V l=1 = -2*Zval/r beyond r=  2.7826
V l=2 = -2*Zval/r beyond r=  2.9253
V l=3 = -2*Zval/r beyond r=  2.7826
All V_l potentials equal beyond r=  2.8530
This should be close to max(r_c) in ps generation
All pots = -2*Zval/r beyond r=  2.9253

VLOCAL1: 99.0% of the norm of Vloc inside      5.333 Ry
VLOCAL1: 99.9% of the norm of Vloc inside     12.154 Ry
atom: Maximum radius for 4*pi*r*r*local-pseudopot. charge    3.39869
atom: Maximum radius for r*vlocal+2*Zval:    2.96205
GHOST: No ghost state for L =  0
GHOST: No ghost state for L =  1
GHOST: No ghost state for L =  2
GHOST: No ghost state for L =  3

KBgen: Kleinman-Bylander projectors: 
   l= 0   rc=  3.075247   el= -0.794092   Ekb=  5.879390   kbcos=  0.167461
   l= 1   rc=  3.153101   el= -0.300068   Ekb=  2.642817   kbcos=  0.058301
   l= 2   rc=  3.273594   el=  0.001958   Ekb= -1.185135   kbcos= -0.104411
   l= 3   rc=  3.232927   el=  0.003046   Ekb= -0.497174   kbcos= -0.015889

KBgen: Total number of Kleinman-Bylander projectors:   16
atom: -------------------------------------------------------------------------

atom: SANKEY-TYPE ORBITALS:
atom: Selected multiple-zeta basis: split     

SPLIT: Orbitals with angular momentum L= 0

SPLIT: Basis orbitals for state 3s

SPLIT: PAO cut-off radius determined from an
SPLIT: energy shift=  0.002000 Ry

   izeta = 1
                 lambda =    1.000000
                     rc =    6.429618
                 energy =   -0.792283
                kinetic =    0.525293
    potential(screened) =   -1.317576
       potential(ionic) =   -3.744923

   izeta = 2
                 rmatch =    3.998416
              splitnorm =    0.280000
                 energy =   -0.583081
                kinetic =    1.069570
    potential(screened) =   -1.652651
       potential(ionic) =   -4.235185

SPLIT: Orbitals with angular momentum L= 1

SPLIT: Basis orbitals for state 3p

SPLIT: PAO cut-off radius determined from an
SPLIT: energy shift=  0.002000 Ry

   izeta = 1
                 lambda =    1.000000
                     rc =    8.464845
                 energy =   -0.298236
                kinetic =    0.785360
    potential(screened) =   -1.083596
       potential(ionic) =   -3.273779

   izeta = 2
                 rmatch =    4.587816
              splitnorm =    0.280000
                 energy =   -0.131871
                kinetic =    1.403687
    potential(screened) =   -1.535557
       potential(ionic) =   -4.015310

POLgen: Perturbative polarization orbital with L=  2

POLgen: Polarization orbital for state 3p

   izeta = 1
                     rc =    8.464845
                 energy =    0.321949
                kinetic =    1.055677
    potential(screened) =   -0.733728
       potential(ionic) =   -2.672950
atom: Total number of Sankey-type orbitals: 13

atm_pop: Valence configuration (for local Pseudopot. screening):
 3s( 2.00)                                                            
 3p( 2.00)                                                            
Vna: chval, zval:    4.00000   4.00000

Vna:  Cut-off radius for the neutral-atom potential:   8.464845

atom: _________________________________________________________________________

<basis_specs>
===============================================================================
H                    Z=   1    Mass=  1.0100        Charge= 0.17977+309
Lmxo=0 Lmxkb= 2    BasisType=split      Semic=F
L=0  Nsemic=0  Cnfigmx=1
          i=1  nzeta=2  polorb=1  (1s)
            splnorm:   0.62000    
               vcte:    0.0000    
               rinn:    0.0000    
               qcoe:    0.0000    
               qyuk:    0.0000    
               qwid:   0.10000E-01
                rcs:    0.0000      0.0000    
            lambdas:    1.0000      1.0000    
-------------------------------------------------------------------------------
L=0  Nkbl=1  erefs: 0.17977+309
L=1  Nkbl=1  erefs: 0.17977+309
L=2  Nkbl=1  erefs: 0.17977+309
===============================================================================
</basis_specs>

atom: Called for H                     (Z =   1)

read_vps: Pseudopotential generation method:
read_vps: ATM4.2.7  Troullier-Martins                       
Valence charge for ps generation:    1.00000

xc_check: Exchange-correlation functional:
xc_check: GGA Perdew, Burke & Ernzerhof 1996
V l=0 = -2*Zval/r beyond r=  0.0098
V l=1 = -2*Zval/r beyond r=  0.5817
V l=2 = -2*Zval/r beyond r=  1.9372
All V_l potentials equal beyond r=  1.9372
This should be close to max(r_c) in ps generation
All pots = -2*Zval/r beyond r=  1.9372

VLOCAL1: 99.0% of the norm of Vloc inside     11.567 Ry
VLOCAL1: 99.9% of the norm of Vloc inside     26.362 Ry
atom: Maximum radius for 4*pi*r*r*local-pseudopot. charge    2.25106
atom: Maximum radius for r*vlocal+2*Zval:    1.91306
GHOST: No ghost state for L =  0
GHOST: No ghost state for L =  1
GHOST: No ghost state for L =  2

KBgen: Kleinman-Bylander projectors: 
   l= 0   rc=  2.036604   el= -0.477180   Ekb= -6.081590   kbcos= -0.277285
   l= 1   rc=  2.195416   el=  0.001076   Ekb= -0.926943   kbcos= -0.034643
   l= 2   rc=  2.251056   el=  0.002010   Ekb= -0.130941   kbcos= -0.009788

KBgen: Total number of Kleinman-Bylander projectors:    9
atom: -------------------------------------------------------------------------

atom: SANKEY-TYPE ORBITALS:
atom: Selected multiple-zeta basis: split     

SPLIT: Orbitals with angular momentum L= 0

SPLIT: Basis orbitals for state 1s

SPLIT: PAO cut-off radius determined from an
SPLIT: energy shift=  0.002000 Ry

   izeta = 1
                 lambda =    1.000000
                     rc =    6.518340
                 energy =   -0.475305
                kinetic =    0.912139
    potential(screened) =   -1.387444
       potential(ionic) =   -1.907295

   izeta = 2
                 rmatch =    2.141150
              splitnorm =    0.620000
                 energy =    0.566467
                kinetic =    3.772856
    potential(screened) =   -3.206389
       potential(ionic) =   -3.759093

POLgen: Perturbative polarization orbital with L=  1

POLgen: Polarization orbital for state 1s

   izeta = 1
                     rc =    6.518340
                 energy =    0.533861
                kinetic =    1.121086
    potential(screened) =   -0.587225
       potential(ionic) =   -1.053027
atom: Total number of Sankey-type orbitals:  5

atm_pop: Valence configuration (for local Pseudopot. screening):
 1s( 1.00)                                                            
Vna: chval, zval:    1.00000   1.00000

Vna:  Cut-off radius for the neutral-atom potential:   6.518340

atom: _________________________________________________________________________

prinput: Basis input ----------------------------------------------------------

PAO.BasisType split     

%block ChemicalSpeciesLabel
    1    8 O                       # Species index, atomic number, species label
    2    7 N                       # Species index, atomic number, species label
    3   14 Si                      # Species index, atomic number, species label
    4    1 H                       # Species index, atomic number, species label
%endblock ChemicalSpeciesLabel

%block PAO.Basis                 # Define Basis set
O                     2                    # Species label, number of l-shells
 n=2   0   2                         # n, l, Nzeta 
   4.244      2.188   
   1.000      1.000   
 n=2   1   2 P   1                   # n, l, Nzeta, Polarization, NzetaPol
   5.315      2.161   
   1.000      1.000   
N                     2                    # Species label, number of l-shells
 n=2   0   2                         # n, l, Nzeta 
   4.730      2.532   
   1.000      1.000   
 n=2   1   2 P   1                   # n, l, Nzeta, Polarization, NzetaPol
   5.924      2.532   
   1.000      1.000   
Si                    2                    # Species label, number of l-shells
 n=3   0   2                         # n, l, Nzeta 
   6.430      3.998   
   1.000      1.000   
 n=3   1   2 P   1                   # n, l, Nzeta, Polarization, NzetaPol
   8.465      4.588   
   1.000      1.000   
H                     1                    # Species label, number of l-shells
 n=1   0   2 P   1                   # n, l, Nzeta, Polarization, NzetaPol
   6.518      2.141   
   1.000      1.000   
%endblock PAO.Basis

prinput: ----------------------------------------------------------------------

Dumping basis to NetCDF file O.ion.nc
Dumping basis to NetCDF file N.ion.nc
Dumping basis to NetCDF file Si.ion.nc
Dumping basis to NetCDF file H.ion.nc
coor:   Atomic-coordinates input format  =     Cartesian coordinates
coor:                                          (in Angstroms)

siesta: Atomic coordinates (Bohr) and species
siesta:      1.97217   7.44407   0.00000  1        1
siesta:     -5.74598   2.02405   0.00000  2        2
siesta:      3.88264   2.29334   0.00000  2        3
siesta:      1.88786  -3.27422   0.00000  2        4
siesta:     -4.02956  -3.42601   0.00000  2        5
siesta:      7.29471  -2.10194   0.00000  2        6
siesta:     -2.33605   2.17879   0.00000  3        7
siesta:     -1.00708  -1.77447   0.00000  3        8
siesta:      1.20122   4.48719   0.00000  3        9
siesta:      4.24276  -1.03929   0.00000  3       10
siesta:     -6.51921  -1.10297   0.00000  3       11
siesta:      5.60061   3.38449   0.00000  4       12
siesta:     -9.15684  -2.12320   0.00000  4       13
siesta:      7.57218  -4.06728   0.00000  4       14
siesta:      9.01814  -0.94924   0.00000  4       15
siesta:     -4.28099  -5.41332   0.00000  4       16
siesta:      8.47351   8.67098   0.00000  3       17
siesta:     12.07322  10.95120   0.00000  3       18
siesta:     11.13638   3.44336   0.00000  3       19
siesta:     15.06223   8.10951   0.00000  3       20
siesta:      8.58618   5.42551   0.00000  2       21
siesta:      5.56497  10.09522   0.00000  2       22
siesta:     14.25877   4.82255   0.00000  2       23
siesta:     12.43481  13.77096   0.00000  4       24
siesta:     17.86728   8.52285   0.00000  4       25
siesta:      5.35455  12.07792   0.00000  4       26
siesta:      3.80269   8.91431   0.00000  4       27
siesta:     11.11705   0.40447   0.00000  1       28
siesta:     15.72411   3.44931   0.00000  4       29

siesta: Automatic unit cell vectors (Ang):
siesta:   23.319183    0.000000    0.000000
siesta:    0.000000   18.755651    0.000000
siesta:    0.000000    0.000000    9.854683

siesta: System type = molecule  

initatomlists: Number of atoms, orbitals, and projectors:     29   297   394

siesta: ******************** Simulation parameters ****************************
siesta:
siesta: The following are some of the parameters of the simulation.
siesta: A complete list of the parameters used, including default values,
siesta: can be found in file out.fdf
siesta:
redata: Spin configuration                          = spin-orbit
redata: Number of spin components                   = 8
redata: Time-Reversal Symmetry                      = F
redata: Spin spiral                                 = F
############################################################
This spin-orbit implementation uses a local approximation.
From 4.2 and onwards the full non-local approximation is implemented
You are strongly advised to use >=4.2 versions!
############################################################
redata: Long output                                 =   F
redata: Number of Atomic Species                    =        4
redata: Charge density info will appear in .RHO file
redata: Write Mulliken Pop.                         = Atomic and Orbital charges
redata: Matel table size (NRTAB)                    =     1024
redata: Mesh Cutoff                                 =   340.0000 Ry
redata: Net charge of the system                    =     0.0000 |e|
redata: Min. number of SCF Iter                     =        1
redata: Max. number of SCF Iter                     =      200
redata: SCF mix quantity                            = Hamiltonian
redata: Mix DM or H after convergence               =   F
redata: Recompute H after scf cycle                 =   F
redata: Mix DM in first SCF step                    =   T
redata: Write Pulay info on disk                    =   F
redata: New DM Occupancy tolerance                  = 0.000000000001
redata: No kicks to SCF
redata: DM Mixing Weight for Kicks                  =     0.5000
redata: Require Harris convergence for SCF          =   F
redata: Harris energy tolerance for SCF             =     0.000100 eV
redata: Require DM convergence for SCF              =   T
redata: DM tolerance for SCF                        =     0.000008
redata: Require EDM convergence for SCF             =   F
redata: EDM tolerance for SCF                       =     0.001000 eV
redata: Require H convergence for SCF               =   T
redata: Hamiltonian tolerance for SCF               =     0.000001 eV
redata: Require (free) Energy convergence for SCF   =   F
redata: (free) Energy tolerance for SCF             =     0.000100 eV
redata: Using Saved Data (generic)                  =   F
redata: Use continuation files for DM               =   F
redata: Neglect nonoverlap interactions             =   F
redata: Method of Calculation                       = Diagonalization
redata: Electronic Temperature                      =   299.9978 K
redata: Fix the spin of the system                  =   F
redata: Dynamics option                             = Single-point calculation
mix.SCF: Pulay mixing                            = Pulay
mix.SCF:    Variant                              = stable
mix.SCF:    History steps                        = 6
mix.SCF:    Linear mixing weight                 =     0.250000
mix.SCF:    Mixing weight                        =     0.250000
mix.SCF:    SVD condition                        = 0.1000E-07
mix.SCF:    Restart steps                        = 24
mix.SCF:    Restart save steps                   = 3
mix.SCF: Spin-component mixing                   all
redata: Save all siesta data in one NC              =   F
redata: ***********************************************************************

%block SCF.Mixers
  Pulay
%endblock SCF.Mixers

%block SCF.Mixer.Pulay
  # Mixing method
  method pulay
  variant stable

  # Mixing options
  weight 0.2500
  weight.linear 0.2500
  history 6
  restart 24
  restart.save 3
%endblock SCF.Mixer.Pulay

DM_history_depth set to one: no extrapolation allowed by default for geometry relaxation
Size of DM history Fstack: 1
Total number of electrons:    98.000000
Total ionic charge:    98.000000

* ProcessorY, Blocksize:    2  24


* Orbital distribution balance (max,min):    81    72


Time-reversal symmetry not used.

siesta: k-grid: Number of k-points =     1
siesta: k-grid: Cutoff (effective) =     4.927 Ang
siesta: k-grid: Supercell and displacements
siesta: k-grid:    1   0   0      0.000
siesta: k-grid:    0   1   0      0.000
siesta: k-grid:    0   0   1      0.000

diag: Algorithm                                     = ELPA-1stage
diag: Parallel over k                               =   F
diag: Use parallel 2D distribution                  =   T
diag: Parallel block-size                           = 24
diag: Parallel distribution                         =     2 x     2
diag: Used triangular part                          = Lower
diag: Absolute tolerance                            =  0.100E-15
diag: Orthogonalization factor                      =  0.100E-05
diag: Memory factor                                 =  1.0000


ts: **************************************************************
ts: Save H and S matrices                           =    F
ts: Save DM and EDM matrices                        =    F
ts: Only save the overlap matrix S                  =    F
ts: **************************************************************

************************ Begin: TS CHECKS AND WARNINGS ************************
************************ End: TS CHECKS AND WARNINGS **************************


                     ====================================
                        Single-point calculation
                     ====================================

outcoor: Atomic coordinates (Ang):                          
    1.04362488    3.93922861    0.00000000   1       1  O
   -3.04064129    1.07107817    0.00000000   2       2  N
    2.05460145    1.21358207    0.00000000   2       3  N
    0.99901410   -1.73264380    0.00000000   2       4  N
   -2.13235164   -1.81296822    0.00000000   2       5  N
    3.86019055   -1.11229818    0.00000000   2       6  N
   -1.23618322    1.15296446    0.00000000   3       7  Si
   -0.53292426   -0.93900627    0.00000000   3       8  Si
    0.63566047    2.37451677    0.00000000   3       9  Si
    2.24517024   -0.54996710    0.00000000   3      10  Si
   -3.44981666   -0.58366503    0.00000000   3      11  Si
    2.96371409    1.79099263    0.00000000   4      12  H
   -4.84559135   -1.12354966    0.00000000   4      13  H
    4.00702091   -2.15230856    0.00000000   4      14  H
    4.77219438   -0.50231816    0.00000000   4      15  H
   -2.26539909   -2.86460511    0.00000000   4      16  H
    4.48398661    4.58848281    0.00000000   3      17  Si
    6.38887058    5.79512175    0.00000000   3      18  Si
    5.89311644    1.82214784    0.00000000   3      19  Si
    7.97058673    4.29136500    0.00000000   3      20  Si
    4.54360928    2.87105524    0.00000000   2      21  N
    2.94485155    5.34216012    0.00000000   2      22  N
    7.54541170    2.55198506    0.00000000   2      23  N
    6.58021538    7.28727550    0.00000000   4      24  H
    9.45495471    4.51009582    0.00000000   4      25  H
    2.83350627    6.39135523    0.00000000   4      26  H
    2.01229384    4.71724594    0.00000000   4      27  H
    5.88288961    0.21403672    0.00000000   1      28  O
    8.32083758    1.82529350    0.00000000   4      29  H

outcell: Unit cell vectors (Ang):
       23.319183    0.000000    0.000000
        0.000000   18.755651    0.000000
        0.000000    0.000000    9.854683

outcell: Cell vector modules (Ang)   :   23.319183   18.755651    9.854683
outcell: Cell angles (23,13,12) (deg):     90.0000     90.0000     90.0000
outcell: Cell volume (Ang**3)        :   4310.1081
<dSpData1D:S at geom step 0
  <sparsity:sparsity for geom step 0
    nrows_g=297 nrows=81 sparsity=.2394 nnzs=21113, refcount: 8>
  <dData1D:(new from dSpData1D) n=21113, refcount: 1>
refcount: 1>
new_DM -- step:     1
Initializing Density Matrix...
DM filled with atomic data:
<dSpData2D:DM initialized from atoms
  <sparsity:sparsity for geom step 0
    nrows_g=297 nrows=81 sparsity=.2394 nnzs=21113, refcount: 9>
  <dData2D:DM n=21113 m=8, refcount: 1>
refcount: 1>
     spin moment: S , {S} =   56.00000   0.00000   0.00000  56.00000
No. of atoms with KB's overlaping orbs in proc 0. Max # of overlaps:      29     215

Initializing spin-orbit part of the Hamiltonian
  Adding spin-orbit effects for O 
  Adding spin-orbit effects for N 
  Adding spin-orbit effects for Si
  Adding spin-orbit effects for H 


New grid distribution:   1
           1       1:  135    1:   54    1:   30
           2       1:  135    1:   54   31:   60
           3       1:  135   55:  108    1:   30
           4       1:  135   55:  108   31:   60

InitMesh: MESH =   270 x   216 x   120 =     6998400
InitMesh: (bp) =   135 x   108 x    60 =      874800
InitMesh: Mesh cutoff (required, used) =   340.000   366.560 Ry
ExtMesh (bp) on 0 =   239 x   158 x   142 =     5362204
New grid distribution:   2
           1      31:  135    1:   23    1:   60
           2       1:   30    1:   22    1:   60
           3      31:  135   24:  108    1:   60
           4       1:   30   23:  108    1:   60
New grid distribution:   3
           1      44:  135    1:   31    1:   60
           2       1:   43    1:   37    1:   60
           3      44:  135   32:  108    1:   60
           4       1:   43   38:  108    1:   60
Setting up quadratic distribution...
ExtMesh (bp) on 0 =   209 x   127 x   172 =     4565396
PhiOnMesh: Number of (b)points on node 0 =               144900
PhiOnMesh: nlist on node 0 =              2627137

stepf: Fermi-Dirac step function

siesta: Program's energy decomposition (eV):
siesta: Ebs     =      -607.712372
siesta: Eions   =      3585.165840
siesta: Ena     =       382.677125
siesta: Ekin    =      3374.345189
siesta: Enl     =     -3304.148685
siesta: Eso     =        -0.003466
siesta: Edftu   =         0.000000
siesta: DEna    =       156.442905
siesta: DUscf   =        78.679984
siesta: DUext   =         0.000000
siesta: Exc     =     -1206.380139
siesta: eta*DQ  =         0.000000
siesta: Emadel  =         0.000000
siesta: Emeta   =         0.000000
siesta: Emolmec =         0.000000
siesta: Ekinion =         0.000000
siesta: Eharris =     -4022.713014
siesta: Etot    =     -4103.552926
siesta: FreeEng =     -4103.554438

        iscf     Eharris(eV)        E_KS(eV)     FreeEng(eV)     dDmax    Ef(eV) dHmax(eV)
   scf:    1    -4022.713014    -4103.552926    -4103.554438  0.952640 -4.908361 20.016002
     spin moment: S , {S} =    2.00695  -0.00000   0.00000   2.00695
timer: Routine,Calls,Time,% = IterSCF        1      12.572  16.97
   scf:    2    -4150.769467    -4138.325815    -4138.327535  0.474772 -4.182632 11.103766
     spin moment: S , {S} =    1.99010  -0.00000  -0.00000   1.99010
   scf:    3    -4112.608160    -4135.662972    -4135.689509  0.433643 -4.235476 11.219537
     spin moment: S , {S} =    2.00011   0.00000  -0.00000   2.00011
   scf:    4    -4150.876721    -4146.027914    -4146.027915  0.289689 -3.865440  5.773390
     spin moment: S , {S} =    0.00010   0.00000  -0.00000   0.00010
   scf:    5    -4147.213904    -4146.719087    -4146.719087  0.037070 -3.673929  4.565468
     spin moment: S , {S} =    0.00006   0.00000  -0.00000   0.00006
   scf:    6    -4147.566016    -4147.145793    -4147.145793  0.027451 -3.640294  2.179711
     spin moment: S , {S} =    0.00003  -0.00000  -0.00000   0.00003
   scf:    7    -4147.506296    -4147.328679    -4147.328679  0.020689 -3.687779  0.814593
     spin moment: S , {S} =    0.00001   0.00000   0.00000   0.00001
   scf:    8    -4147.450219    -4147.387887    -4147.387887  0.012738 -3.777199  0.407358
     spin moment: S , {S} =    0.00000   0.00000  -0.00000   0.00000
   scf:    9    -4147.423685    -4147.405348    -4147.405348  0.006907 -3.774786  0.273172
     spin moment: S , {S} =    0.00000   0.00000  -0.00000   0.00000
   scf:   10    -4147.447300    -4147.423943    -4147.423943  0.013725 -3.786206  0.128347
     spin moment: S , {S} =    0.00000   0.00000   0.00000  -0.00000
   scf:   11    -4147.429014    -4147.426299    -4147.426299  0.005236 -3.781149  0.059515
     spin moment: S , {S} =    0.00000   0.00000   0.00000   0.00000
   scf:   12    -4147.427947    -4147.427084    -4147.427084  0.002971 -3.777359  0.036003
     spin moment: S , {S} =    0.00000   0.00000  -0.00000   0.00000
   scf:   13    -4147.428015    -4147.427519    -4147.427519  0.002319 -3.774884  0.030516
     spin moment: S , {S} =    0.00000   0.00000  -0.00000   0.00000
   scf:   14    -4147.428523    -4147.427949    -4147.427949  0.003660 -3.775215  0.017217
     spin moment: S , {S} =    0.00000   0.00000  -0.00000   0.00000
   scf:   15    -4147.428322    -4147.428099    -4147.428099  0.002713 -3.774294  0.008830
     spin moment: S , {S} =    0.00000  -0.00000  -0.00000   0.00000
   scf:   16    -4147.428165    -4147.428126    -4147.428126  0.001124 -3.774620  0.005600
     spin moment: S , {S} =    0.00000  -0.00000  -0.00000   0.00000
   scf:   17    -4147.428146    -4147.428134    -4147.428134  0.000592 -3.774912  0.003183
     spin moment: S , {S} =    0.00000  -0.00000  -0.00000  -0.00000
   scf:   18    -4147.428143    -4147.428138    -4147.428138  0.000343 -3.774987  0.001693
     spin moment: S , {S} =    0.00000   0.00000  -0.00000  -0.00000
   scf:   19    -4147.428142    -4147.428140    -4147.428140  0.000248 -3.774983  0.000791
     spin moment: S , {S} =    0.00000  -0.00000  -0.00000  -0.00000
   scf:   20    -4147.428141    -4147.428140    -4147.428140  0.000117 -3.774898  0.000418
     spin moment: S , {S} =    0.00000  -0.00000   0.00000  -0.00000
   scf:   21    -4147.428141    -4147.428140    -4147.428140  0.000102 -3.774840  0.000245
     spin moment: S , {S} =    0.00000  -0.00000   0.00000  -0.00000
   scf:   22    -4147.428140    -4147.428140    -4147.428140  0.000017 -3.774819  0.000125
     spin moment: S , {S} =    0.00000  -0.00000   0.00000  -0.00000
   scf:   23    -4147.428140    -4147.428140    -4147.428140  0.000010 -3.774815  0.000067
     spin moment: S , {S} =    0.00000  -0.00000   0.00000  -0.00000
   scf:   24    -4147.428140    -4147.428140    -4147.428140  0.000012 -3.774810  0.000027
     spin moment: S , {S} =    0.00000  -0.00000   0.00000  -0.00000
mix: Pulay -- resetting history
   scf:   25    -4147.428140    -4147.428140    -4147.428140  0.000004 -3.774810  0.000019
     spin moment: S , {S} =    0.00000  -0.00000   0.00000   0.00000
   scf:   26    -4147.428140    -4147.428140    -4147.428140  0.000001 -3.774810  0.000013
     spin moment: S , {S} =    0.00000  -0.00000   0.00000   0.00000
   scf:   27    -4147.428140    -4147.428140    -4147.428140  0.000001 -3.774810  0.000007
     spin moment: S , {S} =    0.00000  -0.00000   0.00000   0.00000
   scf:   28    -4147.428140    -4147.428140    -4147.428140  0.000001 -3.774810  0.000003
     spin moment: S , {S} =    0.00000  -0.00000   0.00000   0.00000
   scf:   29    -4147.428140    -4147.428140    -4147.428140  0.000000 -3.774810  0.000002
     spin moment: S , {S} =    0.00000  -0.00000   0.00000   0.00000
   scf:   30    -4147.428140    -4147.428140    -4147.428140  0.000000 -3.774810  0.000001
     spin moment: S , {S} =    0.00000  -0.00000   0.00000   0.00000

SCF Convergence by DM+H criterion
max |DM_out - DM_in|         :     0.0000003477
max |H_out - H_in|      (eV) :     0.0000008619
SCF cycle converged after 30 iterations

Using DM_out to compute the final energy and forces
No. of atoms with KB's overlaping orbs in proc 0. Max # of overlaps:      29     215

siesta: E_KS(eV) =            -4147.4281

siesta: E_KS - E_eggbox =     -4147.4281
     spin moment: S , {S} =    0.00000  -0.00000   0.00000   0.00000

siesta: Atomic forces (eV/Ang):
     1   -3.740112   -2.653810   -0.000000
     2   -0.057825    0.025973    0.000000
     3   -0.481029   -0.012243    0.000000
     4   -0.287446   -0.000448   -0.000000
     5   -0.026116    0.056742   -0.000000
     6   -1.659901   -0.861217   -0.000000
     7   -0.011859    0.099093    0.000000
     8    0.131803   -0.113125    0.000000
     9   -0.046008   -0.553822   -0.000000
    10    0.268513   -0.205443    0.000000
    11    0.005158    0.003970   -0.000000
    12    0.259607    0.089476   -0.000000
    13    0.134045   -0.064423   -0.000000
    14   -0.164181   -0.243016    0.000000
    15    0.064083    0.064138    0.000000
    16    0.080606    0.137835    0.000000
    17   -0.260195    0.510866    0.000000
    18    0.069378   -0.087426   -0.000000
    19    0.200941    0.461821   -0.000000
    20    0.022714    0.160076    0.000000
    21    0.256044   -0.226905    0.000000
    22    2.009875    1.204229    0.000000
    23   -0.137949   -0.197727   -0.000000
    24   -0.029684   -0.031177    0.000000
    25    0.088003   -0.091744    0.000000
    26    0.222269    0.046138   -0.000000
    27   -0.244761   -0.214020    0.000000
    28   -0.788496    0.582945    0.000000
    29   -0.079653    0.122919    0.000000
----------------------------------------
   Tot   -4.202177   -1.990327    0.000000
----------------------------------------
   Max    3.740112
   Res    0.615647    sqrt( Sum f_i^2 / 3N )
----------------------------------------
   Max    3.740112    constrained

Stress tensor Voigt[x,y,z,yz,xz,xy] (kbar):       -3.58       -0.58       -0.10       -0.00       -0.00       -2.38
(Free)E + p*V (eV/cell)    -4143.6058
Target enthalpy (eV/cell)    -4147.4281

mulliken: Atomic and Orbital Populations:

Species: O                   

Atom      Orb        Charge      Spin       Svec
----------------------------------------------------------------
    1  1 2s         1.67466   0.00000     -0.000  -0.000   0.000
    1  2 2s         0.07975   0.00000      0.000   0.000   0.000
    1  3 2py        1.31477   0.00000     -0.000  -0.000   0.000
    1  4 2pz        1.65090   0.00000     -0.000  -0.000   0.000
    1  5 2px        1.61963   0.00000     -0.000  -0.000   0.000
    1  6 2py        0.11134   0.00000     -0.000  -0.000   0.000
    1  7 2pz       -0.01970   0.00000      0.000   0.000   0.000
    1  8 2px        0.01049   0.00000      0.000  -0.000   0.000
    1  9 3Pdxy      0.01068   0.00000      0.000  -0.000  -0.000
    1 10 3Pdyz      0.00666   0.00000     -0.000   0.000   0.000
    1 11 3Pdz2      0.00260   0.00000     -0.000   0.000   0.000
    1 12 3Pdxz      0.00024   0.00000      0.000  -0.000   0.000
    1 13 3Pdx2-y2   0.00503   0.00000     -0.000   0.000  -0.000
    1     Total     6.46706   0.00000     -0.000  -0.000   0.000

   28  1 2s         1.70639   0.00000     -0.000   0.000   0.000
   28  2 2s         0.07032   0.00000      0.000  -0.000  -0.000
   28  3 2py        1.31550   0.00000     -0.000  -0.000   0.000
   28  4 2pz        1.63251   0.00000     -0.000  -0.000   0.000
   28  5 2px        1.65936   0.00000     -0.000  -0.000   0.000
   28  6 2py        0.09819   0.00000     -0.000   0.000   0.000
   28  7 2pz       -0.01844   0.00000      0.000  -0.000   0.000
   28  8 2px       -0.00466   0.00000      0.000   0.000  -0.000
   28  9 3Pdxy      0.01044   0.00000      0.000   0.000   0.000
   28 10 3Pdyz      0.00809   0.00000      0.000   0.000  -0.000
   28 11 3Pdz2      0.00242   0.00000      0.000  -0.000  -0.000
   28 12 3Pdxz      0.00027   0.00000     -0.000   0.000   0.000
   28 13 3Pdx2-y2   0.00737   0.00000     -0.000   0.000   0.000
   28     Total     6.48775   0.00000     -0.000  -0.000   0.000

----------------------------------------------------------------
Total              12.95481   0.00000     -0.000  -0.000   0.000


Species: N                   

Atom      Orb        Charge      Spin       Svec
----------------------------------------------------------------
    2  1 2s         1.54746   0.00000      0.000  -0.000   0.000
    2  2 2s         0.08528   0.00000     -0.000   0.000   0.000
    2  3 2py        1.04279   0.00000      0.000   0.000   0.000
    2  4 2pz        1.22488   0.00000      0.000   0.000   0.000
    2  5 2px        0.99473   0.00000      0.000   0.000   0.000
    2  6 2py        0.18805   0.00000     -0.000  -0.000  -0.000
    2  7 2pz        0.05524   0.00000      0.000  -0.000  -0.000
    2  8 2px        0.19560   0.00000     -0.000   0.000  -0.000
    2  9 3Pdxy      0.00833   0.00000     -0.000   0.000   0.000
    2 10 3Pdyz      0.01092   0.00000      0.000  -0.000  -0.000
    2 11 3Pdz2      0.00188   0.00000     -0.000  -0.000  -0.000
    2 12 3Pdxz      0.00752   0.00000     -0.000  -0.000  -0.000
    2 13 3Pdx2-y2   0.00909   0.00000      0.000   0.000   0.000
    2     Total     5.37176   0.00000      0.000   0.000   0.000

    3  1 2s         1.38182   0.00000      0.000   0.000  -0.000
    3  2 2s         0.12348   0.00000     -0.000  -0.000   0.000
    3  3 2py        0.93015   0.00000      0.000  -0.000  -0.000
    3  4 2pz        1.52884   0.00000     -0.000  -0.000  -0.000
    3  5 2px        1.06590   0.00000      0.000  -0.000  -0.000
    3  6 2py        0.25840   0.00000      0.000   0.000   0.000
    3  7 2pz        0.00606   0.00000      0.000   0.000   0.000
    3  8 2px        0.19216   0.00000     -0.000   0.000   0.000
    3  9 3Pdxy      0.00433   0.00000     -0.000   0.000  -0.000
    3 10 3Pdyz      0.00389   0.00000     -0.000   0.000   0.000
    3 11 3Pdz2      0.00040   0.00000     -0.000  -0.000   0.000
    3 12 3Pdxz      0.00281   0.00000     -0.000  -0.000   0.000
    3 13 3Pdx2-y2   0.00244   0.00000     -0.000   0.000   0.000
    3     Total     5.50069   0.00000      0.000  -0.000  -0.000

    4  1 2s         1.46290   0.00000     -0.000  -0.000  -0.000
    4  2 2s         0.11942   0.00000      0.000   0.000  -0.000
    4  3 2py        1.12492   0.00000      0.000  -0.000  -0.000
    4  4 2pz        1.28510   0.00000      0.000  -0.000  -0.000
    4  5 2px        0.82773   0.00000     -0.000   0.000  -0.000
    4  6 2py        0.15175   0.00000     -0.000   0.000  -0.000
    4  7 2pz        0.05356   0.00000      0.000  -0.000  -0.000
    4  8 2px        0.29220   0.00000      0.000  -0.000  -0.000
    4  9 3Pdxy      0.00865   0.00000     -0.000   0.000  -0.000
    4 10 3Pdyz      0.01050   0.00000     -0.000   0.000   0.000
    4 11 3Pdz2      0.00128   0.00000      0.000   0.000  -0.000
    4 12 3Pdxz      0.00475   0.00000     -0.000   0.000  -0.000
    4 13 3Pdx2-y2   0.00791   0.00000     -0.000  -0.000   0.000
    4     Total     5.35068   0.00000     -0.000  -0.000  -0.000

    5  1 2s         1.37491   0.00000      0.000  -0.000   0.000
    5  2 2s         0.12871   0.00000     -0.000   0.000  -0.000
    5  3 2py        1.02574   0.00000     -0.000  -0.000   0.000
    5  4 2pz        1.50141   0.00000      0.000   0.000   0.000
    5  5 2px        1.05959   0.00000     -0.000  -0.000   0.000
    5  6 2py        0.20392   0.00000      0.000   0.000  -0.000
    5  7 2pz        0.01317   0.00000     -0.000  -0.000  -0.000
    5  8 2px        0.20201   0.00000     -0.000   0.000  -0.000
    5  9 3Pdxy      0.00384   0.00000      0.000  -0.000  -0.000
    5 10 3Pdyz      0.00248   0.00000      0.000  -0.000  -0.000
    5 11 3Pdz2      0.00143   0.00000     -0.000   0.000  -0.000
    5 12 3Pdxz      0.00639   0.00000     -0.000  -0.000  -0.000
    5 13 3Pdx2-y2   0.00564   0.00000     -0.000   0.000  -0.000
    5     Total     5.52926   0.00000     -0.000  -0.000   0.000

    6  1 2s         1.28310   0.00000     -0.000   0.000  -0.000
    6  2 2s         0.17503   0.00000     -0.000   0.000   0.000
    6  3 2py        1.06401   0.00000      0.000   0.000   0.000
    6  4 2pz        1.47884   0.00000     -0.000  -0.000   0.000
    6  5 2px        0.99339   0.00000     -0.000   0.000   0.000
    6  6 2py        0.19662   0.00000     -0.000   0.000   0.000
    6  7 2pz        0.03729   0.00000     -0.000   0.000   0.000
    6  8 2px        0.25418   0.00000      0.000  -0.000   0.000
    6  9 3Pdxy      0.00394   0.00000     -0.000   0.000   0.000
    6 10 3Pdyz      0.00002   0.00000      0.000   0.000   0.000
    6 11 3Pdz2      0.00214   0.00000      0.000   0.000  -0.000
    6 12 3Pdxz      0.00433   0.00000     -0.000   0.000  -0.000
    6 13 3Pdx2-y2   0.00475   0.00000     -0.000  -0.000  -0.000
    6     Total     5.49765   0.00000     -0.000   0.000   0.000

   21  1 2s         1.41816   0.00000      0.000   0.000   0.000
   21  2 2s         0.12401   0.00000     -0.000  -0.000  -0.000
   21  3 2py        0.89690   0.00000      0.000   0.000   0.000
   21  4 2pz        1.34450   0.00000      0.000   0.000   0.000
   21  5 2px        1.17000   0.00000      0.000  -0.000   0.000
   21  6 2py        0.26897   0.00000     -0.000  -0.000  -0.000
   21  7 2pz        0.03738   0.00000     -0.000  -0.000  -0.000
   21  8 2px        0.15474   0.00000     -0.000   0.000  -0.000
   21  9 3Pdxy      0.00732   0.00000     -0.000   0.000   0.000
   21 10 3Pdyz      0.00438   0.00000      0.000  -0.000   0.000
   21 11 3Pdz2      0.00030   0.00000      0.000  -0.000   0.000
   21 12 3Pdxz      0.00551   0.00000     -0.000   0.000  -0.000
   21 13 3Pdx2-y2   0.00558   0.00000      0.000   0.000   0.000
   21     Total     5.43774   0.00000      0.000   0.000   0.000

   22  1 2s         1.31297   0.00000      0.000  -0.000   0.000
   22  2 2s         0.16458   0.00000     -0.000   0.000  -0.000
   22  3 2py        1.05328   0.00000      0.000  -0.000   0.000
   22  4 2pz        1.42709   0.00000      0.000  -0.000  -0.000
   22  5 2px        1.05425   0.00000      0.000  -0.000  -0.000
   22  6 2py        0.20184   0.00000     -0.000   0.000  -0.000
   22  7 2pz        0.03660   0.00000     -0.000   0.000  -0.000
   22  8 2px        0.22219   0.00000     -0.000  -0.000   0.000
   22  9 3Pdxy      0.00558   0.00000     -0.000   0.000  -0.000
   22 10 3Pdyz      0.00018   0.00000     -0.000   0.000   0.000
   22 11 3Pdz2      0.00283   0.00000     -0.000  -0.000  -0.000
   22 12 3Pdxz      0.00479   0.00000     -0.000   0.000   0.000
   22 13 3Pdx2-y2   0.00545   0.00000      0.000  -0.000  -0.000
   22     Total     5.49162   0.00000      0.000  -0.000  -0.000

   23  1 2s         1.36739   0.00000     -0.000  -0.000   0.000
   23  2 2s         0.13246   0.00000      0.000   0.000  -0.000
   23  3 2py        1.01075   0.00000     -0.000  -0.000  -0.000
   23  4 2pz        1.54173   0.00000      0.000   0.000   0.000
   23  5 2px        1.04393   0.00000      0.000  -0.000   0.000
   23  6 2py        0.21403   0.00000      0.000  -0.000   0.000
   23  7 2pz        0.00410   0.00000     -0.000  -0.000  -0.000
   23  8 2px        0.20475   0.00000     -0.000   0.000  -0.000
   23  9 3Pdxy      0.00542   0.00000     -0.000   0.000  -0.000
   23 10 3Pdyz      0.00462   0.00000      0.000  -0.000   0.000
   23 11 3Pdz2      0.00089   0.00000      0.000  -0.000  -0.000
   23 12 3Pdxz      0.00240   0.00000      0.000   0.000   0.000
   23 13 3Pdx2-y2   0.00148   0.00000     -0.000   0.000   0.000
   23     Total     5.53396   0.00000     -0.000   0.000   0.000

----------------------------------------------------------------
Total              56.66816   0.00000      0.000  -0.000   0.000


Species: Si                  

Atom      Orb        Charge      Spin       Svec
----------------------------------------------------------------
    7  1 3s         0.66255   0.00000      0.000   0.000  -0.000
    7  2 3s         0.36751   0.00000     -0.000  -0.000  -0.000
    7  3 3py        0.46049   0.00000      0.000   0.000  -0.000
    7  4 3pz        0.70012   0.00000      0.000  -0.000  -0.000
    7  5 3px        0.12246   0.00000     -0.000   0.000   0.000
    7  6 3py        0.27987   0.00000      0.000  -0.000  -0.000
    7  7 3pz        0.26186   0.00000     -0.000   0.000  -0.000
    7  8 3px        0.43845   0.00000     -0.000  -0.000  -0.000
    7  9 3Pdxy      0.24645   0.00000     -0.000   0.000  -0.000
    7 10 3Pdyz      0.02840   0.00000     -0.000  -0.000  -0.000
    7 11 3Pdz2      0.01148   0.00000      0.000   0.000  -0.000
    7 12 3Pdxz      0.14785   0.00000      0.000   0.000   0.000
    7 13 3Pdx2-y2   0.11418   0.00000     -0.000   0.000   0.000
    7     Total     3.84169   0.00000      0.000   0.000  -0.000

    8  1 3s         0.65268   0.00000     -0.000  -0.000  -0.000
    8  2 3s         0.36986   0.00000      0.000   0.000  -0.000
    8  3 3py        0.39673   0.00000      0.000   0.000  -0.000
    8  4 3pz        0.49227   0.00000     -0.000   0.000  -0.000
    8  5 3px       -0.01749   0.00000      0.000  -0.000   0.000
    8  6 3py        0.30431   0.00000     -0.000  -0.000  -0.000
    8  7 3pz        0.20669   0.00000      0.000  -0.000  -0.000
    8  8 3px        0.51362   0.00000     -0.000   0.000  -0.000
    8  9 3Pdxy      0.25039   0.00000      0.000   0.000  -0.000
    8 10 3Pdyz      0.11110   0.00000      0.000   0.000  -0.000
    8 11 3Pdz2      0.01347   0.00000     -0.000   0.000  -0.000
    8 12 3Pdxz      0.15848   0.00000      0.000   0.000  -0.000
    8 13 3Pdx2-y2   0.20500   0.00000      0.000   0.000  -0.000
    8     Total     3.65711   0.00000      0.000  -0.000  -0.000

    9  1 3s         0.60133   0.00000     -0.000   0.000   0.000
    9  2 3s         0.36850   0.00000      0.000  -0.000   0.000
    9  3 3py        0.13229   0.00000     -0.000  -0.000   0.000
    9  4 3pz        0.47127   0.00000     -0.000  -0.000   0.000
    9  5 3px        0.33384   0.00000      0.000   0.000   0.000
    9  6 3py        0.37749   0.00000      0.000   0.000   0.000
    9  7 3pz        0.19462   0.00000      0.000   0.000   0.000
    9  8 3px        0.29870   0.00000      0.000  -0.000  -0.000
    9  9 3Pdxy      0.26256   0.00000     -0.000   0.000   0.000
    9 10 3Pdyz      0.18010   0.00000     -0.000  -0.000   0.000
    9 11 3Pdz2      0.00922   0.00000     -0.000  -0.000   0.000
    9 12 3Pdxz      0.11258   0.00000      0.000   0.000   0.000
    9 13 3Pdx2-y2   0.18300   0.00000     -0.000  -0.000   0.000
    9     Total     3.52551   0.00000      0.000   0.000   0.000

   10  1 3s         0.49372   0.00000      0.000  -0.000  -0.000
   10  2 3s         0.37328   0.00000     -0.000   0.000  -0.000
   10  3 3py        0.23879   0.00000     -0.000   0.000   0.000
   10  4 3pz        0.43050   0.00000     -0.000   0.000   0.000
   10  5 3px        0.10136   0.00000     -0.000   0.000   0.000
   10  6 3py        0.32293   0.00000      0.000  -0.000  -0.000
   10  7 3pz        0.21236   0.00000      0.000  -0.000  -0.000
   10  8 3px        0.44744   0.00000      0.000   0.000  -0.000
   10  9 3Pdxy      0.18460   0.00000      0.000  -0.000   0.000
   10 10 3Pdyz      0.12860   0.00000      0.000  -0.000  -0.000
   10 11 3Pdz2      0.00975   0.00000     -0.000  -0.000  -0.000
   10 12 3Pdxz      0.18599   0.00000      0.000   0.000  -0.000
   10 13 3Pdx2-y2   0.31010   0.00000      0.000  -0.000   0.000
   10     Total     3.43944   0.00000     -0.000   0.000  -0.000

   11  1 3s         0.55388   0.00000      0.000   0.000  -0.000
   11  2 3s         0.38529   0.00000     -0.000  -0.000  -0.000
   11  3 3py        0.32527   0.00000      0.000  -0.000  -0.000
   11  4 3pz        0.53577   0.00000     -0.000  -0.000  -0.000
   11  5 3px        0.12686   0.00000     -0.000  -0.000  -0.000
   11  6 3py        0.28612   0.00000     -0.000   0.000  -0.000
   11  7 3pz        0.17759   0.00000      0.000  -0.000  -0.000
   11  8 3px        0.44597   0.00000      0.000   0.000  -0.000
   11  9 3Pdxy      0.22628   0.00000     -0.000   0.000  -0.000
   11 10 3Pdyz      0.12731   0.00000     -0.000  -0.000  -0.000
   11 11 3Pdz2      0.00961   0.00000      0.000   0.000   0.000
   11 12 3Pdxz      0.05300   0.00000     -0.000   0.000  -0.000
   11 13 3Pdx2-y2   0.20501   0.00000      0.000   0.000  -0.000
   11     Total     3.45795   0.00000     -0.000  -0.000  -0.000

   17  1 3s         0.63670   0.00000      0.000   0.000   0.000
   17  2 3s         0.35860   0.00000     -0.000  -0.000  -0.000
   17  3 3py        0.20592   0.00000      0.000  -0.000  -0.000
   17  4 3pz        0.43493   0.00000      0.000   0.000  -0.000
   17  5 3px        0.23443   0.00000      0.000  -0.000   0.000
   17  6 3py        0.37961   0.00000     -0.000   0.000   0.000
   17  7 3pz        0.21125   0.00000     -0.000  -0.000  -0.000
   17  8 3px        0.39108   0.00000      0.000   0.000  -0.000
   17  9 3Pdxy      0.27458   0.00000      0.000   0.000   0.000
   17 10 3Pdyz      0.13523   0.00000      0.000  -0.000  -0.000
   17 11 3Pdz2      0.00764   0.00000     -0.000  -0.000  -0.000
   17 12 3Pdxz      0.14441   0.00000     -0.000   0.000  -0.000
   17 13 3Pdx2-y2   0.18554   0.00000     -0.000   0.000  -0.000
   17     Total     3.59993   0.00000      0.000   0.000   0.000

   18  1 3s         0.74451   0.00000     -0.000  -0.000  -0.000
   18  2 3s         0.34337   0.00000      0.000  -0.000   0.000
   18  3 3py        0.05835   0.00000     -0.000   0.000  -0.000
   18  4 3pz        0.79258   0.00000     -0.000  -0.000  -0.000
   18  5 3px        0.56587   0.00000      0.000  -0.000  -0.000
   18  6 3py        0.53113   0.00000      0.000   0.000   0.000
   18  7 3pz        0.19487   0.00000      0.000   0.000  -0.000
   18  8 3px        0.24931   0.00000      0.000   0.000  -0.000
   18  9 3Pdxy      0.10157   0.00000      0.000  -0.000   0.000
   18 10 3Pdyz      0.02787   0.00000      0.000   0.000   0.000
   18 11 3Pdz2      0.00829   0.00000      0.000   0.000   0.000
   18 12 3Pdxz      0.03449   0.00000     -0.000   0.000   0.000
   18 13 3Pdx2-y2   0.10768   0.00000     -0.000   0.000  -0.000
   18     Total     3.75989   0.00000     -0.000  -0.000  -0.000

   19  1 3s         0.45813   0.00000     -0.000   0.000  -0.000
   19  2 3s         0.36479   0.00000      0.000  -0.000  -0.000
   19  3 3py        0.07781   0.00000     -0.000   0.000  -0.000
   19  4 3pz        0.39105   0.00000      0.000  -0.000  -0.000
   19  5 3px        0.23256   0.00000     -0.000   0.000   0.000
   19  6 3py        0.44559   0.00000      0.000  -0.000  -0.000
   19  7 3pz        0.19841   0.00000     -0.000   0.000  -0.000
   19  8 3px        0.31273   0.00000      0.000   0.000  -0.000
   19  9 3Pdxy      0.29837   0.00000      0.000   0.000  -0.000
   19 10 3Pdyz      0.17830   0.00000     -0.000   0.000  -0.000
   19 11 3Pdz2      0.00917   0.00000      0.000  -0.000  -0.000
   19 12 3Pdxz      0.10498   0.00000     -0.000  -0.000  -0.000
   19 13 3Pdx2-y2   0.23513   0.00000      0.000   0.000  -0.000
   19     Total     3.30702   0.00000      0.000   0.000  -0.000

   20  1 3s         0.68118   0.00000     -0.000   0.000  -0.000
   20  2 3s         0.37441   0.00000      0.000  -0.000   0.000
   20  3 3py        0.33758   0.00000     -0.000  -0.000   0.000
   20  4 3pz        0.62108   0.00000     -0.000   0.000   0.000
   20  5 3px        0.14606   0.00000      0.000   0.000   0.000
   20  6 3py        0.28178   0.00000      0.000   0.000   0.000
   20  7 3pz        0.16074   0.00000      0.000  -0.000   0.000
   20  8 3px        0.49686   0.00000     -0.000  -0.000  -0.000
   20  9 3Pdxy      0.09834   0.00000      0.000   0.000   0.000
   20 10 3Pdyz      0.12713   0.00000     -0.000   0.000   0.000
   20 11 3Pdz2      0.00824   0.00000     -0.000   0.000  -0.000
   20 12 3Pdxz      0.02618   0.00000      0.000   0.000  -0.000
   20 13 3Pdx2-y2   0.17950   0.00000      0.000  -0.000   0.000
   20     Total     3.53907   0.00000      0.000   0.000   0.000

----------------------------------------------------------------
Total              88.79577   0.00000      0.000   0.000  -0.000


Species: H                   

Atom      Orb        Charge      Spin       Svec
----------------------------------------------------------------
   12  1 1s         0.48323   0.00000     -0.000  -0.000  -0.000
   12  2 1s         0.17458   0.00000      0.000  -0.000  -0.000
   12  3 2Ppy       0.05072   0.00000     -0.000   0.000   0.000
   12  4 2Ppz       0.03406   0.00000      0.000   0.000   0.000
   12  5 2Ppx       0.06592   0.00000      0.000  -0.000   0.000
   12     Total     0.80850   0.00000     -0.000   0.000  -0.000

   13  1 1s         1.02002   0.00000      0.000  -0.000   0.000
   13  2 1s         0.09566   0.00000     -0.000   0.000  -0.000
   13  3 2Ppy       0.01804   0.00000      0.000   0.000   0.000
   13  4 2Ppz       0.01993   0.00000     -0.000   0.000  -0.000
   13  5 2Ppx       0.03504   0.00000     -0.000   0.000   0.000
   13     Total     1.18869   0.00000      0.000   0.000   0.000

   14  1 1s         0.49667   0.00000     -0.000  -0.000  -0.000
   14  2 1s         0.19441   0.00000      0.000   0.000  -0.000
   14  3 2Ppy       0.02219   0.00000      0.000   0.000   0.000
   14  4 2Ppz       0.04892   0.00000     -0.000   0.000  -0.000
   14  5 2Ppx       0.02394   0.00000      0.000  -0.000   0.000
   14     Total     0.78613   0.00000      0.000  -0.000  -0.000

   15  1 1s         0.39162   0.00000      0.000  -0.000  -0.000
   15  2 1s         0.19165   0.00000     -0.000   0.000  -0.000
   15  3 2Ppy       0.06209   0.00000      0.000   0.000   0.000
   15  4 2Ppz       0.05618   0.00000      0.000  -0.000  -0.000
   15  5 2Ppx       0.12471   0.00000     -0.000  -0.000  -0.000
   15     Total     0.82625   0.00000      0.000  -0.000  -0.000

   16  1 1s         0.50770   0.00000      0.000   0.000  -0.000
   16  2 1s         0.18763   0.00000     -0.000  -0.000  -0.000
   16  3 2Ppy       0.02977   0.00000     -0.000   0.000  -0.000
   16  4 2Ppz       0.03922   0.00000     -0.000  -0.000  -0.000
   16  5 2Ppx       0.02335   0.00000     -0.000   0.000  -0.000
   16     Total     0.78765   0.00000      0.000   0.000  -0.000

   24  1 1s         1.06146   0.00000     -0.000  -0.000   0.000
   24  2 1s         0.07392   0.00000      0.000   0.000  -0.000
   24  3 2Ppy       0.03261   0.00000      0.000  -0.000  -0.000
   24  4 2Ppz       0.02954   0.00000     -0.000  -0.000  -0.000
   24  5 2Ppx       0.01749   0.00000     -0.000   0.000   0.000
   24     Total     1.21502   0.00000     -0.000  -0.000   0.000

   25  1 1s         1.04231   0.00000     -0.000  -0.000  -0.000
   25  2 1s         0.08676   0.00000      0.000   0.000   0.000
   25  3 2Ppy       0.01222   0.00000     -0.000   0.000   0.000
   25  4 2Ppz       0.01939   0.00000     -0.000  -0.000   0.000
   25  5 2Ppx       0.03547   0.00000      0.000   0.000  -0.000
   25     Total     1.19615   0.00000     -0.000  -0.000  -0.000

   26  1 1s         0.50522   0.00000      0.000   0.000   0.000
   26  2 1s         0.19149   0.00000     -0.000   0.000  -0.000
   26  3 2Ppy       0.02609   0.00000      0.000   0.000   0.000
   26  4 2Ppz       0.04807   0.00000     -0.000   0.000  -0.000
   26  5 2Ppx       0.02439   0.00000      0.000   0.000  -0.000
   26     Total     0.79526   0.00000      0.000   0.000  -0.000

   27  1 1s         0.37193   0.00000      0.000  -0.000   0.000
   27  2 1s         0.19642   0.00000      0.000   0.000  -0.000
   27  3 2Ppy       0.07817   0.00000      0.000  -0.000  -0.000
   27  4 2Ppz       0.05749   0.00000     -0.000  -0.000   0.000
   27  5 2Ppx       0.12965   0.00000     -0.000  -0.000  -0.000
   27     Total     0.83366   0.00000      0.000  -0.000   0.000

   29  1 1s         0.49153   0.00000     -0.000  -0.000  -0.000
   29  2 1s         0.18723   0.00000      0.000  -0.000  -0.000
   29  3 2Ppy       0.02502   0.00000     -0.000  -0.000   0.000
   29  4 2Ppz       0.03538   0.00000     -0.000  -0.000  -0.000
   29  5 2Ppx       0.02775   0.00000      0.000  -0.000  -0.000
   29     Total     0.76691   0.00000     -0.000  -0.000  -0.000

----------------------------------------------------------------
Total              98.00000   0.00000     -0.000   0.000   0.000


siesta: Eigenvalues (eV):
ik =     1
  -23.4691  -23.4691  -23.1245  -23.1245  -21.5330  -21.5330  -21.2193  -21.2193  -20.7694  -20.7694
  -20.4505  -20.4505  -20.0274  -20.0274  -19.6486  -19.6486  -19.4022  -19.4022  -19.3280  -19.3280
  -14.7957  -14.7957  -13.8559  -13.8559  -13.3060  -13.3060  -13.1943  -13.1943  -13.1083  -13.1083
  -12.8348  -12.8348  -12.4646  -12.4646  -12.1194  -12.1194  -12.0107  -12.0107  -11.9074  -11.9074
  -10.9369  -10.9369  -10.8038  -10.8038  -10.5712  -10.5712  -10.2522  -10.2522  -10.1718  -10.1718
   -9.7570   -9.7570   -9.1515   -9.1515   -8.9568   -8.9568   -8.8407   -8.8407   -8.8088   -8.8088
   -8.4463   -8.4463   -8.3856   -8.3856   -8.3781   -8.3781   -7.9731   -7.9731   -7.7555   -7.7555
   -7.5894   -7.5894   -7.5627   -7.5627   -7.3844   -7.3844   -7.2559   -7.2559   -6.9557   -6.9557
   -6.7821   -6.7821   -6.6756   -6.6756   -6.5035   -6.5035   -6.4224   -6.4224   -6.1961   -6.1961
   -5.9328   -5.9328   -5.8399   -5.8399   -5.5378   -5.5378   -4.3210   -4.3210   -3.2291   -3.2291
   -2.3953   -2.3953   -2.3613   -2.3613   -2.1823   -2.1823   -1.9514   -1.9514   -1.8825   -1.8825
   -1.8742   -1.8742   -1.6083   -1.6083   -1.5865   -1.5865   -1.3029   -1.3029   -1.0292   -1.0292
   -1.0221   -1.0221   -0.5777   -0.5777   -0.4637   -0.4637   -0.2873   -0.2873    0.4102    0.4102
    0.4805    0.4805    0.5070    0.5070    0.6704    0.6704    0.9431    0.9431    1.0836    1.0836
    1.4101    1.4101    1.4237    1.4237    1.5069    1.5069    1.5926    1.5926    2.0504    2.0504
    2.2428    2.2428    2.6422    2.6422    2.7040    2.7040    2.7405    2.7405    2.8851    2.8851
    3.0887    3.0887    3.3044    3.3044    3.4154    3.4154    3.5544    3.5544    3.7719    3.7719
    3.9109    3.9109    4.0762    4.0762    4.0814    4.0814    4.2757    4.2757    4.4672    4.4672
    4.5133    4.5133    4.7822    4.7822    4.7887    4.7887    5.0636    5.0636    5.2284    5.2284
    5.3420    5.3420    5.5801    5.5801    5.6773    5.6773    5.8434    5.8434    5.9371    5.9371
    5.9854    5.9854    6.3829    6.3829    6.4531    6.4531    6.5761    6.5761    6.6243    6.6243
    7.0355    7.0355    7.0474    7.0474    7.2417    7.2417    7.2844    7.2844    7.3437    7.3437
    7.5600    7.5600    7.7009    7.7009    7.7314    7.7314    8.0288    8.0288    8.1586    8.1586
    8.3291    8.3291    8.5743    8.5743    8.6655    8.6655    8.7493    8.7493    8.8494    8.8494
    8.9705    8.9705    9.1330    9.1330    9.4418    9.4418    9.5485    9.5485    9.8147    9.8147
    9.9349    9.9349   10.0192   10.0192   10.0433   10.0433   10.2298   10.2298   10.4499   10.4500
   10.7001   10.7001   10.8601   10.8601   11.2862   11.2862   11.3123   11.3123   11.3946   11.3946
   11.4308   11.4308   11.8726   11.8726   12.3475   12.3475   12.4392   12.4392   12.5239   12.5239
   12.6732   12.6732   12.8795   12.8795   13.2614   13.2614   13.5315   13.5315   13.6211   13.6211
   13.6531   13.6531   13.9182   13.9182   14.1803   14.1803   14.2420   14.2420   14.4345   14.4345
   14.7524   14.7524   15.0185   15.0185   15.0367   15.0367   15.2267   15.2267   15.4607   15.4608
   15.7222   15.7222   16.5389   16.5389   16.6656   16.6656   16.9405   16.9405   17.0912   17.0912
   17.4672   17.4672   18.0119   18.0119   18.5534   18.5534   18.8849   18.8849   19.2735   19.2735
   19.5106   19.5106   20.2406   20.2406   20.4545   20.4545   20.9302   20.9302   21.0426   21.0426
   21.3160   21.3160   22.0517   22.0517   22.3111   22.3111   22.9020   22.9020   23.6878   23.6878
   24.0210   24.0210   24.1514   24.1514   24.3137   24.3137   24.9872   24.9872   25.3016   25.3016
   26.1689   26.1689   26.5254   26.5254   27.0013   27.0013   28.0106   28.0106   28.8304   28.8304
   29.5554   29.5554   29.8997   29.8997   30.0665   30.0665   30.4638   30.4638   30.7004   30.7004
   30.9962   30.9962   31.0024   31.0024   31.3994   31.3994   31.7185   31.7185   31.9415   31.9415
   33.6057   33.6057   33.7483   33.7483   34.0117   34.0117   34.0694   34.0694   35.1401   35.1401
   35.2585   35.2585   35.5230   35.5230   36.1233   36.1233   36.6614   36.6614   36.7510   36.7510
   37.0941   37.0941   37.5935   37.5935   37.9350   37.9350   38.6079   38.6079   38.9350   38.9350
   39.4910   39.4910   39.5005   39.5005   39.9804   39.9804   40.2967   40.2967   40.6435   40.6435
   40.7616   40.7616   41.0365   41.0365   41.9282   41.9282   42.1911   42.1911   42.2525   42.2525
   42.7210   42.7210   43.2029   43.2029   43.4094   43.4094   43.5707   43.5707   44.1986   44.1986
   44.7128   44.7128   44.9577   44.9577   45.1175   45.1175   45.3521   45.3521   45.3817   45.3817
   45.5235   45.5235   46.0950   46.0950   46.7169   46.7169   46.8602   46.8602   47.0093   47.0093
   47.9229   47.9229   48.1479   48.1479   49.7466   49.7466   50.0337   50.0337   50.1502   50.1502
   50.3551   50.3551   50.6079   50.6079   51.1209   51.1209   51.9955   51.9955   52.0988   52.0988
   52.9275   52.9275   53.2630   53.2630   54.1095   54.1095   54.7660   54.7660   54.8113   54.8113
   54.8345   54.8345   55.9192   55.9192   55.9885   55.9885   56.4838   56.4838   57.0313   57.0313
   57.4373   57.4373   57.6232   57.6232   58.6455   58.6455   59.3984   59.3984   60.3679   60.3679
   60.6091   60.6091   61.2783   61.2783   61.5387   61.5387   62.4998   62.4998   63.4857   63.4857
   64.4461   64.4461   64.5063   64.5063   65.5041   65.5041   66.5713   66.5713   66.9917   66.9917
   67.8726   67.8726   68.4565   68.4565   70.7859   70.7859   72.1681   72.1681   73.9311   73.9311
   75.4952   75.4952   76.7501   76.7501   78.0624   78.0624   78.8067   78.8067   90.4770   90.4770
   91.5830   91.5830   91.7184   91.7184   95.1574   95.1574   98.8079   98.8079   99.0266   99.0266
  102.3614  102.3614  103.9892  103.9892  105.9007  105.9007  108.6146  108.6146  110.3554  110.3554
  118.2694  118.2694  120.3485  120.3485  125.7591  125.7591  128.9383  128.9383  141.3833  141.3833
  145.3749  145.3749  148.5955  148.5955
siesta: Fermi energy =      -3.774810 eV

siesta: Program's energy decomposition (eV):
siesta: Ebs     =     -1137.434905
siesta: Eions   =      3585.165840
siesta: Ena     =       382.677125
siesta: Ekin    =      2920.673161
siesta: Enl     =     -2802.802099
siesta: Eso     =        -0.004358
siesta: Edftu   =         0.000000
siesta: DEna    =        48.534311
siesta: DUscf   =        13.724733
siesta: DUext   =         0.000000
siesta: Exc     =     -1125.065173
siesta: eta*DQ  =         0.000000
siesta: Emadel  =         0.000000
siesta: Emeta   =         0.000000
siesta: Emolmec =         0.000000
siesta: Ekinion =         0.000000
siesta: Eharris =     -4147.428140
siesta: Etot    =     -4147.428140
siesta: FreeEng =     -4147.428140

siesta: Final energy (eV):
siesta:  Band Struct. =   -1137.434905
siesta:       Kinetic =    2920.673161
siesta:       Hartree =    9228.670596
siesta:       Edftu   =       0.000000
siesta:       Eso     =      -0.004358
siesta:    Ext. field =       0.000000
siesta:   Exch.-corr. =   -1125.065173
siesta:  Ion-electron =  -21054.643502
siesta:       Ion-ion =    5882.941136
siesta:       Ekinion =       0.000000
siesta:         Total =   -4147.428140
siesta:         Fermi =      -3.774810

siesta: Atomic forces (eV/Ang):
siesta:      1   -3.740112   -2.653810   -0.000000
siesta:      2   -0.057825    0.025973    0.000000
siesta:      3   -0.481029   -0.012243    0.000000
siesta:      4   -0.287446   -0.000448   -0.000000
siesta:      5   -0.026116    0.056742   -0.000000
siesta:      6   -1.659901   -0.861217   -0.000000
siesta:      7   -0.011859    0.099093    0.000000
siesta:      8    0.131803   -0.113125    0.000000
siesta:      9   -0.046008   -0.553822   -0.000000
siesta:     10    0.268513   -0.205443    0.000000
siesta:     11    0.005158    0.003970   -0.000000
siesta:     12    0.259607    0.089476   -0.000000
siesta:     13    0.134045   -0.064423   -0.000000
siesta:     14   -0.164181   -0.243016    0.000000
siesta:     15    0.064083    0.064138    0.000000
siesta:     16    0.080606    0.137835    0.000000
siesta:     17   -0.260195    0.510866    0.000000
siesta:     18    0.069378   -0.087426   -0.000000
siesta:     19    0.200941    0.461821   -0.000000
siesta:     20    0.022714    0.160076    0.000000
siesta:     21    0.256044   -0.226905    0.000000
siesta:     22    2.009875    1.204229    0.000000
siesta:     23   -0.137949   -0.197727   -0.000000
siesta:     24   -0.029684   -0.031177    0.000000
siesta:     25    0.088003   -0.091744    0.000000
siesta:     26    0.222269    0.046138   -0.000000
siesta:     27   -0.244761   -0.214020    0.000000
siesta:     28   -0.788496    0.582945    0.000000
siesta:     29   -0.079653    0.122919    0.000000
siesta: ----------------------------------------
siesta:    Tot   -4.202177   -1.990327    0.000000

siesta: Stress tensor (static) (eV/Ang**3):
siesta:    -0.002234   -0.001487    0.000000
siesta:    -0.001487   -0.000362    0.000000
siesta:    -0.000000   -0.000000   -0.000065

siesta: Cell volume =       4310.108111 Ang**3

siesta: Pressure (static):
siesta:                Solid            Molecule  Units
siesta:           0.00000966          0.00000686  Ry/Bohr**3
siesta:           0.00088683          0.00062989  eV/Ang**3
siesta:           1.42087569          1.00920880  kBar
(Free)E+ p_basis*V_orbitals  =       -4127.577723
(Free)Eharris+ p_basis*V_orbitals  =       -4127.577723
     spin moment: S , {S} =    0.00000  -0.00000   0.00000   0.00000

siesta: Electric dipole (a.u.)  =    1.618305    0.178606   -0.000000
siesta: Electric dipole (Debye) =    4.113323    0.453973   -0.000000

cite: Please see "GC.bib" for an exhaustive BiBTeX file.
cite: Please clearly indicate Siesta version in published work: v4.1.5-1-g384057250
cite: This calculation has made use of the following articles
cite: which are encouraged to be cited in a published work.
        Primary SIESTA paper
          DOI: www.doi.org/10.1088/0953-8984/14/11/302
        Spin-orbit coupling (on-site approximation)
          DOI: www.doi.org/10.1088/0953-8984/19/19/489001


WARNING: alloc-realloc-dealloc name mismatch
         Name: atomlist isa
         Size:              -116. Bytes
         Node:     0
         Subsequent mismatches will not be reported
>> End of run:  28-JUN-2023  14:43:09
Job completed
