Siesta Version  : v4.1.5-1-g384057250
Architecture    : gcc
Compiler version: GNU Fortran (Ubuntu 11.3.0-1ubuntu1~22.04) 11.3.0
Compiler flags  : mpifort -O2 -fPIC -ftree-vectorize -fallow-argument-mismatch
PP flags        : -DFC_HAVE_ABORT -DMPI -DSIESTA__FLOOK -DSIESTA__METIS -DSIESTA__MUMPS -DCDF -DNCDF -DNCDF_4 -DNCDF_PARALLEL -DSIESTA__MRRR -DSIESTA__ELPA
Libraries       : libncdf.a libfdict.a  -lflookall -ldl -lnetcdff -lnetcdf -lhdf5_hl -lhdf5 -lhdf5_fortran -lz -lscalapack-openmpi -lopenblas -lmetis -lzmumps -lcmumps -ldmumps -lmumps_common -lpord -lsmumps -lesmumps -lscotch -lscotcherr -fopenmp -lelpa
PARALLEL version
NetCDF support
NetCDF-4 support
NetCDF-4 MPI-IO support
METIS ordering support
Lua support

* Running on 4 nodes in parallel
>> Start of run:   4-JUL-2023  10:16:46

                           ***********************       
                           *  WELCOME TO SIESTA  *       
                           ***********************       

reinit: Reading from standard input
reinit: Dumped input in INPUT_TMP.33334
************************** Dump of input data file ****************************
SystemLabel      GC
NumberOfAtoms    29
NumberOfSpecies  4
%block ChemicalSpeciesLabel
    1    8  O
    2    7  N
    3   14  Si
    4    1  H
%endblock ChemicalSpeciesLabel
# Single point calculation
MD.TypeOfRun                CG
MD.Steps                    0
SCF.MustConverge            F # In case it does not. There can be 2 very close atoms
AtomicCoordinatesFormat NotScaledCartesianAng
%block AtomicCoordinatesAndAtomicSpecies
0.958671510    3.803529300    0.000000000       1
-3.038688210   0.998073330    0.000000000       2
2.066567750    1.099065770    0.000000000       2
1.029569860    -1.834680850   0.000000000       2
-2.108567660   -1.881798240   0.000000000       2
3.912411070    -1.180894430   0.000000000       2
-1.235636790   1.044983000    0.000000000       3
-0.501909240   -1.031832280   0.000000000       3
0.629463280    2.232755840    0.000000000       3
2.280054370    -0.658293540   0.000000000       3
-3.424812990   -0.662324160   0.000000000       3
2.965974160    1.682263990    0.000000000       4
-4.796229390   -1.238728480   0.000000000       4
4.096559410    -2.214148760   0.000000000       4
4.792108680    -0.529147250   0.000000000       4
-2.266861300   -2.922393730   0.000000000       4
4.171708232    4.525042450    0.000000000       3
6.097185982    5.716671780    0.000000000       3
5.632379592    1.790488080    0.000000000       3
7.703559512    4.237534670    0.000000000       3
4.273992772    2.815687760    0.000000000       2
2.592330142    5.195271940    0.000000000       2
7.285449492    2.505651760    0.000000000       2
6.405676802    7.181333140    0.000000000       4
9.195232422    4.437514130    0.000000000       4
2.407703702    6.230145670    0.000000000       4
1.700238352    4.523983210    0.000000000       4
5.622248992    0.192259560    0.000000000       1
8.062047872    1.783821560    0.000000000       4
%endblock AtomicCoordinatesAndAtomicSpecies
%include ../../../Defaults.fdf
************************** End of input data file *****************************

reinit: -----------------------------------------------------------------------
reinit: System Name: 
reinit: -----------------------------------------------------------------------
reinit: System Label: GC
reinit: -----------------------------------------------------------------------

initatom: Reading input for the pseudopotentials and atomic orbitals ----------
Species number:   1 Atomic number:    8 Label: O
Species number:   2 Atomic number:    7 Label: N
Species number:   3 Atomic number:   14 Label: Si
Species number:   4 Atomic number:    1 Label: H

Ground state valence configuration:   2s02  2p04
Reading pseudopotential information in formatted form from O.psf

Pseudopotential generated from a relativistic atomic calculation

Valence configuration for pseudopotential generation:
2s( 2.00) rc: 0.45
2p( 4.00) rc: 0.92
3d( 0.00) rc: 2.24
4f( 0.00) rc: 0.25
Ground state valence configuration:   2s02  2p03
Reading pseudopotential information in formatted form from N.psf

Pseudopotential generated from a relativistic atomic calculation

Valence configuration for pseudopotential generation:
2s( 2.00) rc: 0.94
2p( 3.00) rc: 0.59
3d( 0.00) rc: 3.46
4f( 0.00) rc: 2.47
Ground state valence configuration:   3s02  3p02
Reading pseudopotential information in formatted form from Si.psf

Pseudopotential generated from a relativistic atomic calculation

Valence configuration for pseudopotential generation:
3s( 2.00) rc: 1.67
3p( 2.00) rc: 2.04
3d( 0.00) rc: 2.89
4f( 0.00) rc: 2.49
Ground state valence configuration:   1s01
Reading pseudopotential information in formatted form from H.psf

Pseudopotential generated from a relativistic atomic calculation

Valence configuration for pseudopotential generation:
1s( 1.00) rc: 0.01
2p( 0.00) rc: 0.60
3d( 0.00) rc: 1.99
4f( 0.00) rc: 2.49
For O, standard SIESTA heuristics set lmxkb to 3
 (one more than the basis l, including polarization orbitals).
Use PS.lmax or PS.KBprojectors blocks to override.
For N, standard SIESTA heuristics set lmxkb to 3
 (one more than the basis l, including polarization orbitals).
Use PS.lmax or PS.KBprojectors blocks to override.
For Si, standard SIESTA heuristics set lmxkb to 3
 (one more than the basis l, including polarization orbitals).
Use PS.lmax or PS.KBprojectors blocks to override.
For H, standard SIESTA heuristics set lmxkb to 2
 (one more than the basis l, including polarization orbitals).
Use PS.lmax or PS.KBprojectors blocks to override.

<basis_specs>
===============================================================================
O                    Z=   8    Mass=  16.000        Charge= 0.17977+309
Lmxo=1 Lmxkb= 3    BasisType=split      Semic=F
L=0  Nsemic=0  Cnfigmx=2
          i=1  nzeta=2  polorb=0  (2s)
            splnorm:   0.28000    
               vcte:    0.0000    
               rinn:    0.0000    
               qcoe:    0.0000    
               qyuk:    0.0000    
               qwid:   0.10000E-01
                rcs:    0.0000      0.0000    
            lambdas:    1.0000      1.0000    
L=1  Nsemic=0  Cnfigmx=2
          i=1  nzeta=2  polorb=1  (2p)
            splnorm:   0.28000    
               vcte:    0.0000    
               rinn:    0.0000    
               qcoe:    0.0000    
               qyuk:    0.0000    
               qwid:   0.10000E-01
                rcs:    0.0000      0.0000    
            lambdas:    1.0000      1.0000    
-------------------------------------------------------------------------------
L=0  Nkbl=1  erefs: 0.17977+309
L=1  Nkbl=1  erefs: 0.17977+309
L=2  Nkbl=1  erefs: 0.17977+309
L=3  Nkbl=1  erefs: 0.17977+309
===============================================================================
</basis_specs>

atom: Called for O                     (Z =   8)

read_vps: Pseudopotential generation method:
read_vps: ATM4.2.7  Troullier-Martins                       
Valence charge for ps generation:    6.00000

xc_check: Exchange-correlation functional:
xc_check: GGA Perdew, Burke & Ernzerhof 1996
V l=0 = -2*Zval/r beyond r=  1.1000
V l=1 = -2*Zval/r beyond r=  1.1000
V l=2 = -2*Zval/r beyond r=  2.2154
V l=3 = -2*Zval/r beyond r=  1.1000
All V_l potentials equal beyond r=  2.2154
This should be close to max(r_c) in ps generation
All pots = -2*Zval/r beyond r=  2.2154

VLOCAL1: 99.0% of the norm of Vloc inside      8.845 Ry
VLOCAL1: 99.9% of the norm of Vloc inside     20.157 Ry
atom: Maximum radius for 4*pi*r*r*local-pseudopot. charge    2.67231
atom: Maximum radius for r*vlocal+2*Zval:    2.32897
GHOST: No ghost state for L =  0
GHOST: No ghost state for L =  1
GHOST: No ghost state for L =  2
GHOST: No ghost state for L =  3

KBgen: Kleinman-Bylander projectors: 
   l= 0   rc=  2.243238   el= -1.759686   Ekb=**********   kbcos= -0.171774
   l= 1   rc=  2.328968   el= -0.663873   Ekb=-14.506792   kbcos= -0.519897
   l= 2   rc=  2.573941   el=  0.002031   Ekb= -1.137373   kbcos= -0.019581
   l= 3   rc=  2.606321   el=  0.003153   Ekb= -1.013546   kbcos= -0.003122

KBgen: Total number of Kleinman-Bylander projectors:   16
atom: -------------------------------------------------------------------------

atom: SANKEY-TYPE ORBITALS:
atom: Selected multiple-zeta basis: split     

SPLIT: Orbitals with angular momentum L= 0

SPLIT: Basis orbitals for state 2s

SPLIT: PAO cut-off radius determined from an
SPLIT: energy shift=  0.002000 Ry

   izeta = 1
                 lambda =    1.000000
                     rc =    4.243912
                 energy =   -1.758270
                kinetic =    3.286084
    potential(screened) =   -5.044353
       potential(ionic) =  -12.921184

   izeta = 2
                 rmatch =    2.187845
              splitnorm =    0.280000
                 energy =   -0.885018
                kinetic =    8.134434
    potential(screened) =   -9.019452
       potential(ionic) =  -17.710645

SPLIT: Orbitals with angular momentum L= 1

SPLIT: Basis orbitals for state 2p

SPLIT: PAO cut-off radius determined from an
SPLIT: energy shift=  0.002000 Ry

   izeta = 1
                 lambda =    1.000000
                     rc =    5.314825
                 energy =   -0.661986
                kinetic =    4.917472
    potential(screened) =   -5.579458
       potential(ionic) =  -13.236259

   izeta = 2
                 rmatch =    2.160663
              splitnorm =    0.280000
                 energy =   -0.068760
                kinetic =    9.183374
    potential(screened) =   -9.252135
       potential(ionic) =  -18.274251

POLgen: Perturbative polarization orbital with L=  2

POLgen: Polarization orbital for state 2p

   izeta = 1
                     rc =    5.314825
                 energy =    1.970580
                kinetic =    3.886128
    potential(screened) =   -1.915547
       potential(ionic) =   -7.749584
atom: Total number of Sankey-type orbitals: 13

atm_pop: Valence configuration (for local Pseudopot. screening):
 2s( 2.00)                                                            
 2p( 4.00)                                                            
Vna: chval, zval:    6.00000   6.00000

Vna:  Cut-off radius for the neutral-atom potential:   5.314825

atom: _________________________________________________________________________

<basis_specs>
===============================================================================
N                    Z=   7    Mass=  14.010        Charge= 0.17977+309
Lmxo=1 Lmxkb= 3    BasisType=split      Semic=F
L=0  Nsemic=0  Cnfigmx=2
          i=1  nzeta=2  polorb=0  (2s)
            splnorm:   0.28000    
               vcte:    0.0000    
               rinn:    0.0000    
               qcoe:    0.0000    
               qyuk:    0.0000    
               qwid:   0.10000E-01
                rcs:    0.0000      0.0000    
            lambdas:    1.0000      1.0000    
L=1  Nsemic=0  Cnfigmx=2
          i=1  nzeta=2  polorb=1  (2p)
            splnorm:   0.28000    
               vcte:    0.0000    
               rinn:    0.0000    
               qcoe:    0.0000    
               qyuk:    0.0000    
               qwid:   0.10000E-01
                rcs:    0.0000      0.0000    
            lambdas:    1.0000      1.0000    
-------------------------------------------------------------------------------
L=0  Nkbl=1  erefs: 0.17977+309
L=1  Nkbl=1  erefs: 0.17977+309
L=2  Nkbl=1  erefs: 0.17977+309
L=3  Nkbl=1  erefs: 0.17977+309
===============================================================================
</basis_specs>

atom: Called for N                     (Z =   7)

read_vps: Pseudopotential generation method:
read_vps: ATM4.2.7  Troullier-Martins                       
Valence charge for ps generation:    5.00000

xc_check: Exchange-correlation functional:
xc_check: GGA Perdew, Burke & Ernzerhof 1996
V l=0 = -2*Zval/r beyond r=  1.2889
V l=1 = -2*Zval/r beyond r=  1.2889
V l=2 = -2*Zval/r beyond r=  3.4178
V l=3 = -2*Zval/r beyond r=  2.4084
All V_l potentials equal beyond r=  3.3753
This should be close to max(r_c) in ps generation
All pots = -2*Zval/r beyond r=  3.4178

VLOCAL1: 99.0% of the norm of Vloc inside      3.810 Ry
VLOCAL1: 99.9% of the norm of Vloc inside      8.683 Ry
atom: Maximum radius for 4*pi*r*r*local-pseudopot. charge    4.02088
atom: Maximum radius for r*vlocal+2*Zval:    3.54838
GHOST: No ghost state for L =  0
GHOST: No ghost state for L =  1
GHOST: No ghost state for L =  2
GHOST: No ghost state for L =  3

KBgen: Kleinman-Bylander projectors: 
   l= 0   rc=  3.417763   el= -1.365098   Ekb= -4.433130   kbcos= -0.707855
   l= 1   rc=  3.375302   el= -0.521201   Ekb=-13.264039   kbcos= -0.535594
   l= 2   rc=  3.872880   el=  0.001991   Ekb= -0.641094   kbcos= -0.062456
   l= 3   rc=  3.970931   el=  0.003093   Ekb= -0.474517   kbcos= -0.018236

KBgen: Total number of Kleinman-Bylander projectors:   16
atom: -------------------------------------------------------------------------

atom: SANKEY-TYPE ORBITALS:
atom: Selected multiple-zeta basis: split     

SPLIT: Orbitals with angular momentum L= 0

SPLIT: Basis orbitals for state 2s

SPLIT: PAO cut-off radius determined from an
SPLIT: energy shift=  0.002000 Ry

   izeta = 1
                 lambda =    1.000000
                     rc =    4.730425
                 energy =   -1.363399
                kinetic =    1.245246
    potential(screened) =   -2.608645
       potential(ionic) =   -8.121105

   izeta = 2
                 rmatch =    2.531849
              splitnorm =    0.280000
                 energy =   -0.959908
                kinetic =    2.409435
    potential(screened) =   -3.369343
       potential(ionic) =   -9.427975

SPLIT: Orbitals with angular momentum L= 1

SPLIT: Basis orbitals for state 2p

SPLIT: PAO cut-off radius determined from an
SPLIT: energy shift=  0.002000 Ry

   izeta = 1
                 lambda =    1.000000
                     rc =    5.924108
                 energy =   -0.519262
                kinetic =    3.672940
    potential(screened) =   -4.192202
       potential(ionic) =   -9.518354

   izeta = 2
                 rmatch =    2.531849
              splitnorm =    0.280000
                 energy =   -0.104258
                kinetic =    6.807538
    potential(screened) =   -6.911796
       potential(ionic) =  -13.149920

POLgen: Perturbative polarization orbital with L=  2

POLgen: Polarization orbital for state 2p

   izeta = 1
                     rc =    5.924108
                 energy =    1.427508
                kinetic =    2.872379
    potential(screened) =   -1.444871
       potential(ionic) =   -5.563644
atom: Total number of Sankey-type orbitals: 13

atm_pop: Valence configuration (for local Pseudopot. screening):
 2s( 2.00)                                                            
 2p( 3.00)                                                            
Vna: chval, zval:    5.00000   5.00000

Vna:  Cut-off radius for the neutral-atom potential:   5.924108

atom: _________________________________________________________________________

<basis_specs>
===============================================================================
Si                   Z=  14    Mass=  28.090        Charge= 0.17977+309
Lmxo=1 Lmxkb= 3    BasisType=split      Semic=F
L=0  Nsemic=0  Cnfigmx=3
          i=1  nzeta=2  polorb=0  (3s)
            splnorm:   0.28000    
               vcte:    0.0000    
               rinn:    0.0000    
               qcoe:    0.0000    
               qyuk:    0.0000    
               qwid:   0.10000E-01
                rcs:    0.0000      0.0000    
            lambdas:    1.0000      1.0000    
L=1  Nsemic=0  Cnfigmx=3
          i=1  nzeta=2  polorb=1  (3p)
            splnorm:   0.28000    
               vcte:    0.0000    
               rinn:    0.0000    
               qcoe:    0.0000    
               qyuk:    0.0000    
               qwid:   0.10000E-01
                rcs:    0.0000      0.0000    
            lambdas:    1.0000      1.0000    
-------------------------------------------------------------------------------
L=0  Nkbl=1  erefs: 0.17977+309
L=1  Nkbl=1  erefs: 0.17977+309
L=2  Nkbl=1  erefs: 0.17977+309
L=3  Nkbl=1  erefs: 0.17977+309
===============================================================================
</basis_specs>

atom: Called for Si                    (Z =  14)

read_vps: Pseudopotential generation method:
read_vps: ATM4.2.7  Troullier-Martins                       
Valence charge for ps generation:    4.00000

xc_check: Exchange-correlation functional:
xc_check: GGA Perdew, Burke & Ernzerhof 1996
V l=0 = -2*Zval/r beyond r=  2.7826
V l=1 = -2*Zval/r beyond r=  2.7826
V l=2 = -2*Zval/r beyond r=  2.9253
V l=3 = -2*Zval/r beyond r=  2.7826
All V_l potentials equal beyond r=  2.8530
This should be close to max(r_c) in ps generation
All pots = -2*Zval/r beyond r=  2.9253

VLOCAL1: 99.0% of the norm of Vloc inside      5.333 Ry
VLOCAL1: 99.9% of the norm of Vloc inside     12.154 Ry
atom: Maximum radius for 4*pi*r*r*local-pseudopot. charge    3.39869
atom: Maximum radius for r*vlocal+2*Zval:    2.96205
GHOST: No ghost state for L =  0
GHOST: No ghost state for L =  1
GHOST: No ghost state for L =  2
GHOST: No ghost state for L =  3

KBgen: Kleinman-Bylander projectors: 
   l= 0   rc=  3.075247   el= -0.794092   Ekb=  5.879390   kbcos=  0.167461
   l= 1   rc=  3.153101   el= -0.300068   Ekb=  2.642817   kbcos=  0.058301
   l= 2   rc=  3.273594   el=  0.001958   Ekb= -1.185135   kbcos= -0.104411
   l= 3   rc=  3.232927   el=  0.003046   Ekb= -0.497174   kbcos= -0.015889

KBgen: Total number of Kleinman-Bylander projectors:   16
atom: -------------------------------------------------------------------------

atom: SANKEY-TYPE ORBITALS:
atom: Selected multiple-zeta basis: split     

SPLIT: Orbitals with angular momentum L= 0

SPLIT: Basis orbitals for state 3s

SPLIT: PAO cut-off radius determined from an
SPLIT: energy shift=  0.002000 Ry

   izeta = 1
                 lambda =    1.000000
                     rc =    6.429618
                 energy =   -0.792283
                kinetic =    0.525293
    potential(screened) =   -1.317576
       potential(ionic) =   -3.744923

   izeta = 2
                 rmatch =    3.998416
              splitnorm =    0.280000
                 energy =   -0.583081
                kinetic =    1.069570
    potential(screened) =   -1.652651
       potential(ionic) =   -4.235185

SPLIT: Orbitals with angular momentum L= 1

SPLIT: Basis orbitals for state 3p

SPLIT: PAO cut-off radius determined from an
SPLIT: energy shift=  0.002000 Ry

   izeta = 1
                 lambda =    1.000000
                     rc =    8.464845
                 energy =   -0.298236
                kinetic =    0.785360
    potential(screened) =   -1.083596
       potential(ionic) =   -3.273779

   izeta = 2
                 rmatch =    4.587816
              splitnorm =    0.280000
                 energy =   -0.131871
                kinetic =    1.403687
    potential(screened) =   -1.535557
       potential(ionic) =   -4.015310

POLgen: Perturbative polarization orbital with L=  2

POLgen: Polarization orbital for state 3p

   izeta = 1
                     rc =    8.464845
                 energy =    0.321949
                kinetic =    1.055677
    potential(screened) =   -0.733728
       potential(ionic) =   -2.672950
atom: Total number of Sankey-type orbitals: 13

atm_pop: Valence configuration (for local Pseudopot. screening):
 3s( 2.00)                                                            
 3p( 2.00)                                                            
Vna: chval, zval:    4.00000   4.00000

Vna:  Cut-off radius for the neutral-atom potential:   8.464845

atom: _________________________________________________________________________

<basis_specs>
===============================================================================
H                    Z=   1    Mass=  1.0100        Charge= 0.17977+309
Lmxo=0 Lmxkb= 2    BasisType=split      Semic=F
L=0  Nsemic=0  Cnfigmx=1
          i=1  nzeta=2  polorb=1  (1s)
            splnorm:   0.62000    
               vcte:    0.0000    
               rinn:    0.0000    
               qcoe:    0.0000    
               qyuk:    0.0000    
               qwid:   0.10000E-01
                rcs:    0.0000      0.0000    
            lambdas:    1.0000      1.0000    
-------------------------------------------------------------------------------
L=0  Nkbl=1  erefs: 0.17977+309
L=1  Nkbl=1  erefs: 0.17977+309
L=2  Nkbl=1  erefs: 0.17977+309
===============================================================================
</basis_specs>

atom: Called for H                     (Z =   1)

read_vps: Pseudopotential generation method:
read_vps: ATM4.2.7  Troullier-Martins                       
Valence charge for ps generation:    1.00000

xc_check: Exchange-correlation functional:
xc_check: GGA Perdew, Burke & Ernzerhof 1996
V l=0 = -2*Zval/r beyond r=  0.0098
V l=1 = -2*Zval/r beyond r=  0.5817
V l=2 = -2*Zval/r beyond r=  1.9372
All V_l potentials equal beyond r=  1.9372
This should be close to max(r_c) in ps generation
All pots = -2*Zval/r beyond r=  1.9372

VLOCAL1: 99.0% of the norm of Vloc inside     11.567 Ry
VLOCAL1: 99.9% of the norm of Vloc inside     26.362 Ry
atom: Maximum radius for 4*pi*r*r*local-pseudopot. charge    2.25106
atom: Maximum radius for r*vlocal+2*Zval:    1.91306
GHOST: No ghost state for L =  0
GHOST: No ghost state for L =  1
GHOST: No ghost state for L =  2

KBgen: Kleinman-Bylander projectors: 
   l= 0   rc=  2.036604   el= -0.477180   Ekb= -6.081590   kbcos= -0.277285
   l= 1   rc=  2.195416   el=  0.001076   Ekb= -0.926943   kbcos= -0.034643
   l= 2   rc=  2.251056   el=  0.002010   Ekb= -0.130941   kbcos= -0.009788

KBgen: Total number of Kleinman-Bylander projectors:    9
atom: -------------------------------------------------------------------------

atom: SANKEY-TYPE ORBITALS:
atom: Selected multiple-zeta basis: split     

SPLIT: Orbitals with angular momentum L= 0

SPLIT: Basis orbitals for state 1s

SPLIT: PAO cut-off radius determined from an
SPLIT: energy shift=  0.002000 Ry

   izeta = 1
                 lambda =    1.000000
                     rc =    6.518340
                 energy =   -0.475305
                kinetic =    0.912139
    potential(screened) =   -1.387444
       potential(ionic) =   -1.907295

   izeta = 2
                 rmatch =    2.141150
              splitnorm =    0.620000
                 energy =    0.566467
                kinetic =    3.772856
    potential(screened) =   -3.206389
       potential(ionic) =   -3.759093

POLgen: Perturbative polarization orbital with L=  1

POLgen: Polarization orbital for state 1s

   izeta = 1
                     rc =    6.518340
                 energy =    0.533861
                kinetic =    1.121086
    potential(screened) =   -0.587225
       potential(ionic) =   -1.053027
atom: Total number of Sankey-type orbitals:  5

atm_pop: Valence configuration (for local Pseudopot. screening):
 1s( 1.00)                                                            
Vna: chval, zval:    1.00000   1.00000

Vna:  Cut-off radius for the neutral-atom potential:   6.518340

atom: _________________________________________________________________________

prinput: Basis input ----------------------------------------------------------

PAO.BasisType split     

%block ChemicalSpeciesLabel
    1    8 O                       # Species index, atomic number, species label
    2    7 N                       # Species index, atomic number, species label
    3   14 Si                      # Species index, atomic number, species label
    4    1 H                       # Species index, atomic number, species label
%endblock ChemicalSpeciesLabel

%block PAO.Basis                 # Define Basis set
O                     2                    # Species label, number of l-shells
 n=2   0   2                         # n, l, Nzeta 
   4.244      2.188   
   1.000      1.000   
 n=2   1   2 P   1                   # n, l, Nzeta, Polarization, NzetaPol
   5.315      2.161   
   1.000      1.000   
N                     2                    # Species label, number of l-shells
 n=2   0   2                         # n, l, Nzeta 
   4.730      2.532   
   1.000      1.000   
 n=2   1   2 P   1                   # n, l, Nzeta, Polarization, NzetaPol
   5.924      2.532   
   1.000      1.000   
Si                    2                    # Species label, number of l-shells
 n=3   0   2                         # n, l, Nzeta 
   6.430      3.998   
   1.000      1.000   
 n=3   1   2 P   1                   # n, l, Nzeta, Polarization, NzetaPol
   8.465      4.588   
   1.000      1.000   
H                     1                    # Species label, number of l-shells
 n=1   0   2 P   1                   # n, l, Nzeta, Polarization, NzetaPol
   6.518      2.141   
   1.000      1.000   
%endblock PAO.Basis

prinput: ----------------------------------------------------------------------

Dumping basis to NetCDF file O.ion.nc
Dumping basis to NetCDF file N.ion.nc
Dumping basis to NetCDF file Si.ion.nc
Dumping basis to NetCDF file H.ion.nc
coor:   Atomic-coordinates input format  =     Cartesian coordinates
coor:                                          (in Angstroms)

siesta: Atomic coordinates (Bohr) and species
siesta:      1.81163   7.18763   0.00000  1        1
siesta:     -5.74229   1.88609   0.00000  2        2
siesta:      3.90525   2.07693   0.00000  2        3
siesta:      1.94561  -3.46705   0.00000  2        4
siesta:     -3.98462  -3.55608   0.00000  2        5
siesta:      7.39339  -2.23157   0.00000  2        6
siesta:     -2.33502   1.97473   0.00000  3        7
siesta:     -0.94847  -1.94988   0.00000  3        8
siesta:      1.18951   4.21930   0.00000  3        9
siesta:      4.30868  -1.24399   0.00000  3       10
siesta:     -6.47196  -1.25161   0.00000  3       11
siesta:      5.60488   3.17902   0.00000  4       12
siesta:     -9.06356  -2.34086   0.00000  4       13
siesta:      7.74138  -4.18414   0.00000  4       14
siesta:      9.05578  -0.99994   0.00000  4       15
siesta:     -4.28375  -5.52253   0.00000  4       16
siesta:      7.88339   8.55109   0.00000  3       17
siesta:     11.52202  10.80295   0.00000  3       18
siesta:     10.64366   3.38353   0.00000  3       19
siesta:     14.55762   8.00778   0.00000  3       20
siesta:      8.07668   5.32088   0.00000  2       21
siesta:      4.89880   9.81765   0.00000  2       22
siesta:     13.76751   4.73500   0.00000  2       23
siesta:     12.10498  13.57076   0.00000  4       24
siesta:     17.37648   8.38569   0.00000  4       25
siesta:      4.54990  11.77327   0.00000  4       26
siesta:      3.21299   8.54909   0.00000  4       27
siesta:     10.62452   0.36332   0.00000  1       28
siesta:     15.23507   3.37094   0.00000  4       29

siesta: Automatic unit cell vectors (Ang):
siesta:   22.979191    0.000000    0.000000
siesta:    0.000000   18.702682    0.000000
siesta:    0.000000    0.000000    9.854683

siesta: System type = molecule  

initatomlists: Number of atoms, orbitals, and projectors:     29   297   394

siesta: ******************** Simulation parameters ****************************
siesta:
siesta: The following are some of the parameters of the simulation.
siesta: A complete list of the parameters used, including default values,
siesta: can be found in file out.fdf
siesta:
redata: Spin configuration                          = spin-orbit
redata: Number of spin components                   = 8
redata: Time-Reversal Symmetry                      = F
redata: Spin spiral                                 = F
############################################################
This spin-orbit implementation uses a local approximation.
From 4.2 and onwards the full non-local approximation is implemented
You are strongly advised to use >=4.2 versions!
############################################################
redata: Long output                                 =   F
redata: Number of Atomic Species                    =        4
redata: Charge density info will appear in .RHO file
redata: Write Mulliken Pop.                         = Atomic and Orbital charges
redata: Matel table size (NRTAB)                    =     1024
redata: Mesh Cutoff                                 =   340.0000 Ry
redata: Net charge of the system                    =     0.0000 |e|
redata: Min. number of SCF Iter                     =        1
redata: Max. number of SCF Iter                     =      200
redata: SCF mix quantity                            = Hamiltonian
redata: Mix DM or H after convergence               =   F
redata: Recompute H after scf cycle                 =   F
redata: Mix DM in first SCF step                    =   T
redata: Write Pulay info on disk                    =   F
redata: New DM Occupancy tolerance                  = 0.000000000001
redata: No kicks to SCF
redata: DM Mixing Weight for Kicks                  =     0.5000
redata: Require Harris convergence for SCF          =   F
redata: Harris energy tolerance for SCF             =     0.000100 eV
redata: Require DM convergence for SCF              =   T
redata: DM tolerance for SCF                        =     0.000008
redata: Require EDM convergence for SCF             =   F
redata: EDM tolerance for SCF                       =     0.001000 eV
redata: Require H convergence for SCF               =   T
redata: Hamiltonian tolerance for SCF               =     0.000001 eV
redata: Require (free) Energy convergence for SCF   =   F
redata: (free) Energy tolerance for SCF             =     0.000100 eV
redata: Using Saved Data (generic)                  =   F
redata: Use continuation files for DM               =   F
redata: Neglect nonoverlap interactions             =   F
redata: Method of Calculation                       = Diagonalization
redata: Electronic Temperature                      =   299.9978 K
redata: Fix the spin of the system                  =   F
redata: Dynamics option                             = Single-point calculation
mix.SCF: Pulay mixing                            = Pulay
mix.SCF:    Variant                              = stable
mix.SCF:    History steps                        = 6
mix.SCF:    Linear mixing weight                 =     0.250000
mix.SCF:    Mixing weight                        =     0.250000
mix.SCF:    SVD condition                        = 0.1000E-07
mix.SCF:    Restart steps                        = 24
mix.SCF:    Restart save steps                   = 3
mix.SCF: Spin-component mixing                   all
redata: Save all siesta data in one NC              =   F
redata: ***********************************************************************

%block SCF.Mixers
  Pulay
%endblock SCF.Mixers

%block SCF.Mixer.Pulay
  # Mixing method
  method pulay
  variant stable

  # Mixing options
  weight 0.2500
  weight.linear 0.2500
  history 6
  restart 24
  restart.save 3
%endblock SCF.Mixer.Pulay

DM_history_depth set to one: no extrapolation allowed by default for geometry relaxation
Size of DM history Fstack: 1
Total number of electrons:    98.000000
Total ionic charge:    98.000000

* ProcessorY, Blocksize:    2  24


* Orbital distribution balance (max,min):    81    72


Time-reversal symmetry not used.

siesta: k-grid: Number of k-points =     1
siesta: k-grid: Cutoff (effective) =     4.927 Ang
siesta: k-grid: Supercell and displacements
siesta: k-grid:    1   0   0      0.000
siesta: k-grid:    0   1   0      0.000
siesta: k-grid:    0   0   1      0.000

diag: Algorithm                                     = ELPA-1stage
diag: Parallel over k                               =   F
diag: Use parallel 2D distribution                  =   T
diag: Parallel block-size                           = 24
diag: Parallel distribution                         =     2 x     2
diag: Used triangular part                          = Lower
diag: Absolute tolerance                            =  0.100E-15
diag: Orthogonalization factor                      =  0.100E-05
diag: Memory factor                                 =  1.0000


ts: **************************************************************
ts: Save H and S matrices                           =    F
ts: Save DM and EDM matrices                        =    F
ts: Only save the overlap matrix S                  =    F
ts: **************************************************************

************************ Begin: TS CHECKS AND WARNINGS ************************
************************ End: TS CHECKS AND WARNINGS **************************


                     ====================================
                        Single-point calculation
                     ====================================

outcoor: Atomic coordinates (Ang):                          
    0.95867151    3.80352930    0.00000000   1       1  O
   -3.03868821    0.99807333    0.00000000   2       2  N
    2.06656775    1.09906577    0.00000000   2       3  N
    1.02956986   -1.83468085    0.00000000   2       4  N
   -2.10856766   -1.88179824    0.00000000   2       5  N
    3.91241107   -1.18089443    0.00000000   2       6  N
   -1.23563679    1.04498300    0.00000000   3       7  Si
   -0.50190924   -1.03183228    0.00000000   3       8  Si
    0.62946328    2.23275584    0.00000000   3       9  Si
    2.28005437   -0.65829354    0.00000000   3      10  Si
   -3.42481299   -0.66232416    0.00000000   3      11  Si
    2.96597416    1.68226399    0.00000000   4      12  H
   -4.79622939   -1.23872848    0.00000000   4      13  H
    4.09655941   -2.21414876    0.00000000   4      14  H
    4.79210868   -0.52914725    0.00000000   4      15  H
   -2.26686130   -2.92239373    0.00000000   4      16  H
    4.17170823    4.52504245    0.00000000   3      17  Si
    6.09718598    5.71667178    0.00000000   3      18  Si
    5.63237959    1.79048808    0.00000000   3      19  Si
    7.70355951    4.23753467    0.00000000   3      20  Si
    4.27399277    2.81568776    0.00000000   2      21  N
    2.59233014    5.19527194    0.00000000   2      22  N
    7.28544949    2.50565176    0.00000000   2      23  N
    6.40567680    7.18133314    0.00000000   4      24  H
    9.19523242    4.43751413    0.00000000   4      25  H
    2.40770370    6.23014567    0.00000000   4      26  H
    1.70023835    4.52398321    0.00000000   4      27  H
    5.62224899    0.19225956    0.00000000   1      28  O
    8.06204787    1.78382156    0.00000000   4      29  H

outcell: Unit cell vectors (Ang):
       22.979191    0.000000    0.000000
        0.000000   18.702682    0.000000
        0.000000    0.000000    9.854683

outcell: Cell vector modules (Ang)   :   22.979191   18.702682    9.854683
outcell: Cell angles (23,13,12) (deg):     90.0000     90.0000     90.0000
outcell: Cell volume (Ang**3)        :   4235.2719
<dSpData1D:S at geom step 0
  <sparsity:sparsity for geom step 0
    nrows_g=297 nrows=81 sparsity=.2426 nnzs=21402, refcount: 8>
  <dData1D:(new from dSpData1D) n=21402, refcount: 1>
refcount: 1>
new_DM -- step:     1
Initializing Density Matrix...
DM filled with atomic data:
<dSpData2D:DM initialized from atoms
  <sparsity:sparsity for geom step 0
    nrows_g=297 nrows=81 sparsity=.2426 nnzs=21402, refcount: 9>
  <dData2D:DM n=21402 m=8, refcount: 1>
refcount: 1>
     spin moment: S , {S} =   56.00000   0.00000   0.00000  56.00000
No. of atoms with KB's overlaping orbs in proc 0. Max # of overlaps:      29     223

Initializing spin-orbit part of the Hamiltonian
  Adding spin-orbit effects for O 
  Adding spin-orbit effects for N 
  Adding spin-orbit effects for Si
  Adding spin-orbit effects for H 


New grid distribution:   1
           1       1:  128    1:   54    1:   30
           2       1:  128    1:   54   31:   60
           3       1:  128   55:  108    1:   30
           4       1:  128   55:  108   31:   60

InitMesh: MESH =   256 x   216 x   120 =     6635520
InitMesh: (bp) =   128 x   108 x    60 =      829440
InitMesh: Mesh cutoff (required, used) =   340.000   343.014 Ry
ExtMesh (bp) on 0 =   228 x   158 x   142 =     5115408
New grid distribution:   2
           1      29:  128    1:   24    1:   60
           2       1:   28    1:   21    1:   60
           3      29:  128   25:  108    1:   60
           4       1:   28   22:  108    1:   60
New grid distribution:   3
           1      42:  128    1:   32    1:   60
           2       1:   41    1:   37    1:   60
           3      42:  128   33:  108    1:   60
           4       1:   41   38:  108    1:   60
Setting up quadratic distribution...
ExtMesh (bp) on 0 =   200 x   128 x   172 =     4403200
PhiOnMesh: Number of (b)points on node 0 =               144000
PhiOnMesh: nlist on node 0 =              2586540

stepf: Fermi-Dirac step function

siesta: Program's energy decomposition (eV):
siesta: Ebs     =      -598.149509
siesta: Eions   =      3585.165840
siesta: Ena     =       387.713061
siesta: Ekin    =      3400.027913
siesta: Enl     =     -3329.572755
siesta: Eso     =        -0.003506
siesta: Edftu   =         0.000000
siesta: DEna    =       157.584278
siesta: DUscf   =        81.322432
siesta: DUext   =         0.000000
siesta: Exc     =     -1212.066048
siesta: eta*DQ  =         0.000000
siesta: Emadel  =         0.000000
siesta: Emeta   =         0.000000
siesta: Emolmec =         0.000000
siesta: Ekinion =         0.000000
siesta: Eharris =     -4010.584258
siesta: Etot    =     -4100.160465
siesta: FreeEng =     -4100.162284

        iscf     Eharris(eV)        E_KS(eV)     FreeEng(eV)     dDmax    Ef(eV) dHmax(eV)
   scf:    1    -4010.584258    -4100.160465    -4100.162284  0.960216 -4.909082 21.437265
     spin moment: S , {S} =    2.01110  -0.00000   0.00000   2.01110
timer: Routine,Calls,Time,% = IterSCF        1      11.771  16.37
   scf:    2    -4149.493930    -4136.356777    -4136.357895  0.473422 -4.179758 10.491603
     spin moment: S , {S} =    1.99471  -0.00000  -0.00000   1.99471
   scf:    3    -4111.563950    -4133.806063    -4133.831925  0.430301 -4.196388 11.001322
     spin moment: S , {S} =    2.00015  -0.00000   0.00000   2.00015
   scf:    4    -4148.630217    -4143.923937    -4143.923941  0.278605 -3.822265  5.547326
     spin moment: S , {S} =    0.00010  -0.00000  -0.00000   0.00010
   scf:    5    -4145.089053    -4144.615606    -4144.615606  0.040160 -3.642986  4.625409
     spin moment: S , {S} =    0.00006   0.00000   0.00000   0.00006
   scf:    6    -4145.516925    -4145.070584    -4145.070584  0.028971 -3.571122  2.174341
     spin moment: S , {S} =    0.00003  -0.00000   0.00000   0.00003
   scf:    7    -4145.431700    -4145.253103    -4145.253103  0.020535 -3.682607  0.805140
     spin moment: S , {S} =    0.00001   0.00000   0.00000   0.00001
   scf:    8    -4145.385813    -4145.317349    -4145.317349  0.013166 -3.764995  0.357371
     spin moment: S , {S} =    0.00000   0.00000  -0.00000   0.00000
   scf:    9    -4145.350323    -4145.333454    -4145.333454  0.006539 -3.754702  0.246146
     spin moment: S , {S} =    0.00000   0.00000  -0.00000   0.00000
   scf:   10    -4145.368648    -4145.349462    -4145.349462  0.011492 -3.774543  0.116835
     spin moment: S , {S} =    0.00000   0.00000   0.00000  -0.00000
   scf:   11    -4145.356172    -4145.352574    -4145.352574  0.005409 -3.768905  0.062993
     spin moment: S , {S} =    0.00000  -0.00000  -0.00000   0.00000
   scf:   12    -4145.355217    -4145.353810    -4145.353810  0.003615 -3.766559  0.040102
     spin moment: S , {S} =    0.00000  -0.00000  -0.00000   0.00000
   scf:   13    -4145.355308    -4145.354497    -4145.354497  0.003042 -3.763656  0.031528
     spin moment: S , {S} =    0.00000  -0.00000   0.00000   0.00000
   scf:   14    -4145.355655    -4145.354982    -4145.354982  0.003919 -3.763799  0.015849
     spin moment: S , {S} =    0.00000  -0.00000   0.00000   0.00000
   scf:   15    -4145.355268    -4145.355098    -4145.355098  0.002253 -3.763691  0.008626
     spin moment: S , {S} =    0.00000  -0.00000   0.00000   0.00000
   scf:   16    -4145.355152    -4145.355121    -4145.355121  0.000938 -3.763866  0.005987
     spin moment: S , {S} =    0.00000  -0.00000   0.00000   0.00000
   scf:   17    -4145.355141    -4145.355130    -4145.355130  0.000532 -3.763985  0.003804
     spin moment: S , {S} =    0.00000  -0.00000  -0.00000   0.00000
   scf:   18    -4145.355144    -4145.355136    -4145.355136  0.000499 -3.764011  0.001832
     spin moment: S , {S} =    0.00000  -0.00000  -0.00000  -0.00000
   scf:   19    -4145.355141    -4145.355138    -4145.355138  0.000332 -3.763986  0.000656
     spin moment: S , {S} =    0.00000  -0.00000  -0.00000  -0.00000
   scf:   20    -4145.355139    -4145.355138    -4145.355138  0.000104 -3.763924  0.000364
     spin moment: S , {S} =    0.00000  -0.00000   0.00000  -0.00000
   scf:   21    -4145.355139    -4145.355139    -4145.355139  0.000056 -3.763888  0.000265
     spin moment: S , {S} =    0.00000  -0.00000   0.00000  -0.00000
   scf:   22    -4145.355139    -4145.355139    -4145.355139  0.000022 -3.763870  0.000147
     spin moment: S , {S} =    0.00000  -0.00000  -0.00000  -0.00000
   scf:   23    -4145.355139    -4145.355139    -4145.355139  0.000007 -3.763868  0.000101
     spin moment: S , {S} =    0.00000  -0.00000   0.00000  -0.00000
   scf:   24    -4145.355139    -4145.355139    -4145.355139  0.000009 -3.763864  0.000059
     spin moment: S , {S} =    0.00000  -0.00000  -0.00000  -0.00000
mix: Pulay -- resetting history
   scf:   25    -4145.355139    -4145.355139    -4145.355139  0.000005 -3.763863  0.000034
     spin moment: S , {S} =    0.00000  -0.00000   0.00000  -0.00000
   scf:   26    -4145.355139    -4145.355139    -4145.355139  0.000003 -3.763864  0.000020
     spin moment: S , {S} =    0.00000  -0.00000   0.00000  -0.00000
   scf:   27    -4145.355139    -4145.355139    -4145.355139  0.000002 -3.763864  0.000012
     spin moment: S , {S} =    0.00000  -0.00000  -0.00000  -0.00000
   scf:   28    -4145.355139    -4145.355139    -4145.355139  0.000002 -3.763864  0.000005
     spin moment: S , {S} =    0.00000  -0.00000   0.00000  -0.00000
   scf:   29    -4145.355139    -4145.355139    -4145.355139  0.000000 -3.763864  0.000003
     spin moment: S , {S} =    0.00000  -0.00000   0.00000  -0.00000
   scf:   30    -4145.355139    -4145.355139    -4145.355139  0.000001 -3.763864  0.000001
     spin moment: S , {S} =    0.00000  -0.00000  -0.00000  -0.00000
   scf:   31    -4145.355139    -4145.355139    -4145.355139  0.000000 -3.763864  0.000001
     spin moment: S , {S} =    0.00000  -0.00000   0.00000  -0.00000

SCF Convergence by DM+H criterion
max |DM_out - DM_in|         :     0.0000002204
max |H_out - H_in|      (eV) :     0.0000007490
SCF cycle converged after 31 iterations

Using DM_out to compute the final energy and forces
No. of atoms with KB's overlaping orbs in proc 0. Max # of overlaps:      29     223

siesta: E_KS(eV) =            -4145.3551

siesta: E_KS - E_eggbox =     -4145.3551
     spin moment: S , {S} =    0.00000  -0.00000   0.00000  -0.00000

siesta: Atomic forces (eV/Ang):
     1   -3.386901   -3.498187   -0.000000
     2   -0.040437   -0.004939   -0.000000
     3   -1.068764   -0.173559    0.000000
     4   -0.626826   -0.020637    0.000000
     5   -0.048636    0.092830   -0.000000
     6   -4.351133   -2.947527   -0.000000
     7   -0.019607    0.209101   -0.000000
     8    0.291282   -0.251535    0.000000
     9   -0.115240   -1.263788    0.000000
    10    0.600729   -0.508491    0.000000
    11    0.024890    0.010750    0.000000
    12    0.353548    0.339334    0.000000
    13   -0.148501    0.016659   -0.000000
    14   -0.292434   -0.369333   -0.000000
    15   -0.896579   -0.644544   -0.000000
    16    0.027929   -0.216619    0.000000
    17   -0.556063    1.145642   -0.000000
    18    0.166213   -0.193929   -0.000000
    19    0.466844    0.999395   -0.000000
    20    0.057862    0.368466    0.000000
    21    0.692727   -0.397296   -0.000000
    22    5.158760    3.668563   -0.000000
    23   -0.229918   -0.408624    0.000000
    24   -0.099435    0.098101    0.000000
    25    0.009004   -0.092821   -0.000000
    26    0.508856    0.351950    0.000000
    27    1.102263    0.935520   -0.000000
    28    7.709675    0.417216    0.000000
    29    0.027535    0.063447   -0.000000
----------------------------------------
   Tot    5.317643   -2.274855   -0.000000
----------------------------------------
   Max    7.709675
   Res    1.369503    sqrt( Sum f_i^2 / 3N )
----------------------------------------
   Max    7.709675    constrained

Stress tensor Voigt[x,y,z,yz,xz,xy] (kbar):       -7.48       -6.73       -0.10        0.00       -0.00       -7.27
(Free)E + p*V (eV/cell)    -4132.7520
Target enthalpy (eV/cell)    -4145.3551

mulliken: Atomic and Orbital Populations:

Species: O                   

Atom      Orb        Charge      Spin       Svec
----------------------------------------------------------------
    1  1 2s         1.59243   0.00000     -0.000   0.000  -0.000
    1  2 2s         0.11132   0.00000      0.000  -0.000   0.000
    1  3 2py        1.21612   0.00000     -0.000   0.000   0.000
    1  4 2pz        1.66951   0.00000      0.000  -0.000  -0.000
    1  5 2px        1.60994   0.00000     -0.000   0.000   0.000
    1  6 2py        0.16658   0.00000      0.000   0.000   0.000
    1  7 2pz       -0.01636   0.00000     -0.000  -0.000  -0.000
    1  8 2px        0.02870   0.00000      0.000   0.000  -0.000
    1  9 3Pdxy      0.01116   0.00000     -0.000  -0.000  -0.000
    1 10 3Pdyz      0.00635   0.00000     -0.000   0.000  -0.000
    1 11 3Pdz2      0.00261   0.00000      0.000   0.000  -0.000
    1 12 3Pdxz      0.00061   0.00000      0.000  -0.000  -0.000
    1 13 3Pdx2-y2   0.00430   0.00000     -0.000  -0.000   0.000
    1     Total     6.40327   0.00000     -0.000   0.000  -0.000

   28  1 2s         1.64214   0.00000     -0.000  -0.000   0.000
   28  2 2s         0.08928   0.00000      0.000   0.000  -0.000
   28  3 2py        1.21651   0.00000     -0.000  -0.000   0.000
   28  4 2pz        1.65315   0.00000     -0.000  -0.000   0.000
   28  5 2px        1.64691   0.00000     -0.000  -0.000   0.000
   28  6 2py        0.15487   0.00000      0.000   0.000   0.000
   28  7 2pz       -0.01754   0.00000      0.000   0.000   0.000
   28  8 2px        0.01100   0.00000     -0.000   0.000  -0.000
   28  9 3Pdxy      0.01182   0.00000     -0.000   0.000  -0.000
   28 10 3Pdyz      0.00748   0.00000      0.000  -0.000  -0.000
   28 11 3Pdz2      0.00244   0.00000      0.000  -0.000   0.000
   28 12 3Pdxz      0.00074   0.00000     -0.000   0.000   0.000
   28 13 3Pdx2-y2   0.00569   0.00000      0.000   0.000  -0.000
   28     Total     6.42449   0.00000     -0.000  -0.000   0.000

----------------------------------------------------------------
Total              12.82776   0.00000     -0.000  -0.000   0.000


Species: N                   

Atom      Orb        Charge      Spin       Svec
----------------------------------------------------------------
    2  1 2s         1.55249   0.00000      0.000  -0.000  -0.000
    2  2 2s         0.08398   0.00000     -0.000   0.000   0.000
    2  3 2py        1.04079   0.00000     -0.000   0.000  -0.000
    2  4 2pz        1.22495   0.00000      0.000  -0.000  -0.000
    2  5 2px        0.98953   0.00000     -0.000   0.000  -0.000
    2  6 2py        0.18827   0.00000     -0.000  -0.000   0.000
    2  7 2pz        0.05630   0.00000     -0.000  -0.000   0.000
    2  8 2px        0.19547   0.00000      0.000  -0.000   0.000
    2  9 3Pdxy      0.00853   0.00000      0.000   0.000   0.000
    2 10 3Pdyz      0.01118   0.00000      0.000  -0.000   0.000
    2 11 3Pdz2      0.00189   0.00000     -0.000  -0.000   0.000
    2 12 3Pdxz      0.00754   0.00000     -0.000   0.000   0.000
    2 13 3Pdx2-y2   0.00932   0.00000     -0.000  -0.000  -0.000
    2     Total     5.37023   0.00000      0.000  -0.000  -0.000

    3  1 2s         1.37915   0.00000      0.000   0.000   0.000
    3  2 2s         0.12412   0.00000     -0.000  -0.000  -0.000
    3  3 2py        0.92860   0.00000     -0.000  -0.000   0.000
    3  4 2pz        1.52183   0.00000     -0.000  -0.000   0.000
    3  5 2px        1.05211   0.00000      0.000  -0.000   0.000
    3  6 2py        0.26183   0.00000      0.000   0.000  -0.000
    3  7 2pz        0.00694   0.00000      0.000   0.000  -0.000
    3  8 2px        0.19991   0.00000     -0.000   0.000  -0.000
    3  9 3Pdxy      0.00503   0.00000     -0.000   0.000   0.000
    3 10 3Pdyz      0.00386   0.00000      0.000  -0.000  -0.000
    3 11 3Pdz2      0.00047   0.00000     -0.000  -0.000   0.000
    3 12 3Pdxz      0.00298   0.00000     -0.000   0.000  -0.000
    3 13 3Pdx2-y2   0.00244   0.00000      0.000   0.000   0.000
    3     Total     5.48927   0.00000      0.000  -0.000   0.000

    4  1 2s         1.46497   0.00000     -0.000  -0.000   0.000
    4  2 2s         0.11906   0.00000      0.000   0.000   0.000
    4  3 2py        1.12798   0.00000     -0.000   0.000   0.000
    4  4 2pz        1.28030   0.00000     -0.000  -0.000   0.000
    4  5 2px        0.82603   0.00000     -0.000  -0.000   0.000
    4  6 2py        0.15161   0.00000      0.000  -0.000  -0.000
    4  7 2pz        0.05465   0.00000      0.000   0.000   0.000
    4  8 2px        0.29052   0.00000      0.000   0.000  -0.000
    4  9 3Pdxy      0.00865   0.00000     -0.000  -0.000   0.000
    4 10 3Pdyz      0.01051   0.00000      0.000  -0.000  -0.000
    4 11 3Pdz2      0.00133   0.00000      0.000  -0.000   0.000
    4 12 3Pdxz      0.00475   0.00000      0.000  -0.000   0.000
    4 13 3Pdx2-y2   0.00788   0.00000     -0.000   0.000  -0.000
    4     Total     5.34824   0.00000     -0.000  -0.000   0.000

    5  1 2s         1.37125   0.00000     -0.000   0.000  -0.000
    5  2 2s         0.13010   0.00000      0.000  -0.000   0.000
    5  3 2py        1.02735   0.00000      0.000   0.000  -0.000
    5  4 2pz        1.49812   0.00000      0.000  -0.000  -0.000
    5  5 2px        1.05681   0.00000     -0.000  -0.000  -0.000
    5  6 2py        0.20579   0.00000     -0.000  -0.000   0.000
    5  7 2pz        0.01371   0.00000     -0.000   0.000   0.000
    5  8 2px        0.20569   0.00000      0.000   0.000   0.000
    5  9 3Pdxy      0.00384   0.00000     -0.000  -0.000   0.000
    5 10 3Pdyz      0.00247   0.00000     -0.000   0.000   0.000
    5 11 3Pdz2      0.00141   0.00000     -0.000  -0.000   0.000
    5 12 3Pdxz      0.00641   0.00000     -0.000   0.000   0.000
    5 13 3Pdx2-y2   0.00560   0.00000     -0.000  -0.000   0.000
    5     Total     5.52856   0.00000     -0.000  -0.000  -0.000

    6  1 2s         1.30490   0.00000     -0.000  -0.000  -0.000
    6  2 2s         0.16667   0.00000     -0.000   0.000   0.000
    6  3 2py        1.08687   0.00000      0.000  -0.000   0.000
    6  4 2pz        1.44919   0.00000      0.000  -0.000   0.000
    6  5 2px        1.01652   0.00000      0.000  -0.000   0.000
    6  6 2py        0.18551   0.00000     -0.000   0.000   0.000
    6  7 2pz        0.03902   0.00000      0.000   0.000  -0.000
    6  8 2px        0.23933   0.00000     -0.000   0.000   0.000
    6  9 3Pdxy      0.00526   0.00000      0.000  -0.000   0.000
    6 10 3Pdyz      0.00010   0.00000      0.000   0.000  -0.000
    6 11 3Pdz2      0.00245   0.00000     -0.000   0.000  -0.000
    6 12 3Pdxz      0.00467   0.00000     -0.000   0.000  -0.000
    6 13 3Pdx2-y2   0.00496   0.00000     -0.000  -0.000  -0.000
    6     Total     5.50544   0.00000      0.000  -0.000   0.000

   21  1 2s         1.41070   0.00000      0.000  -0.000   0.000
   21  2 2s         0.12413   0.00000     -0.000  -0.000  -0.000
   21  3 2py        0.90832   0.00000      0.000  -0.000   0.000
   21  4 2pz        1.35632   0.00000      0.000   0.000   0.000
   21  5 2px        1.15152   0.00000      0.000  -0.000   0.000
   21  6 2py        0.26750   0.00000     -0.000  -0.000  -0.000
   21  7 2pz        0.03422   0.00000      0.000  -0.000  -0.000
   21  8 2px        0.16226   0.00000     -0.000  -0.000  -0.000
   21  9 3Pdxy      0.00882   0.00000      0.000  -0.000   0.000
   21 10 3Pdyz      0.00437   0.00000     -0.000  -0.000  -0.000
   21 11 3Pdz2      0.00052   0.00000     -0.000  -0.000  -0.000
   21 12 3Pdxz      0.00544   0.00000     -0.000   0.000  -0.000
   21 13 3Pdx2-y2   0.00563   0.00000      0.000  -0.000   0.000
   21     Total     5.43976   0.00000      0.000   0.000   0.000

   22  1 2s         1.33120   0.00000     -0.000   0.000   0.000
   22  2 2s         0.15845   0.00000      0.000  -0.000   0.000
   22  3 2py        1.08754   0.00000      0.000  -0.000   0.000
   22  4 2pz        1.39319   0.00000     -0.000   0.000   0.000
   22  5 2px        1.06125   0.00000     -0.000  -0.000   0.000
   22  6 2py        0.18759   0.00000     -0.000   0.000   0.000
   22  7 2pz        0.03843   0.00000     -0.000  -0.000  -0.000
   22  8 2px        0.21077   0.00000      0.000   0.000  -0.000
   22  9 3Pdxy      0.00669   0.00000     -0.000  -0.000  -0.000
   22 10 3Pdyz      0.00023   0.00000      0.000   0.000  -0.000
   22 11 3Pdz2      0.00310   0.00000     -0.000  -0.000  -0.000
   22 12 3Pdxz      0.00522   0.00000      0.000  -0.000  -0.000
   22 13 3Pdx2-y2   0.00550   0.00000      0.000   0.000  -0.000
   22     Total     5.48916   0.00000     -0.000   0.000   0.000

   23  1 2s         1.35584   0.00000      0.000  -0.000   0.000
   23  2 2s         0.13750   0.00000     -0.000   0.000  -0.000
   23  3 2py        1.01215   0.00000      0.000   0.000   0.000
   23  4 2pz        1.54085   0.00000     -0.000  -0.000   0.000
   23  5 2px        1.03395   0.00000      0.000  -0.000   0.000
   23  6 2py        0.21761   0.00000     -0.000  -0.000   0.000
   23  7 2pz        0.00449   0.00000     -0.000   0.000  -0.000
   23  8 2px        0.20991   0.00000     -0.000   0.000  -0.000
   23  9 3Pdxy      0.00537   0.00000      0.000   0.000   0.000
   23 10 3Pdyz      0.00475   0.00000     -0.000  -0.000   0.000
   23 11 3Pdz2      0.00087   0.00000      0.000  -0.000  -0.000
   23 12 3Pdxz      0.00240   0.00000     -0.000   0.000  -0.000
   23 13 3Pdx2-y2   0.00152   0.00000      0.000   0.000  -0.000
   23     Total     5.52720   0.00000      0.000  -0.000   0.000

----------------------------------------------------------------
Total              56.52562   0.00000     -0.000   0.000   0.000


Species: Si                  

Atom      Orb        Charge      Spin       Svec
----------------------------------------------------------------
    7  1 3s         0.64478   0.00000      0.000   0.000   0.000
    7  2 3s         0.37564   0.00000     -0.000  -0.000   0.000
    7  3 3py        0.46277   0.00000     -0.000  -0.000   0.000
    7  4 3pz        0.68392   0.00000      0.000  -0.000   0.000
    7  5 3px        0.11305   0.00000      0.000   0.000  -0.000
    7  6 3py        0.28311   0.00000      0.000   0.000   0.000
    7  7 3pz        0.26741   0.00000      0.000   0.000   0.000
    7  8 3px        0.44865   0.00000     -0.000  -0.000   0.000
    7  9 3Pdxy      0.25300   0.00000      0.000  -0.000   0.000
    7 10 3Pdyz      0.02875   0.00000     -0.000   0.000  -0.000
    7 11 3Pdz2      0.01094   0.00000      0.000   0.000  -0.000
    7 12 3Pdxz      0.15477   0.00000     -0.000  -0.000  -0.000
    7 13 3Pdx2-y2   0.11178   0.00000     -0.000  -0.000  -0.000
    7     Total     3.83858   0.00000      0.000  -0.000   0.000

    8  1 3s         0.65255   0.00000     -0.000   0.000  -0.000
    8  2 3s         0.37088   0.00000      0.000  -0.000   0.000
    8  3 3py        0.40325   0.00000      0.000  -0.000   0.000
    8  4 3pz        0.48440   0.00000      0.000  -0.000   0.000
    8  5 3px       -0.01020   0.00000     -0.000  -0.000   0.000
    8  6 3py        0.30170   0.00000     -0.000   0.000  -0.000
    8  7 3pz        0.20793   0.00000     -0.000   0.000  -0.000
    8  8 3px        0.51060   0.00000      0.000   0.000  -0.000
    8  9 3Pdxy      0.25133   0.00000      0.000   0.000  -0.000
    8 10 3Pdyz      0.11024   0.00000      0.000  -0.000   0.000
    8 11 3Pdz2      0.01384   0.00000      0.000   0.000   0.000
    8 12 3Pdxz      0.15962   0.00000     -0.000   0.000  -0.000
    8 13 3Pdx2-y2   0.20561   0.00000      0.000   0.000  -0.000
    8     Total     3.66176   0.00000      0.000  -0.000  -0.000

    9  1 3s         0.59303   0.00000      0.000  -0.000  -0.000
    9  2 3s         0.36972   0.00000     -0.000   0.000  -0.000
    9  3 3py        0.15116   0.00000     -0.000   0.000  -0.000
    9  4 3pz        0.46429   0.00000     -0.000   0.000  -0.000
    9  5 3px        0.32442   0.00000      0.000  -0.000  -0.000
    9  6 3py        0.35893   0.00000      0.000  -0.000  -0.000
    9  7 3pz        0.20281   0.00000     -0.000   0.000  -0.000
    9  8 3px        0.30999   0.00000     -0.000   0.000   0.000
    9  9 3Pdxy      0.26217   0.00000     -0.000  -0.000  -0.000
    9 10 3Pdyz      0.17525   0.00000     -0.000   0.000  -0.000
    9 11 3Pdz2      0.00961   0.00000     -0.000  -0.000  -0.000
    9 12 3Pdxz      0.11606   0.00000     -0.000   0.000  -0.000
    9 13 3Pdx2-y2   0.18725   0.00000     -0.000   0.000  -0.000
    9     Total     3.52469   0.00000     -0.000   0.000  -0.000

   10  1 3s         0.50280   0.00000      0.000   0.000  -0.000
   10  2 3s         0.36876   0.00000     -0.000  -0.000  -0.000
   10  3 3py        0.25042   0.00000     -0.000   0.000  -0.000
   10  4 3pz        0.44278   0.00000      0.000  -0.000  -0.000
   10  5 3px        0.08848   0.00000      0.000   0.000  -0.000
   10  6 3py        0.31432   0.00000      0.000   0.000  -0.000
   10  7 3pz        0.20696   0.00000     -0.000   0.000  -0.000
   10  8 3px        0.46235   0.00000     -0.000  -0.000  -0.000
   10  9 3Pdxy      0.19196   0.00000     -0.000  -0.000  -0.000
   10 10 3Pdyz      0.12400   0.00000     -0.000   0.000  -0.000
   10 11 3Pdz2      0.00984   0.00000      0.000  -0.000  -0.000
   10 12 3Pdxz      0.19108   0.00000      0.000  -0.000  -0.000
   10 13 3Pdx2-y2   0.31190   0.00000      0.000   0.000  -0.000
   10     Total     3.46565   0.00000      0.000   0.000  -0.000

   11  1 3s         0.55161   0.00000     -0.000   0.000   0.000
   11  2 3s         0.38695   0.00000      0.000  -0.000   0.000
   11  3 3py        0.31247   0.00000      0.000  -0.000   0.000
   11  4 3pz        0.52438   0.00000     -0.000   0.000   0.000
   11  5 3px        0.13168   0.00000     -0.000  -0.000   0.000
   11  6 3py        0.29925   0.00000      0.000   0.000   0.000
   11  7 3pz        0.18001   0.00000      0.000  -0.000   0.000
   11  8 3px        0.44341   0.00000      0.000   0.000   0.000
   11  9 3Pdxy      0.23636   0.00000      0.000  -0.000   0.000
   11 10 3Pdyz      0.13000   0.00000     -0.000  -0.000   0.000
   11 11 3Pdz2      0.01005   0.00000     -0.000  -0.000  -0.000
   11 12 3Pdxz      0.05419   0.00000      0.000  -0.000   0.000
   11 13 3Pdx2-y2   0.19893   0.00000      0.000  -0.000   0.000
   11     Total     3.45926   0.00000     -0.000  -0.000   0.000

   17  1 3s         0.64840   0.00000      0.000   0.000  -0.000
   17  2 3s         0.35131   0.00000     -0.000  -0.000  -0.000
   17  3 3py        0.22729   0.00000     -0.000  -0.000  -0.000
   17  4 3pz        0.44661   0.00000      0.000  -0.000  -0.000
   17  5 3px        0.22112   0.00000      0.000  -0.000  -0.000
   17  6 3py        0.36016   0.00000      0.000  -0.000   0.000
   17  7 3pz        0.20939   0.00000      0.000  -0.000  -0.000
   17  8 3px        0.40058   0.00000     -0.000   0.000   0.000
   17  9 3Pdxy      0.26637   0.00000      0.000   0.000  -0.000
   17 10 3Pdyz      0.12450   0.00000     -0.000  -0.000  -0.000
   17 11 3Pdz2      0.00757   0.00000      0.000   0.000   0.000
   17 12 3Pdxz      0.14920   0.00000      0.000  -0.000  -0.000
   17 13 3Pdx2-y2   0.20097   0.00000     -0.000  -0.000  -0.000
   17     Total     3.61347   0.00000      0.000  -0.000  -0.000

   18  1 3s         0.75778   0.00000     -0.000  -0.000  -0.000
   18  2 3s         0.33940   0.00000      0.000   0.000   0.000
   18  3 3py        0.07638   0.00000      0.000   0.000  -0.000
   18  4 3pz        0.79175   0.00000     -0.000   0.000  -0.000
   18  5 3px        0.54794   0.00000     -0.000  -0.000  -0.000
   18  6 3py        0.52012   0.00000     -0.000   0.000   0.000
   18  7 3pz        0.19215   0.00000      0.000   0.000  -0.000
   18  8 3px        0.25824   0.00000      0.000  -0.000   0.000
   18  9 3Pdxy      0.10575   0.00000      0.000  -0.000  -0.000
   18 10 3Pdyz      0.02651   0.00000     -0.000  -0.000   0.000
   18 11 3Pdz2      0.00943   0.00000      0.000   0.000   0.000
   18 12 3Pdxz      0.03542   0.00000      0.000   0.000  -0.000
   18 13 3Pdx2-y2   0.10441   0.00000     -0.000  -0.000  -0.000
   18     Total     3.76526   0.00000     -0.000   0.000  -0.000

   19  1 3s         0.45628   0.00000      0.000   0.000  -0.000
   19  2 3s         0.36286   0.00000     -0.000  -0.000  -0.000
   19  3 3py        0.10430   0.00000      0.000   0.000  -0.000
   19  4 3pz        0.37416   0.00000      0.000   0.000  -0.000
   19  5 3px        0.20499   0.00000     -0.000   0.000  -0.000
   19  6 3py        0.41857   0.00000     -0.000  -0.000  -0.000
   19  7 3pz        0.20736   0.00000      0.000   0.000  -0.000
   19  8 3px        0.33441   0.00000      0.000   0.000  -0.000
   19  9 3Pdxy      0.28962   0.00000      0.000  -0.000  -0.000
   19 10 3Pdyz      0.16922   0.00000     -0.000  -0.000  -0.000
   19 11 3Pdz2      0.00835   0.00000      0.000  -0.000  -0.000
   19 12 3Pdxz      0.11126   0.00000     -0.000  -0.000  -0.000
   19 13 3Pdx2-y2   0.23969   0.00000      0.000   0.000  -0.000
   19     Total     3.28108   0.00000      0.000   0.000  -0.000

   20  1 3s         0.68739   0.00000      0.000   0.000   0.000
   20  2 3s         0.37295   0.00000     -0.000  -0.000   0.000
   20  3 3py        0.34304   0.00000     -0.000   0.000  -0.000
   20  4 3pz        0.62724   0.00000     -0.000  -0.000   0.000
   20  5 3px        0.14412   0.00000     -0.000   0.000   0.000
   20  6 3py        0.27616   0.00000     -0.000  -0.000   0.000
   20  7 3pz        0.15769   0.00000      0.000   0.000   0.000
   20  8 3px        0.49947   0.00000      0.000  -0.000   0.000
   20  9 3Pdxy      0.09762   0.00000      0.000  -0.000   0.000
   20 10 3Pdyz      0.12441   0.00000     -0.000  -0.000   0.000
   20 11 3Pdz2      0.00822   0.00000     -0.000   0.000  -0.000
   20 12 3Pdxz      0.02653   0.00000     -0.000  -0.000  -0.000
   20 13 3Pdx2-y2   0.18019   0.00000      0.000   0.000   0.000
   20     Total     3.54502   0.00000     -0.000   0.000   0.000

----------------------------------------------------------------
Total              88.68039   0.00000      0.000   0.000   0.000


Species: H                   

Atom      Orb        Charge      Spin       Svec
----------------------------------------------------------------
   12  1 1s         0.48380   0.00000     -0.000  -0.000  -0.000
   12  2 1s         0.17288   0.00000      0.000   0.000  -0.000
   12  3 2Ppy       0.06594   0.00000     -0.000   0.000  -0.000
   12  4 2Ppz       0.03859   0.00000      0.000  -0.000   0.000
   12  5 2Ppx       0.07692   0.00000     -0.000  -0.000  -0.000
   12     Total     0.83814   0.00000     -0.000  -0.000  -0.000

   13  1 1s         1.01898   0.00000     -0.000   0.000  -0.000
   13  2 1s         0.09707   0.00000      0.000  -0.000   0.000
   13  3 2Ppy       0.01913   0.00000      0.000  -0.000  -0.000
   13  4 2Ppz       0.01995   0.00000     -0.000  -0.000   0.000
   13  5 2Ppx       0.03331   0.00000      0.000   0.000  -0.000
   13     Total     1.18845   0.00000     -0.000   0.000  -0.000

   14  1 1s         0.50639   0.00000     -0.000  -0.000  -0.000
   14  2 1s         0.19288   0.00000      0.000  -0.000  -0.000
   14  3 2Ppy       0.02511   0.00000      0.000  -0.000  -0.000
   14  4 2Ppz       0.05029   0.00000      0.000   0.000  -0.000
   14  5 2Ppx       0.02783   0.00000     -0.000   0.000  -0.000
   14     Total     0.80250   0.00000     -0.000   0.000  -0.000

   15  1 1s         0.32960   0.00000      0.000   0.000   0.000
   15  2 1s         0.23166   0.00000     -0.000  -0.000  -0.000
   15  3 2Ppy       0.08635   0.00000     -0.000   0.000  -0.000
   15  4 2Ppz       0.07057   0.00000      0.000   0.000  -0.000
   15  5 2Ppx       0.14024   0.00000     -0.000  -0.000   0.000
   15     Total     0.85841   0.00000      0.000   0.000  -0.000

   16  1 1s         0.50286   0.00000      0.000  -0.000  -0.000
   16  2 1s         0.19065   0.00000     -0.000   0.000  -0.000
   16  3 2Ppy       0.02894   0.00000      0.000  -0.000  -0.000
   16  4 2Ppz       0.03920   0.00000     -0.000   0.000  -0.000
   16  5 2Ppx       0.02410   0.00000      0.000   0.000   0.000
   16     Total     0.78575   0.00000      0.000   0.000  -0.000

   24  1 1s         1.05774   0.00000     -0.000  -0.000  -0.000
   24  2 1s         0.07582   0.00000      0.000  -0.000   0.000
   24  3 2Ppy       0.03082   0.00000      0.000   0.000  -0.000
   24  4 2Ppz       0.02952   0.00000      0.000  -0.000  -0.000
   24  5 2Ppx       0.01792   0.00000     -0.000   0.000  -0.000
   24     Total     1.21182   0.00000     -0.000  -0.000  -0.000

   25  1 1s         1.04583   0.00000     -0.000  -0.000  -0.000
   25  2 1s         0.08527   0.00000      0.000   0.000   0.000
   25  3 2Ppy       0.01146   0.00000      0.000  -0.000   0.000
   25  4 2Ppz       0.01945   0.00000      0.000   0.000   0.000
   25  5 2Ppx       0.03572   0.00000     -0.000   0.000  -0.000
   25     Total     1.19773   0.00000     -0.000  -0.000  -0.000

   26  1 1s         0.50939   0.00000      0.000   0.000  -0.000
   26  2 1s         0.19162   0.00000     -0.000  -0.000  -0.000
   26  3 2Ppy       0.02879   0.00000      0.000   0.000   0.000
   26  4 2Ppz       0.04796   0.00000     -0.000  -0.000   0.000
   26  5 2Ppx       0.02869   0.00000      0.000  -0.000  -0.000
   26     Total     0.80645   0.00000      0.000   0.000  -0.000

   27  1 1s         0.29793   0.00000      0.000   0.000   0.000
   27  2 1s         0.24794   0.00000     -0.000   0.000  -0.000
   27  3 2Ppy       0.09937   0.00000      0.000  -0.000  -0.000
   27  4 2Ppz       0.07364   0.00000     -0.000  -0.000   0.000
   27  5 2Ppx       0.14333   0.00000      0.000   0.000   0.000
   27     Total     0.86222   0.00000      0.000  -0.000   0.000

   29  1 1s         0.49145   0.00000     -0.000  -0.000  -0.000
   29  2 1s         0.18792   0.00000      0.000   0.000  -0.000
   29  3 2Ppy       0.02480   0.00000     -0.000   0.000   0.000
   29  4 2Ppz       0.03527   0.00000      0.000   0.000  -0.000
   29  5 2Ppx       0.02870   0.00000     -0.000  -0.000  -0.000
   29     Total     0.76815   0.00000     -0.000   0.000  -0.000

----------------------------------------------------------------
Total              98.00000   0.00000     -0.000   0.000  -0.000


siesta: Eigenvalues (eV):
ik =     1
  -24.3445  -24.3445  -24.1510  -24.1510  -21.6513  -21.6513  -21.2659  -21.2659  -20.7361  -20.7361
  -20.3530  -20.3530  -19.8859  -19.8859  -19.5228  -19.5228  -19.4453  -19.4453  -19.2208  -19.2208
  -14.8100  -14.8100  -14.2295  -14.2295  -13.7617  -13.7617  -13.5240  -13.5240  -13.1391  -13.1391
  -13.0699  -13.0699  -12.4817  -12.4817  -12.3572  -12.3572  -12.1605  -12.1605  -12.0540  -12.0540
  -10.9613  -10.9613  -10.7302  -10.7302  -10.5446  -10.5446  -10.2175  -10.2175  -10.0567  -10.0567
   -9.7803   -9.7803   -9.1591   -9.1591   -9.0140   -9.0140   -8.8800   -8.8800   -8.8232   -8.8232
   -8.4660   -8.4660   -8.4169   -8.4169   -8.3680   -8.3680   -8.1610   -8.1610   -7.8931   -7.8931
   -7.7124   -7.7124   -7.5809   -7.5809   -7.4422   -7.4422   -7.4251   -7.4251   -6.9281   -6.9281
   -6.7261   -6.7261   -6.4975   -6.4975   -6.3954   -6.3954   -6.3775   -6.3775   -6.1091   -6.1091
   -5.8549   -5.8549   -5.6019   -5.6019   -5.4653   -5.4653   -4.3276   -4.3275   -3.2001   -3.2001
   -2.4082   -2.4082   -2.2476   -2.2476   -2.1498   -2.1498   -2.0028   -2.0028   -1.9321   -1.9321
   -1.8526   -1.8526   -1.6379   -1.6379   -1.5040   -1.5040   -1.2175   -1.2175   -0.9471   -0.9471
   -0.9188   -0.9188   -0.5994   -0.5994   -0.3652   -0.3652   -0.2663   -0.2663    0.4530    0.4530
    0.5209    0.5209    0.5444    0.5444    0.7305    0.7305    0.9918    0.9918    1.1494    1.1494
    1.4280    1.4280    1.4310    1.4310    1.6005    1.6005    1.6822    1.6822    2.1075    2.1075
    2.2772    2.2772    2.6242    2.6242    2.6789    2.6789    2.7734    2.7734    2.9259    2.9259
    3.1376    3.1376    3.3277    3.3277    3.4103    3.4103    3.5895    3.5895    3.8051    3.8051
    4.0519    4.0519    4.1202    4.1202    4.1857    4.1857    4.3524    4.3524    4.5339    4.5339
    4.6643    4.6643    4.8235    4.8235    5.0058    5.0058    5.1576    5.1576    5.3416    5.3416
    5.3924    5.3924    5.7230    5.7230    5.7462    5.7462    5.8559    5.8559    5.9486    5.9486
    6.3270    6.3270    6.4502    6.4502    6.4654    6.4654    6.5979    6.5979    6.6781    6.6781
    7.1602    7.1602    7.1773    7.1773    7.2630    7.2630    7.4632    7.4632    7.5068    7.5068
    7.6117    7.6117    7.7414    7.7414    7.8170    7.8170    8.0693    8.0693    8.1708    8.1708
    8.3492    8.3492    8.6608    8.6608    8.6826    8.6826    8.7590    8.7590    8.9047    8.9047
    9.0581    9.0581    9.1619    9.1619    9.5813    9.5813    9.6585    9.6585    9.9543    9.9543
    9.9758    9.9758   10.1218   10.1218   10.2431   10.2431   10.5664   10.5664   10.7358   10.7358
   11.0377   11.0377   11.3817   11.3817   11.3993   11.3993   11.5165   11.5165   11.5548   11.5548
   11.9599   11.9599   12.4155   12.4155   12.5301   12.5301   12.6184   12.6184   12.6502   12.6502
   12.8036   12.8036   13.0526   13.0526   13.4959   13.4959   13.7200   13.7200   13.8943   13.8943
   14.0234   14.0234   14.2182   14.2182   14.4928   14.4928   14.6930   14.6930   14.8114   14.8114
   15.2644   15.2644   15.6924   15.6924   15.9070   15.9070   15.9537   15.9537   16.1776   16.1776
   16.8155   16.8155   17.0426   17.0426   17.2266   17.2266   17.4421   17.4421   17.6281   17.6281
   18.0635   18.0635   18.6382   18.6382   18.7593   18.7593   19.2790   19.2790   20.2857   20.2857
   20.2968   20.2968   20.6290   20.6290   20.6942   20.6942   21.4135   21.4135   21.5635   21.5635
   22.4081   22.4081   22.5351   22.5351   22.8223   22.8223   23.5869   23.5869   23.6822   23.6822
   23.8821   23.8821   24.4122   24.4122   24.7462   24.7462   25.1871   25.1871   25.3839   25.3839
   26.8335   26.8335   27.1230   27.1230   27.6451   27.6451   28.3470   28.3470   29.1569   29.1569
   29.5128   29.5128   29.8067   29.8067   30.3156   30.3156   30.5254   30.5254   30.8703   30.8703
   30.9651   30.9651   31.2110   31.2110   31.5159   31.5159   31.9730   31.9730   32.0179   32.0179
   33.5871   33.5871   33.9416   33.9416   34.2862   34.2862   34.9749   34.9749   35.4407   35.4407
   35.4892   35.4892   35.7870   35.7870   36.4858   36.4858   37.0131   37.0131   37.0834   37.0834
   37.3569   37.3569   37.7313   37.7313   38.5432   38.5432   39.0331   39.0331   39.5489   39.5489
   39.9346   39.9346   40.0884   40.0884   40.5590   40.5590   40.6763   40.6763   40.7346   40.7346
   41.1347   41.1347   41.8108   41.8108   42.4945   42.4945   42.7835   42.7835   42.9794   42.9794
   43.2716   43.2716   43.5030   43.5030   43.5544   43.5544   43.9778   43.9778   44.2898   44.2898
   44.7345   44.7345   45.1311   45.1311   45.4395   45.4395   45.7180   45.7180   45.8055   45.8055
   45.8643   45.8643   46.4817   46.4817   46.8639   46.8639   47.0602   47.0602   47.5285   47.5285
   48.2559   48.2559   48.7256   48.7256   49.6386   49.6386   49.9077   49.9077   50.4713   50.4713
   50.8240   50.8240   50.9463   50.9463   51.4070   51.4070   51.8206   51.8206   53.6591   53.6591
   53.9896   53.9896   54.1058   54.1058   54.5828   54.5828   55.1863   55.1863   55.4263   55.4263
   56.3896   56.3896   56.9019   56.9019   57.4170   57.4170   58.3244   58.3244   58.7633   58.7633
   58.8676   58.8676   59.0782   59.0782   59.1143   59.1143   60.3061   60.3061   60.6543   60.6543
   61.1312   61.1312   61.4073   61.4073   62.6074   62.6074   63.7733   63.7733   64.2694   64.2694
   66.8651   66.8651   67.0850   67.0850   67.4116   67.4116   68.0580   68.0580   68.9270   68.9270
   71.2550   71.2550   71.6244   71.6244   72.5391   72.5391   75.3049   75.3049   80.3289   80.3289
   82.5214   82.5214   83.7459   83.7459   85.9658   85.9658   86.0038   86.0038   91.5557   91.5557
   92.9730   92.9730   94.2166   94.2166   97.3744   97.3744   99.5057   99.5057  100.4698  100.4698
  101.8124  101.8124  103.2900  103.2900  105.3044  105.3044  113.0826  113.0826  116.7948  116.7948
  123.3639  123.3639  126.3871  126.3871  127.2794  127.2794  131.7685  131.7685  143.5139  143.5139
  147.4357  147.4357  148.9778  148.9778
siesta: Fermi energy =      -3.763864 eV

siesta: Program's energy decomposition (eV):
siesta: Ebs     =     -1144.159788
siesta: Eions   =      3585.165840
siesta: Ena     =       387.713061
siesta: Ekin    =      2938.545465
siesta: Enl     =     -2819.503708
siesta: Eso     =        -0.004426
siesta: Edftu   =         0.000000
siesta: DEna    =        48.614821
siesta: DUscf   =        14.057863
siesta: DUext   =         0.000000
siesta: Exc     =     -1129.612374
siesta: eta*DQ  =         0.000000
siesta: Emadel  =         0.000000
siesta: Emeta   =         0.000000
siesta: Emolmec =         0.000000
siesta: Ekinion =         0.000000
siesta: Eharris =     -4145.355139
siesta: Etot    =     -4145.355139
siesta: FreeEng =     -4145.355139

siesta: Final energy (eV):
siesta:  Band Struct. =   -1144.159788
siesta:       Kinetic =    2938.545465
siesta:       Hartree =    9405.677579
siesta:       Edftu   =       0.000000
siesta:       Eso     =      -0.004426
siesta:    Ext. field =       0.000000
siesta:   Exch.-corr. =   -1129.612374
siesta:  Ion-electron =  -21427.192051
siesta:       Ion-ion =    6067.230669
siesta:       Ekinion =       0.000000
siesta:         Total =   -4145.355139
siesta:         Fermi =      -3.763864

siesta: Atomic forces (eV/Ang):
siesta:      1   -3.386901   -3.498187   -0.000000
siesta:      2   -0.040437   -0.004939   -0.000000
siesta:      3   -1.068764   -0.173559    0.000000
siesta:      4   -0.626826   -0.020637    0.000000
siesta:      5   -0.048636    0.092830   -0.000000
siesta:      6   -4.351133   -2.947527   -0.000000
siesta:      7   -0.019607    0.209101   -0.000000
siesta:      8    0.291282   -0.251535    0.000000
siesta:      9   -0.115240   -1.263788    0.000000
siesta:     10    0.600729   -0.508491    0.000000
siesta:     11    0.024890    0.010750    0.000000
siesta:     12    0.353548    0.339334    0.000000
siesta:     13   -0.148501    0.016659   -0.000000
siesta:     14   -0.292434   -0.369333   -0.000000
siesta:     15   -0.896579   -0.644544   -0.000000
siesta:     16    0.027929   -0.216619    0.000000
siesta:     17   -0.556063    1.145642   -0.000000
siesta:     18    0.166213   -0.193929   -0.000000
siesta:     19    0.466844    0.999395   -0.000000
siesta:     20    0.057862    0.368466    0.000000
siesta:     21    0.692727   -0.397296   -0.000000
siesta:     22    5.158760    3.668563   -0.000000
siesta:     23   -0.229918   -0.408624    0.000000
siesta:     24   -0.099435    0.098101    0.000000
siesta:     25    0.009004   -0.092821   -0.000000
siesta:     26    0.508856    0.351950    0.000000
siesta:     27    1.102263    0.935520   -0.000000
siesta:     28    7.709675    0.417216    0.000000
siesta:     29    0.027535    0.063447   -0.000000
siesta: ----------------------------------------
siesta:    Tot    5.317643   -2.274855   -0.000000

siesta: Stress tensor (static) (eV/Ang**3):
siesta:    -0.004667   -0.004536    0.000000
siesta:    -0.004536   -0.004200   -0.000000
siesta:    -0.000000    0.000000   -0.000061

siesta: Cell volume =       4235.271929 Ang**3

siesta: Pressure (static):
siesta:                Solid            Molecule  Units
siesta:           0.00003241         -0.00000880  Ry/Bohr**3
siesta:           0.00297575         -0.00080842  eV/Ang**3
siesta:           4.76772893         -1.29525160  kBar
(Free)E+ p_basis*V_orbitals  =       -4125.504721
(Free)Eharris+ p_basis*V_orbitals  =       -4125.504721
     spin moment: S , {S} =    0.00000  -0.00000   0.00000  -0.00000

siesta: Electric dipole (a.u.)  =    1.560256    0.194260    0.000000
siesta: Electric dipole (Debye) =    3.965779    0.493761    0.000000

cite: Please see "GC.bib" for an exhaustive BiBTeX file.
cite: Please clearly indicate Siesta version in published work: v4.1.5-1-g384057250
cite: This calculation has made use of the following articles
cite: which are encouraged to be cited in a published work.
        Primary SIESTA paper
          DOI: www.doi.org/10.1088/0953-8984/14/11/302
        Spin-orbit coupling (on-site approximation)
          DOI: www.doi.org/10.1088/0953-8984/19/19/489001


WARNING: alloc-realloc-dealloc name mismatch
         Name: atomlist isa
         Size:              -116. Bytes
         Node:     0
         Subsequent mismatches will not be reported
>> End of run:   4-JUL-2023  10:21:19
Job completed
