Siesta Version  : v4.1.5-1-g384057250
Architecture    : gcc
Compiler version: GNU Fortran (Ubuntu 11.3.0-1ubuntu1~22.04) 11.3.0
Compiler flags  : mpifort -O2 -fPIC -ftree-vectorize -fallow-argument-mismatch
PP flags        : -DFC_HAVE_ABORT -DMPI -DSIESTA__FLOOK -DSIESTA__METIS -DSIESTA__MUMPS -DCDF -DNCDF -DNCDF_4 -DNCDF_PARALLEL -DSIESTA__MRRR -DSIESTA__ELPA
Libraries       : libncdf.a libfdict.a  -lflookall -ldl -lnetcdff -lnetcdf -lhdf5_hl -lhdf5 -lhdf5_fortran -lz -lscalapack-openmpi -lopenblas -lmetis -lzmumps -lcmumps -ldmumps -lmumps_common -lpord -lsmumps -lesmumps -lscotch -lscotcherr -fopenmp -lelpa
PARALLEL version
NetCDF support
NetCDF-4 support
NetCDF-4 MPI-IO support
METIS ordering support
Lua support

* Running on 4 nodes in parallel
>> Start of run:  28-JUN-2023  16:46:58

                           ***********************       
                           *  WELCOME TO SIESTA  *       
                           ***********************       

reinit: Reading from standard input
reinit: Dumped input in INPUT_TMP.59350
************************** Dump of input data file ****************************
SystemLabel      GC
NumberOfAtoms    29
NumberOfSpecies  4
%block ChemicalSpeciesLabel
    1    8  O
    2    7  N
    3   14  Si
    4    1  H
%endblock ChemicalSpeciesLabel
# Single point calculation
MD.TypeOfRun                CG
MD.Steps                    0
SCF.MustConverge            F # In case it does not. There can be 2 very close atoms
AtomicCoordinatesFormat NotScaledCartesianAng
%block AtomicCoordinatesAndAtomicSpecies
1.043624880    3.939228610    0.000000000       1
-3.040641290   1.071078170    0.000000000       2
2.054601450    1.213582070    0.000000000       2
0.999014100    -1.732643800   0.000000000       2
-2.132351640   -1.812968220   0.000000000       2
3.860190550    -1.112298180   0.000000000       2
-1.236183220   1.152964460    0.000000000       3
-0.532924260   -0.939006270   0.000000000       3
0.635660470    2.374516770    0.000000000       3
2.245170240    -0.549967100   0.000000000       3
-3.449816660   -0.583665030   0.000000000       3
2.963714090    1.790992630    0.000000000       4
-4.845591350   -1.123549660   0.000000000       4
4.007020910    -2.152308560   0.000000000       4
4.772194380    -0.502318160   0.000000000       4
-2.265399090   -2.864605110   0.000000000       4
8.924773077    7.624334472    0.000000000       3
10.829657047   8.830973412    0.000000000       3
10.333902907   4.857999502    0.000000000       3
12.411373197   7.327216662    0.000000000       3
8.984395747    5.906906902    0.000000000       2
7.385638017    8.378011782    0.000000000       2
11.986198167   5.587836722    0.000000000       2
11.021001847   10.323127162   0.000000000       4
13.895741177   7.545947482    0.000000000       4
7.274292737    9.427206892    0.000000000       4
6.453080307    7.753097602    0.000000000       4
10.323676077   3.249888382    0.000000000       1
12.761624047   4.861145162    0.000000000       4
%endblock AtomicCoordinatesAndAtomicSpecies
%include ../../../Defaults.fdf
************************** End of input data file *****************************

reinit: -----------------------------------------------------------------------
reinit: System Name: 
reinit: -----------------------------------------------------------------------
reinit: System Label: GC
reinit: -----------------------------------------------------------------------

initatom: Reading input for the pseudopotentials and atomic orbitals ----------
Species number:   1 Atomic number:    8 Label: O
Species number:   2 Atomic number:    7 Label: N
Species number:   3 Atomic number:   14 Label: Si
Species number:   4 Atomic number:    1 Label: H

Ground state valence configuration:   2s02  2p04
Reading pseudopotential information in formatted form from O.psf

Pseudopotential generated from a relativistic atomic calculation

Valence configuration for pseudopotential generation:
2s( 2.00) rc: 0.45
2p( 4.00) rc: 0.92
3d( 0.00) rc: 2.24
4f( 0.00) rc: 0.25
Ground state valence configuration:   2s02  2p03
Reading pseudopotential information in formatted form from N.psf

Pseudopotential generated from a relativistic atomic calculation

Valence configuration for pseudopotential generation:
2s( 2.00) rc: 0.94
2p( 3.00) rc: 0.59
3d( 0.00) rc: 3.46
4f( 0.00) rc: 2.47
Ground state valence configuration:   3s02  3p02
Reading pseudopotential information in formatted form from Si.psf

Pseudopotential generated from a relativistic atomic calculation

Valence configuration for pseudopotential generation:
3s( 2.00) rc: 1.67
3p( 2.00) rc: 2.04
3d( 0.00) rc: 2.89
4f( 0.00) rc: 2.49
Ground state valence configuration:   1s01
Reading pseudopotential information in formatted form from H.psf

Pseudopotential generated from a relativistic atomic calculation

Valence configuration for pseudopotential generation:
1s( 1.00) rc: 0.01
2p( 0.00) rc: 0.60
3d( 0.00) rc: 1.99
4f( 0.00) rc: 2.49
For O, standard SIESTA heuristics set lmxkb to 3
 (one more than the basis l, including polarization orbitals).
Use PS.lmax or PS.KBprojectors blocks to override.
For N, standard SIESTA heuristics set lmxkb to 3
 (one more than the basis l, including polarization orbitals).
Use PS.lmax or PS.KBprojectors blocks to override.
For Si, standard SIESTA heuristics set lmxkb to 3
 (one more than the basis l, including polarization orbitals).
Use PS.lmax or PS.KBprojectors blocks to override.
For H, standard SIESTA heuristics set lmxkb to 2
 (one more than the basis l, including polarization orbitals).
Use PS.lmax or PS.KBprojectors blocks to override.

<basis_specs>
===============================================================================
O                    Z=   8    Mass=  16.000        Charge= 0.17977+309
Lmxo=1 Lmxkb= 3    BasisType=split      Semic=F
L=0  Nsemic=0  Cnfigmx=2
          i=1  nzeta=2  polorb=0  (2s)
            splnorm:   0.28000    
               vcte:    0.0000    
               rinn:    0.0000    
               qcoe:    0.0000    
               qyuk:    0.0000    
               qwid:   0.10000E-01
                rcs:    0.0000      0.0000    
            lambdas:    1.0000      1.0000    
L=1  Nsemic=0  Cnfigmx=2
          i=1  nzeta=2  polorb=1  (2p)
            splnorm:   0.28000    
               vcte:    0.0000    
               rinn:    0.0000    
               qcoe:    0.0000    
               qyuk:    0.0000    
               qwid:   0.10000E-01
                rcs:    0.0000      0.0000    
            lambdas:    1.0000      1.0000    
-------------------------------------------------------------------------------
L=0  Nkbl=1  erefs: 0.17977+309
L=1  Nkbl=1  erefs: 0.17977+309
L=2  Nkbl=1  erefs: 0.17977+309
L=3  Nkbl=1  erefs: 0.17977+309
===============================================================================
</basis_specs>

atom: Called for O                     (Z =   8)

read_vps: Pseudopotential generation method:
read_vps: ATM4.2.7  Troullier-Martins                       
Valence charge for ps generation:    6.00000

xc_check: Exchange-correlation functional:
xc_check: GGA Perdew, Burke & Ernzerhof 1996
V l=0 = -2*Zval/r beyond r=  1.1000
V l=1 = -2*Zval/r beyond r=  1.1000
V l=2 = -2*Zval/r beyond r=  2.2154
V l=3 = -2*Zval/r beyond r=  1.1000
All V_l potentials equal beyond r=  2.2154
This should be close to max(r_c) in ps generation
All pots = -2*Zval/r beyond r=  2.2154

VLOCAL1: 99.0% of the norm of Vloc inside      8.845 Ry
VLOCAL1: 99.9% of the norm of Vloc inside     20.157 Ry
atom: Maximum radius for 4*pi*r*r*local-pseudopot. charge    2.67231
atom: Maximum radius for r*vlocal+2*Zval:    2.32897
GHOST: No ghost state for L =  0
GHOST: No ghost state for L =  1
GHOST: No ghost state for L =  2
GHOST: No ghost state for L =  3

KBgen: Kleinman-Bylander projectors: 
   l= 0   rc=  2.243238   el= -1.759686   Ekb=**********   kbcos= -0.171774
   l= 1   rc=  2.328968   el= -0.663873   Ekb=-14.506792   kbcos= -0.519897
   l= 2   rc=  2.573941   el=  0.002031   Ekb= -1.137373   kbcos= -0.019581
   l= 3   rc=  2.606321   el=  0.003153   Ekb= -1.013546   kbcos= -0.003122

KBgen: Total number of Kleinman-Bylander projectors:   16
atom: -------------------------------------------------------------------------

atom: SANKEY-TYPE ORBITALS:
atom: Selected multiple-zeta basis: split     

SPLIT: Orbitals with angular momentum L= 0

SPLIT: Basis orbitals for state 2s

SPLIT: PAO cut-off radius determined from an
SPLIT: energy shift=  0.002000 Ry

   izeta = 1
                 lambda =    1.000000
                     rc =    4.243912
                 energy =   -1.758270
                kinetic =    3.286084
    potential(screened) =   -5.044353
       potential(ionic) =  -12.921184

   izeta = 2
                 rmatch =    2.187845
              splitnorm =    0.280000
                 energy =   -0.885018
                kinetic =    8.134434
    potential(screened) =   -9.019452
       potential(ionic) =  -17.710645

SPLIT: Orbitals with angular momentum L= 1

SPLIT: Basis orbitals for state 2p

SPLIT: PAO cut-off radius determined from an
SPLIT: energy shift=  0.002000 Ry

   izeta = 1
                 lambda =    1.000000
                     rc =    5.314825
                 energy =   -0.661986
                kinetic =    4.917472
    potential(screened) =   -5.579458
       potential(ionic) =  -13.236259

   izeta = 2
                 rmatch =    2.160663
              splitnorm =    0.280000
                 energy =   -0.068760
                kinetic =    9.183374
    potential(screened) =   -9.252135
       potential(ionic) =  -18.274251

POLgen: Perturbative polarization orbital with L=  2

POLgen: Polarization orbital for state 2p

   izeta = 1
                     rc =    5.314825
                 energy =    1.970580
                kinetic =    3.886128
    potential(screened) =   -1.915547
       potential(ionic) =   -7.749584
atom: Total number of Sankey-type orbitals: 13

atm_pop: Valence configuration (for local Pseudopot. screening):
 2s( 2.00)                                                            
 2p( 4.00)                                                            
Vna: chval, zval:    6.00000   6.00000

Vna:  Cut-off radius for the neutral-atom potential:   5.314825

atom: _________________________________________________________________________

<basis_specs>
===============================================================================
N                    Z=   7    Mass=  14.010        Charge= 0.17977+309
Lmxo=1 Lmxkb= 3    BasisType=split      Semic=F
L=0  Nsemic=0  Cnfigmx=2
          i=1  nzeta=2  polorb=0  (2s)
            splnorm:   0.28000    
               vcte:    0.0000    
               rinn:    0.0000    
               qcoe:    0.0000    
               qyuk:    0.0000    
               qwid:   0.10000E-01
                rcs:    0.0000      0.0000    
            lambdas:    1.0000      1.0000    
L=1  Nsemic=0  Cnfigmx=2
          i=1  nzeta=2  polorb=1  (2p)
            splnorm:   0.28000    
               vcte:    0.0000    
               rinn:    0.0000    
               qcoe:    0.0000    
               qyuk:    0.0000    
               qwid:   0.10000E-01
                rcs:    0.0000      0.0000    
            lambdas:    1.0000      1.0000    
-------------------------------------------------------------------------------
L=0  Nkbl=1  erefs: 0.17977+309
L=1  Nkbl=1  erefs: 0.17977+309
L=2  Nkbl=1  erefs: 0.17977+309
L=3  Nkbl=1  erefs: 0.17977+309
===============================================================================
</basis_specs>

atom: Called for N                     (Z =   7)

read_vps: Pseudopotential generation method:
read_vps: ATM4.2.7  Troullier-Martins                       
Valence charge for ps generation:    5.00000

xc_check: Exchange-correlation functional:
xc_check: GGA Perdew, Burke & Ernzerhof 1996
V l=0 = -2*Zval/r beyond r=  1.2889
V l=1 = -2*Zval/r beyond r=  1.2889
V l=2 = -2*Zval/r beyond r=  3.4178
V l=3 = -2*Zval/r beyond r=  2.4084
All V_l potentials equal beyond r=  3.3753
This should be close to max(r_c) in ps generation
All pots = -2*Zval/r beyond r=  3.4178

VLOCAL1: 99.0% of the norm of Vloc inside      3.810 Ry
VLOCAL1: 99.9% of the norm of Vloc inside      8.683 Ry
atom: Maximum radius for 4*pi*r*r*local-pseudopot. charge    4.02088
atom: Maximum radius for r*vlocal+2*Zval:    3.54838
GHOST: No ghost state for L =  0
GHOST: No ghost state for L =  1
GHOST: No ghost state for L =  2
GHOST: No ghost state for L =  3

KBgen: Kleinman-Bylander projectors: 
   l= 0   rc=  3.417763   el= -1.365098   Ekb= -4.433130   kbcos= -0.707855
   l= 1   rc=  3.375302   el= -0.521201   Ekb=-13.264039   kbcos= -0.535594
   l= 2   rc=  3.872880   el=  0.001991   Ekb= -0.641094   kbcos= -0.062456
   l= 3   rc=  3.970931   el=  0.003093   Ekb= -0.474517   kbcos= -0.018236

KBgen: Total number of Kleinman-Bylander projectors:   16
atom: -------------------------------------------------------------------------

atom: SANKEY-TYPE ORBITALS:
atom: Selected multiple-zeta basis: split     

SPLIT: Orbitals with angular momentum L= 0

SPLIT: Basis orbitals for state 2s

SPLIT: PAO cut-off radius determined from an
SPLIT: energy shift=  0.002000 Ry

   izeta = 1
                 lambda =    1.000000
                     rc =    4.730425
                 energy =   -1.363399
                kinetic =    1.245246
    potential(screened) =   -2.608645
       potential(ionic) =   -8.121105

   izeta = 2
                 rmatch =    2.531849
              splitnorm =    0.280000
                 energy =   -0.959908
                kinetic =    2.409435
    potential(screened) =   -3.369343
       potential(ionic) =   -9.427975

SPLIT: Orbitals with angular momentum L= 1

SPLIT: Basis orbitals for state 2p

SPLIT: PAO cut-off radius determined from an
SPLIT: energy shift=  0.002000 Ry

   izeta = 1
                 lambda =    1.000000
                     rc =    5.924108
                 energy =   -0.519262
                kinetic =    3.672940
    potential(screened) =   -4.192202
       potential(ionic) =   -9.518354

   izeta = 2
                 rmatch =    2.531849
              splitnorm =    0.280000
                 energy =   -0.104258
                kinetic =    6.807538
    potential(screened) =   -6.911796
       potential(ionic) =  -13.149920

POLgen: Perturbative polarization orbital with L=  2

POLgen: Polarization orbital for state 2p

   izeta = 1
                     rc =    5.924108
                 energy =    1.427508
                kinetic =    2.872379
    potential(screened) =   -1.444871
       potential(ionic) =   -5.563644
atom: Total number of Sankey-type orbitals: 13

atm_pop: Valence configuration (for local Pseudopot. screening):
 2s( 2.00)                                                            
 2p( 3.00)                                                            
Vna: chval, zval:    5.00000   5.00000

Vna:  Cut-off radius for the neutral-atom potential:   5.924108

atom: _________________________________________________________________________

<basis_specs>
===============================================================================
Si                   Z=  14    Mass=  28.090        Charge= 0.17977+309
Lmxo=1 Lmxkb= 3    BasisType=split      Semic=F
L=0  Nsemic=0  Cnfigmx=3
          i=1  nzeta=2  polorb=0  (3s)
            splnorm:   0.28000    
               vcte:    0.0000    
               rinn:    0.0000    
               qcoe:    0.0000    
               qyuk:    0.0000    
               qwid:   0.10000E-01
                rcs:    0.0000      0.0000    
            lambdas:    1.0000      1.0000    
L=1  Nsemic=0  Cnfigmx=3
          i=1  nzeta=2  polorb=1  (3p)
            splnorm:   0.28000    
               vcte:    0.0000    
               rinn:    0.0000    
               qcoe:    0.0000    
               qyuk:    0.0000    
               qwid:   0.10000E-01
                rcs:    0.0000      0.0000    
            lambdas:    1.0000      1.0000    
-------------------------------------------------------------------------------
L=0  Nkbl=1  erefs: 0.17977+309
L=1  Nkbl=1  erefs: 0.17977+309
L=2  Nkbl=1  erefs: 0.17977+309
L=3  Nkbl=1  erefs: 0.17977+309
===============================================================================
</basis_specs>

atom: Called for Si                    (Z =  14)

read_vps: Pseudopotential generation method:
read_vps: ATM4.2.7  Troullier-Martins                       
Valence charge for ps generation:    4.00000

xc_check: Exchange-correlation functional:
xc_check: GGA Perdew, Burke & Ernzerhof 1996
V l=0 = -2*Zval/r beyond r=  2.7826
V l=1 = -2*Zval/r beyond r=  2.7826
V l=2 = -2*Zval/r beyond r=  2.9253
V l=3 = -2*Zval/r beyond r=  2.7826
All V_l potentials equal beyond r=  2.8530
This should be close to max(r_c) in ps generation
All pots = -2*Zval/r beyond r=  2.9253

VLOCAL1: 99.0% of the norm of Vloc inside      5.333 Ry
VLOCAL1: 99.9% of the norm of Vloc inside     12.154 Ry
atom: Maximum radius for 4*pi*r*r*local-pseudopot. charge    3.39869
atom: Maximum radius for r*vlocal+2*Zval:    2.96205
GHOST: No ghost state for L =  0
GHOST: No ghost state for L =  1
GHOST: No ghost state for L =  2
GHOST: No ghost state for L =  3

KBgen: Kleinman-Bylander projectors: 
   l= 0   rc=  3.075247   el= -0.794092   Ekb=  5.879390   kbcos=  0.167461
   l= 1   rc=  3.153101   el= -0.300068   Ekb=  2.642817   kbcos=  0.058301
   l= 2   rc=  3.273594   el=  0.001958   Ekb= -1.185135   kbcos= -0.104411
   l= 3   rc=  3.232927   el=  0.003046   Ekb= -0.497174   kbcos= -0.015889

KBgen: Total number of Kleinman-Bylander projectors:   16
atom: -------------------------------------------------------------------------

atom: SANKEY-TYPE ORBITALS:
atom: Selected multiple-zeta basis: split     

SPLIT: Orbitals with angular momentum L= 0

SPLIT: Basis orbitals for state 3s

SPLIT: PAO cut-off radius determined from an
SPLIT: energy shift=  0.002000 Ry

   izeta = 1
                 lambda =    1.000000
                     rc =    6.429618
                 energy =   -0.792283
                kinetic =    0.525293
    potential(screened) =   -1.317576
       potential(ionic) =   -3.744923

   izeta = 2
                 rmatch =    3.998416
              splitnorm =    0.280000
                 energy =   -0.583081
                kinetic =    1.069570
    potential(screened) =   -1.652651
       potential(ionic) =   -4.235185

SPLIT: Orbitals with angular momentum L= 1

SPLIT: Basis orbitals for state 3p

SPLIT: PAO cut-off radius determined from an
SPLIT: energy shift=  0.002000 Ry

   izeta = 1
                 lambda =    1.000000
                     rc =    8.464845
                 energy =   -0.298236
                kinetic =    0.785360
    potential(screened) =   -1.083596
       potential(ionic) =   -3.273779

   izeta = 2
                 rmatch =    4.587816
              splitnorm =    0.280000
                 energy =   -0.131871
                kinetic =    1.403687
    potential(screened) =   -1.535557
       potential(ionic) =   -4.015310

POLgen: Perturbative polarization orbital with L=  2

POLgen: Polarization orbital for state 3p

   izeta = 1
                     rc =    8.464845
                 energy =    0.321949
                kinetic =    1.055677
    potential(screened) =   -0.733728
       potential(ionic) =   -2.672950
atom: Total number of Sankey-type orbitals: 13

atm_pop: Valence configuration (for local Pseudopot. screening):
 3s( 2.00)                                                            
 3p( 2.00)                                                            
Vna: chval, zval:    4.00000   4.00000

Vna:  Cut-off radius for the neutral-atom potential:   8.464845

atom: _________________________________________________________________________

<basis_specs>
===============================================================================
H                    Z=   1    Mass=  1.0100        Charge= 0.17977+309
Lmxo=0 Lmxkb= 2    BasisType=split      Semic=F
L=0  Nsemic=0  Cnfigmx=1
          i=1  nzeta=2  polorb=1  (1s)
            splnorm:   0.62000    
               vcte:    0.0000    
               rinn:    0.0000    
               qcoe:    0.0000    
               qyuk:    0.0000    
               qwid:   0.10000E-01
                rcs:    0.0000      0.0000    
            lambdas:    1.0000      1.0000    
-------------------------------------------------------------------------------
L=0  Nkbl=1  erefs: 0.17977+309
L=1  Nkbl=1  erefs: 0.17977+309
L=2  Nkbl=1  erefs: 0.17977+309
===============================================================================
</basis_specs>

atom: Called for H                     (Z =   1)

read_vps: Pseudopotential generation method:
read_vps: ATM4.2.7  Troullier-Martins                       
Valence charge for ps generation:    1.00000

xc_check: Exchange-correlation functional:
xc_check: GGA Perdew, Burke & Ernzerhof 1996
V l=0 = -2*Zval/r beyond r=  0.0098
V l=1 = -2*Zval/r beyond r=  0.5817
V l=2 = -2*Zval/r beyond r=  1.9372
All V_l potentials equal beyond r=  1.9372
This should be close to max(r_c) in ps generation
All pots = -2*Zval/r beyond r=  1.9372

VLOCAL1: 99.0% of the norm of Vloc inside     11.567 Ry
VLOCAL1: 99.9% of the norm of Vloc inside     26.362 Ry
atom: Maximum radius for 4*pi*r*r*local-pseudopot. charge    2.25106
atom: Maximum radius for r*vlocal+2*Zval:    1.91306
GHOST: No ghost state for L =  0
GHOST: No ghost state for L =  1
GHOST: No ghost state for L =  2

KBgen: Kleinman-Bylander projectors: 
   l= 0   rc=  2.036604   el= -0.477180   Ekb= -6.081590   kbcos= -0.277285
   l= 1   rc=  2.195416   el=  0.001076   Ekb= -0.926943   kbcos= -0.034643
   l= 2   rc=  2.251056   el=  0.002010   Ekb= -0.130941   kbcos= -0.009788

KBgen: Total number of Kleinman-Bylander projectors:    9
atom: -------------------------------------------------------------------------

atom: SANKEY-TYPE ORBITALS:
atom: Selected multiple-zeta basis: split     

SPLIT: Orbitals with angular momentum L= 0

SPLIT: Basis orbitals for state 1s

SPLIT: PAO cut-off radius determined from an
SPLIT: energy shift=  0.002000 Ry

   izeta = 1
                 lambda =    1.000000
                     rc =    6.518340
                 energy =   -0.475305
                kinetic =    0.912139
    potential(screened) =   -1.387444
       potential(ionic) =   -1.907295

   izeta = 2
                 rmatch =    2.141150
              splitnorm =    0.620000
                 energy =    0.566467
                kinetic =    3.772856
    potential(screened) =   -3.206389
       potential(ionic) =   -3.759093

POLgen: Perturbative polarization orbital with L=  1

POLgen: Polarization orbital for state 1s

   izeta = 1
                     rc =    6.518340
                 energy =    0.533861
                kinetic =    1.121086
    potential(screened) =   -0.587225
       potential(ionic) =   -1.053027
atom: Total number of Sankey-type orbitals:  5

atm_pop: Valence configuration (for local Pseudopot. screening):
 1s( 1.00)                                                            
Vna: chval, zval:    1.00000   1.00000

Vna:  Cut-off radius for the neutral-atom potential:   6.518340

atom: _________________________________________________________________________

prinput: Basis input ----------------------------------------------------------

PAO.BasisType split     

%block ChemicalSpeciesLabel
    1    8 O                       # Species index, atomic number, species label
    2    7 N                       # Species index, atomic number, species label
    3   14 Si                      # Species index, atomic number, species label
    4    1 H                       # Species index, atomic number, species label
%endblock ChemicalSpeciesLabel

%block PAO.Basis                 # Define Basis set
O                     2                    # Species label, number of l-shells
 n=2   0   2                         # n, l, Nzeta 
   4.244      2.188   
   1.000      1.000   
 n=2   1   2 P   1                   # n, l, Nzeta, Polarization, NzetaPol
   5.315      2.161   
   1.000      1.000   
N                     2                    # Species label, number of l-shells
 n=2   0   2                         # n, l, Nzeta 
   4.730      2.532   
   1.000      1.000   
 n=2   1   2 P   1                   # n, l, Nzeta, Polarization, NzetaPol
   5.924      2.532   
   1.000      1.000   
Si                    2                    # Species label, number of l-shells
 n=3   0   2                         # n, l, Nzeta 
   6.430      3.998   
   1.000      1.000   
 n=3   1   2 P   1                   # n, l, Nzeta, Polarization, NzetaPol
   8.465      4.588   
   1.000      1.000   
H                     1                    # Species label, number of l-shells
 n=1   0   2 P   1                   # n, l, Nzeta, Polarization, NzetaPol
   6.518      2.141   
   1.000      1.000   
%endblock PAO.Basis

prinput: ----------------------------------------------------------------------

Dumping basis to NetCDF file O.ion.nc
Dumping basis to NetCDF file N.ion.nc
Dumping basis to NetCDF file Si.ion.nc
Dumping basis to NetCDF file H.ion.nc
coor:   Atomic-coordinates input format  =     Cartesian coordinates
coor:                                          (in Angstroms)

siesta: Atomic coordinates (Bohr) and species
siesta:      1.97217   7.44407   0.00000  1        1
siesta:     -5.74598   2.02405   0.00000  2        2
siesta:      3.88264   2.29334   0.00000  2        3
siesta:      1.88786  -3.27422   0.00000  2        4
siesta:     -4.02956  -3.42601   0.00000  2        5
siesta:      7.29471  -2.10194   0.00000  2        6
siesta:     -2.33605   2.17879   0.00000  3        7
siesta:     -1.00708  -1.77447   0.00000  3        8
siesta:      1.20122   4.48719   0.00000  3        9
siesta:      4.24276  -1.03929   0.00000  3       10
siesta:     -6.51921  -1.10297   0.00000  3       11
siesta:      5.60061   3.38449   0.00000  4       12
siesta:     -9.15684  -2.12320   0.00000  4       13
siesta:      7.57218  -4.06728   0.00000  4       14
siesta:      9.01814  -0.94924   0.00000  4       15
siesta:     -4.28099  -5.41332   0.00000  4       16
siesta:     16.86538  14.40791   0.00000  3       17
siesta:     20.46509  16.68813   0.00000  3       18
siesta:     19.52825   9.18029   0.00000  3       19
siesta:     23.45411  13.84644   0.00000  3       20
siesta:     16.97805  11.16244   0.00000  2       21
siesta:     13.95684  15.83215   0.00000  2       22
siesta:     22.65064  10.55949   0.00000  2       23
siesta:     20.82668  19.50789   0.00000  4       24
siesta:     26.25916  14.25978   0.00000  4       25
siesta:     13.74643  17.81485   0.00000  4       26
siesta:     12.19456  14.65124   0.00000  4       27
siesta:     19.50893   6.14140   0.00000  1       28
siesta:     24.11598   9.18624   0.00000  4       29

siesta: Automatic unit cell vectors (Ang):
siesta:   28.204049    0.000000    0.000000
siesta:    0.000000   22.095088    0.000000
siesta:    0.000000    0.000000    9.854683

siesta: System type = molecule  

initatomlists: Number of atoms, orbitals, and projectors:     29   297   394

siesta: ******************** Simulation parameters ****************************
siesta:
siesta: The following are some of the parameters of the simulation.
siesta: A complete list of the parameters used, including default values,
siesta: can be found in file out.fdf
siesta:
redata: Spin configuration                          = spin-orbit
redata: Number of spin components                   = 8
redata: Time-Reversal Symmetry                      = F
redata: Spin spiral                                 = F
############################################################
This spin-orbit implementation uses a local approximation.
From 4.2 and onwards the full non-local approximation is implemented
You are strongly advised to use >=4.2 versions!
############################################################
redata: Long output                                 =   F
redata: Number of Atomic Species                    =        4
redata: Charge density info will appear in .RHO file
redata: Write Mulliken Pop.                         = Atomic and Orbital charges
redata: Matel table size (NRTAB)                    =     1024
redata: Mesh Cutoff                                 =   340.0000 Ry
redata: Net charge of the system                    =     0.0000 |e|
redata: Min. number of SCF Iter                     =        1
redata: Max. number of SCF Iter                     =      200
redata: SCF mix quantity                            = Hamiltonian
redata: Mix DM or H after convergence               =   F
redata: Recompute H after scf cycle                 =   F
redata: Mix DM in first SCF step                    =   T
redata: Write Pulay info on disk                    =   F
redata: New DM Occupancy tolerance                  = 0.000000000001
redata: No kicks to SCF
redata: DM Mixing Weight for Kicks                  =     0.5000
redata: Require Harris convergence for SCF          =   F
redata: Harris energy tolerance for SCF             =     0.000100 eV
redata: Require DM convergence for SCF              =   T
redata: DM tolerance for SCF                        =     0.000008
redata: Require EDM convergence for SCF             =   F
redata: EDM tolerance for SCF                       =     0.001000 eV
redata: Require H convergence for SCF               =   T
redata: Hamiltonian tolerance for SCF               =     0.000001 eV
redata: Require (free) Energy convergence for SCF   =   F
redata: (free) Energy tolerance for SCF             =     0.000100 eV
redata: Using Saved Data (generic)                  =   F
redata: Use continuation files for DM               =   F
redata: Neglect nonoverlap interactions             =   F
redata: Method of Calculation                       = Diagonalization
redata: Electronic Temperature                      =   299.9978 K
redata: Fix the spin of the system                  =   F
redata: Dynamics option                             = Single-point calculation
mix.SCF: Pulay mixing                            = Pulay
mix.SCF:    Variant                              = stable
mix.SCF:    History steps                        = 6
mix.SCF:    Linear mixing weight                 =     0.250000
mix.SCF:    Mixing weight                        =     0.250000
mix.SCF:    SVD condition                        = 0.1000E-07
mix.SCF:    Restart steps                        = 24
mix.SCF:    Restart save steps                   = 3
mix.SCF: Spin-component mixing                   all
redata: Save all siesta data in one NC              =   F
redata: ***********************************************************************

%block SCF.Mixers
  Pulay
%endblock SCF.Mixers

%block SCF.Mixer.Pulay
  # Mixing method
  method pulay
  variant stable

  # Mixing options
  weight 0.2500
  weight.linear 0.2500
  history 6
  restart 24
  restart.save 3
%endblock SCF.Mixer.Pulay

DM_history_depth set to one: no extrapolation allowed by default for geometry relaxation
Size of DM history Fstack: 1
Total number of electrons:    98.000000
Total ionic charge:    98.000000

* ProcessorY, Blocksize:    2  24


* Orbital distribution balance (max,min):    81    72


Time-reversal symmetry not used.

siesta: k-grid: Number of k-points =     1
siesta: k-grid: Cutoff (effective) =     4.927 Ang
siesta: k-grid: Supercell and displacements
siesta: k-grid:    1   0   0      0.000
siesta: k-grid:    0   1   0      0.000
siesta: k-grid:    0   0   1      0.000

diag: Algorithm                                     = ELPA-1stage
diag: Parallel over k                               =   F
diag: Use parallel 2D distribution                  =   T
diag: Parallel block-size                           = 24
diag: Parallel distribution                         =     2 x     2
diag: Used triangular part                          = Lower
diag: Absolute tolerance                            =  0.100E-15
diag: Orthogonalization factor                      =  0.100E-05
diag: Memory factor                                 =  1.0000


ts: **************************************************************
ts: Save H and S matrices                           =    F
ts: Save DM and EDM matrices                        =    F
ts: Only save the overlap matrix S                  =    F
ts: **************************************************************

************************ Begin: TS CHECKS AND WARNINGS ************************
************************ End: TS CHECKS AND WARNINGS **************************


                     ====================================
                        Single-point calculation
                     ====================================

outcoor: Atomic coordinates (Ang):                          
    1.04362488    3.93922861    0.00000000   1       1  O
   -3.04064129    1.07107817    0.00000000   2       2  N
    2.05460145    1.21358207    0.00000000   2       3  N
    0.99901410   -1.73264380    0.00000000   2       4  N
   -2.13235164   -1.81296822    0.00000000   2       5  N
    3.86019055   -1.11229818    0.00000000   2       6  N
   -1.23618322    1.15296446    0.00000000   3       7  Si
   -0.53292426   -0.93900627    0.00000000   3       8  Si
    0.63566047    2.37451677    0.00000000   3       9  Si
    2.24517024   -0.54996710    0.00000000   3      10  Si
   -3.44981666   -0.58366503    0.00000000   3      11  Si
    2.96371409    1.79099263    0.00000000   4      12  H
   -4.84559135   -1.12354966    0.00000000   4      13  H
    4.00702091   -2.15230856    0.00000000   4      14  H
    4.77219438   -0.50231816    0.00000000   4      15  H
   -2.26539909   -2.86460511    0.00000000   4      16  H
    8.92477308    7.62433447    0.00000000   3      17  Si
   10.82965705    8.83097341    0.00000000   3      18  Si
   10.33390291    4.85799950    0.00000000   3      19  Si
   12.41137320    7.32721666    0.00000000   3      20  Si
    8.98439575    5.90690690    0.00000000   2      21  N
    7.38563802    8.37801178    0.00000000   2      22  N
   11.98619817    5.58783672    0.00000000   2      23  N
   11.02100185   10.32312716    0.00000000   4      24  H
   13.89574118    7.54594748    0.00000000   4      25  H
    7.27429274    9.42720689    0.00000000   4      26  H
    6.45308031    7.75309760    0.00000000   4      27  H
   10.32367608    3.24988838    0.00000000   1      28  O
   12.76162405    4.86114516    0.00000000   4      29  H

outcell: Unit cell vectors (Ang):
       28.204049    0.000000    0.000000
        0.000000   22.095088    0.000000
        0.000000    0.000000    9.854683

outcell: Cell vector modules (Ang)   :   28.204049   22.095088    9.854683
outcell: Cell angles (23,13,12) (deg):     90.0000     90.0000     90.0000
outcell: Cell volume (Ang**3)        :   6141.1523
<dSpData1D:S at geom step 0
  <sparsity:sparsity for geom step 0
    nrows_g=297 nrows=81 sparsity=.1367 nnzs=12061, refcount: 8>
  <dData1D:(new from dSpData1D) n=12061, refcount: 1>
refcount: 1>
new_DM -- step:     1
Initializing Density Matrix...
DM filled with atomic data:
<dSpData2D:DM initialized from atoms
  <sparsity:sparsity for geom step 0
    nrows_g=297 nrows=81 sparsity=.1367 nnzs=12061, refcount: 9>
  <dData2D:DM n=12061 m=8, refcount: 1>
refcount: 1>
     spin moment: S , {S} =   56.00000   0.00000   0.00000  56.00000
No. of atoms with KB's overlaping orbs in proc 0. Max # of overlaps:      29     142

Initializing spin-orbit part of the Hamiltonian
  Adding spin-orbit effects for O 
  Adding spin-orbit effects for N 
  Adding spin-orbit effects for Si
  Adding spin-orbit effects for H 


New grid distribution:   1
           1       1:  160    1:   63    1:   30
           2       1:  160    1:   63   31:   60
           3       1:  160   64:  125    1:   30
           4       1:  160   64:  125   31:   60

InitMesh: MESH =   320 x   250 x   120 =     9600000
InitMesh: (bp) =   160 x   125 x    60 =     1200000
InitMesh: Mesh cutoff (required, used) =   340.000   353.826 Ry
ExtMesh (bp) on 0 =   264 x   167 x   142 =     6260496
New grid distribution:   2
           1      60:  160    1:   39    1:   60
           2       1:   59    1:   40    1:   60
           3      60:  160   40:  125    1:   60
           4       1:   59   41:  125    1:   60
New grid distribution:   3
           1      60:  160    1:   42    1:   60
           2       1:   59    1:   42    1:   60
           3      60:  160   43:  125    1:   60
           4       1:   59   43:  125    1:   60
Setting up quadratic distribution...
ExtMesh (bp) on 0 =   205 x   143 x   172 =     5042180
PhiOnMesh: Number of (b)points on node 0 =               236340
PhiOnMesh: nlist on node 0 =              2448558

stepf: Fermi-Dirac step function

siesta: Program's energy decomposition (eV):
siesta: Ebs     =      -627.194210
siesta: Eions   =      3585.165840
siesta: Ena     =       382.019161
siesta: Ekin    =      3369.686270
siesta: Enl     =     -3298.248447
siesta: Eso     =        -0.003411
siesta: Edftu   =         0.000000
siesta: DEna    =       153.682502
siesta: DUscf   =        82.046520
siesta: DUext   =         0.000000
siesta: Exc     =     -1204.168664
siesta: eta*DQ  =         0.000000
siesta: Emadel  =         0.000000
siesta: Emeta   =         0.000000
siesta: Emolmec =         0.000000
siesta: Ekinion =         0.000000
siesta: Eharris =     -4019.856011
siesta: Etot    =     -4100.151908
siesta: FreeEng =     -4100.153330

        iscf     Eharris(eV)        E_KS(eV)     FreeEng(eV)     dDmax    Ef(eV) dHmax(eV)
   scf:    1    -4019.856011    -4100.151908    -4100.153330  0.964990 -4.904569 21.862263
     spin moment: S , {S} =    2.00725  -0.00000  -0.00000   2.00725
timer: Routine,Calls,Time,% = IterSCF        1      12.596  18.14
   scf:    2    -4146.361928    -4135.492940    -4135.494931  0.448296 -4.236817 11.861568
     spin moment: S , {S} =    1.98770   0.00000   0.00000   1.98770
   scf:    3    -4101.524624    -4131.624414    -4131.648667  0.419499 -4.340939 12.737565
     spin moment: S , {S} =    2.31759  -0.00000   0.00000   2.31759
   scf:    4    -4149.961079    -4144.808408    -4144.808408  0.318900 -3.909130  7.152524
     spin moment: S , {S} =    0.00010   0.00000   0.00000   0.00010
   scf:    5    -4146.215366    -4145.622342    -4145.622342  0.037722 -3.700042  4.651326
     spin moment: S , {S} =    0.00006   0.00000   0.00000   0.00006
   scf:    6    -4146.383631    -4146.011187    -4146.011187  0.024362 -3.680014  2.341309
     spin moment: S , {S} =    0.00003   0.00000  -0.00000   0.00003
   scf:    7    -4146.376075    -4146.189690    -4146.189690  0.022390 -3.582017  0.883925
     spin moment: S , {S} =    0.00001   0.00000   0.00000   0.00001
   scf:    8    -4146.305343    -4146.245659    -4146.245659  0.011982 -3.826903  0.523429
     spin moment: S , {S} =    0.00000   0.00000  -0.00000   0.00000
   scf:    9    -4146.285490    -4146.264861    -4146.264861  0.006795 -3.781981  0.409949
     spin moment: S , {S} =    0.00000  -0.00000   0.00000   0.00000
   scf:   10    -4146.318459    -4146.284106    -4146.284106  0.023339 -3.796422  0.257940
     spin moment: S , {S} =    0.00000  -0.00000  -0.00000  -0.00000
   scf:   11    -4146.288356    -4146.286279    -4146.286279  0.005707 -3.787964  0.072719
     spin moment: S , {S} =    0.00000  -0.00000  -0.00000  -0.00000
   scf:   12    -4146.287835    -4146.287074    -4146.287074  0.001156 -3.783254  0.033642
     spin moment: S , {S} =    0.00000   0.00000  -0.00000  -0.00000
   scf:   13    -4146.287706    -4146.287387    -4146.287387  0.001116 -3.779688  0.022037
     spin moment: S , {S} =    0.00000  -0.00000  -0.00000  -0.00000
   scf:   14    -4146.287705    -4146.287540    -4146.287540  0.000697 -3.779387  0.013205
     spin moment: S , {S} =    0.00000  -0.00000  -0.00000  -0.00000
   scf:   15    -4146.287680    -4146.287606    -4146.287606  0.000735 -3.778253  0.007904
     spin moment: S , {S} =    0.00000  -0.00000  -0.00000  -0.00000
   scf:   16    -4146.287675    -4146.287637    -4146.287637  0.000647 -3.779882  0.004989
     spin moment: S , {S} =    0.00000  -0.00000  -0.00000  -0.00000
   scf:   17    -4146.287655    -4146.287645    -4146.287645  0.000356 -3.779752  0.003664
     spin moment: S , {S} =    0.00000  -0.00000  -0.00000   0.00000
   scf:   18    -4146.287653    -4146.287649    -4146.287649  0.000220 -3.779921  0.002503
     spin moment: S , {S} =    0.00000  -0.00000  -0.00000   0.00000
   scf:   19    -4146.287653    -4146.287651    -4146.287651  0.000206 -3.780114  0.001669
     spin moment: S , {S} =    0.00000  -0.00000  -0.00000   0.00000
   scf:   20    -4146.287652    -4146.287651    -4146.287651  0.000096 -3.780153  0.001223
     spin moment: S , {S} =    0.00000  -0.00000  -0.00000   0.00000
   scf:   21    -4146.287653    -4146.287652    -4146.287652  0.000139 -3.780152  0.000747
     spin moment: S , {S} =    0.00000  -0.00000  -0.00000   0.00000
   scf:   22    -4146.287652    -4146.287652    -4146.287652  0.000097 -3.780123  0.000318
     spin moment: S , {S} =    0.00000  -0.00000  -0.00000   0.00000
   scf:   23    -4146.287652    -4146.287652    -4146.287652  0.000051 -3.780114  0.000162
     spin moment: S , {S} =    0.00000  -0.00000  -0.00000   0.00000
   scf:   24    -4146.287652    -4146.287652    -4146.287652  0.000021 -3.780115  0.000092
     spin moment: S , {S} =    0.00000   0.00000  -0.00000   0.00000
mix: Pulay -- resetting history
   scf:   25    -4146.287652    -4146.287652    -4146.287652  0.000013 -3.780116  0.000059
     spin moment: S , {S} =    0.00000   0.00000  -0.00000   0.00000
   scf:   26    -4146.287652    -4146.287652    -4146.287652  0.000004 -3.780117  0.000035
     spin moment: S , {S} =    0.00000  -0.00000  -0.00000   0.00000
   scf:   27    -4146.287652    -4146.287652    -4146.287652  0.000004 -3.780116  0.000021
     spin moment: S , {S} =    0.00000  -0.00000  -0.00000   0.00000
   scf:   28    -4146.287652    -4146.287652    -4146.287652  0.000002 -3.780116  0.000012
     spin moment: S , {S} =    0.00000  -0.00000  -0.00000   0.00000
   scf:   29    -4146.287652    -4146.287652    -4146.287652  0.000001 -3.780115  0.000008
     spin moment: S , {S} =    0.00000  -0.00000  -0.00000   0.00000
   scf:   30    -4146.287652    -4146.287652    -4146.287652  0.000001 -3.780115  0.000004
     spin moment: S , {S} =    0.00000  -0.00000  -0.00000   0.00000
   scf:   31    -4146.287652    -4146.287652    -4146.287652  0.000000 -3.780115  0.000003
     spin moment: S , {S} =    0.00000  -0.00000  -0.00000   0.00000
   scf:   32    -4146.287652    -4146.287652    -4146.287652  0.000000 -3.780116  0.000002
     spin moment: S , {S} =    0.00000   0.00000  -0.00000   0.00000
   scf:   33    -4146.287652    -4146.287652    -4146.287652  0.000000 -3.780116  0.000001
     spin moment: S , {S} =    0.00000  -0.00000  -0.00000   0.00000
   scf:   34    -4146.287652    -4146.287652    -4146.287652  0.000000 -3.780115  0.000001
     spin moment: S , {S} =    0.00000  -0.00000  -0.00000   0.00000

SCF Convergence by DM+H criterion
max |DM_out - DM_in|         :     0.0000001127
max |H_out - H_in|      (eV) :     0.0000006724
SCF cycle converged after 34 iterations

Using DM_out to compute the final energy and forces
No. of atoms with KB's overlaping orbs in proc 0. Max # of overlaps:      29     142

siesta: E_KS(eV) =            -4146.2877

siesta: E_KS - E_eggbox =     -4146.2877
     spin moment: S , {S} =    0.00000  -0.00000  -0.00000   0.00000

siesta: Atomic forces (eV/Ang):
     1    3.142520    0.597672    0.000000
     2    0.016277    0.031683   -0.000000
     3    0.826525   -0.447205    0.000000
     4    0.809230   -0.019813   -0.000000
     5    0.046354   -0.103405    0.000000
     6    1.847042    0.650425    0.000000
     7    0.040042   -0.269872   -0.000000
     8   -0.460414    0.314763    0.000000
     9   -0.228369    1.339837    0.000000
    10   -1.147653    0.382910   -0.000000
    11   -0.028173   -0.018940   -0.000000
    12   -0.352165   -0.237013   -0.000000
    13    0.016766   -0.083671    0.000000
    14    0.202929   -0.059829   -0.000000
    15   -1.391201   -0.971925   -0.000000
    16   -0.090796    0.150634    0.000000
    17    1.111969   -1.182582   -0.000000
    18   -0.234315    0.213150    0.000000
    19   -0.188348   -1.372582    0.000000
    20   -0.010478   -0.459517   -0.000000
    21   -0.369889    1.079394    0.000000
    22   -2.283717   -0.883065    0.000000
    23    0.280292    0.623267   -0.000000
    24    0.073890    0.077071    0.000000
    25    0.102745    0.006150    0.000000
    26   -0.254823   -0.162846   -0.000000
    27    1.655361    1.434796    0.000000
    28   -2.251184    3.481916   -0.000000
    29    0.050912    0.096381   -0.000000
----------------------------------------
   Tot    0.931327    4.207785    0.000000
----------------------------------------
   Max    3.481916
   Res    0.810893    sqrt( Sum f_i^2 / 3N )
----------------------------------------
   Max    3.481916    constrained

Stress tensor Voigt[x,y,z,yz,xz,xy] (kbar):       -0.12        1.38       -0.09       -0.00        0.00        1.20
(Free)E + p*V (eV/cell)    -4147.7938
Target enthalpy (eV/cell)    -4146.2877

mulliken: Atomic and Orbital Populations:

Species: O                   

Atom      Orb        Charge      Spin       Svec
----------------------------------------------------------------
    1  1 2s         1.75100   0.00000      0.000   0.000  -0.000
    1  2 2s         0.06473   0.00000     -0.000  -0.000  -0.000
    1  3 2py        1.42187   0.00000     -0.000  -0.000  -0.000
    1  4 2pz        1.54129   0.00000      0.000  -0.000  -0.000
    1  5 2px        1.62289   0.00000     -0.000   0.000   0.000
    1  6 2py        0.04073   0.00000      0.000  -0.000   0.000
    1  7 2pz       -0.00504   0.00000     -0.000   0.000   0.000
    1  8 2px        0.00637   0.00000      0.000  -0.000   0.000
    1  9 3Pdxy      0.00714   0.00000      0.000  -0.000   0.000
    1 10 3Pdyz      0.00915   0.00000     -0.000   0.000   0.000
    1 11 3Pdz2      0.00161   0.00000     -0.000  -0.000  -0.000
    1 12 3Pdxz      0.00039   0.00000     -0.000   0.000   0.000
    1 13 3Pdx2-y2   0.00701   0.00000      0.000  -0.000   0.000
    1     Total     6.46913   0.00000      0.000  -0.000  -0.000

   28  1 2s         1.74741   0.00000      0.000  -0.000   0.000
   28  2 2s         0.06663   0.00000      0.000   0.000  -0.000
   28  3 2py        1.40407   0.00000     -0.000  -0.000  -0.000
   28  4 2pz        1.53957   0.00000     -0.000   0.000   0.000
   28  5 2px        1.64369   0.00000     -0.000   0.000   0.000
   28  6 2py        0.04397   0.00000      0.000   0.000   0.000
   28  7 2pz       -0.00329   0.00000     -0.000  -0.000   0.000
   28  8 2px        0.01138   0.00000      0.000  -0.000   0.000
   28  9 3Pdxy      0.00652   0.00000      0.000  -0.000   0.000
   28 10 3Pdyz      0.00985   0.00000     -0.000  -0.000  -0.000
   28 11 3Pdz2      0.00127   0.00000      0.000  -0.000  -0.000
   28 12 3Pdxz     -0.00018   0.00000     -0.000   0.000  -0.000
   28 13 3Pdx2-y2   0.00774   0.00000     -0.000  -0.000  -0.000
   28     Total     6.47863   0.00000     -0.000  -0.000   0.000

----------------------------------------------------------------
Total              12.94776   0.00000     -0.000  -0.000  -0.000


Species: N                   

Atom      Orb        Charge      Spin       Svec
----------------------------------------------------------------
    2  1 2s         1.55183   0.00000     -0.000   0.000  -0.000
    2  2 2s         0.08402   0.00000      0.000  -0.000   0.000
    2  3 2py        1.04314   0.00000      0.000  -0.000  -0.000
    2  4 2pz        1.22414   0.00000      0.000  -0.000  -0.000
    2  5 2px        0.98881   0.00000      0.000   0.000  -0.000
    2  6 2py        0.18876   0.00000     -0.000   0.000   0.000
    2  7 2pz        0.05551   0.00000     -0.000   0.000   0.000
    2  8 2px        0.19602   0.00000     -0.000   0.000   0.000
    2  9 3Pdxy      0.00841   0.00000     -0.000  -0.000  -0.000
    2 10 3Pdyz      0.01100   0.00000     -0.000   0.000   0.000
    2 11 3Pdz2      0.00196   0.00000     -0.000   0.000   0.000
    2 12 3Pdxz      0.00757   0.00000      0.000  -0.000   0.000
    2 13 3Pdx2-y2   0.00910   0.00000      0.000  -0.000  -0.000
    2     Total     5.37027   0.00000      0.000  -0.000  -0.000

    3  1 2s         1.40140   0.00000     -0.000  -0.000  -0.000
    3  2 2s         0.11607   0.00000      0.000   0.000   0.000
    3  3 2py        0.94136   0.00000      0.000  -0.000  -0.000
    3  4 2pz        1.54311   0.00000      0.000   0.000  -0.000
    3  5 2px        1.08123   0.00000     -0.000   0.000   0.000
    3  6 2py        0.24856   0.00000     -0.000   0.000   0.000
    3  7 2pz        0.00751   0.00000     -0.000  -0.000   0.000
    3  8 2px        0.17873   0.00000      0.000  -0.000  -0.000
    3  9 3Pdxy      0.00402   0.00000     -0.000  -0.000  -0.000
    3 10 3Pdyz      0.00420   0.00000      0.000   0.000  -0.000
    3 11 3Pdz2      0.00075   0.00000     -0.000   0.000   0.000
    3 12 3Pdxz      0.00280   0.00000     -0.000   0.000  -0.000
    3 13 3Pdx2-y2   0.00286   0.00000     -0.000   0.000   0.000
    3     Total     5.53262   0.00000      0.000   0.000  -0.000

    4  1 2s         1.45963   0.00000      0.000   0.000  -0.000
    4  2 2s         0.11897   0.00000     -0.000  -0.000   0.000
    4  3 2py        1.13136   0.00000     -0.000   0.000  -0.000
    4  4 2pz        1.29435   0.00000     -0.000  -0.000  -0.000
    4  5 2px        0.82590   0.00000      0.000   0.000  -0.000
    4  6 2py        0.14942   0.00000      0.000  -0.000   0.000
    4  7 2pz        0.05371   0.00000      0.000   0.000   0.000
    4  8 2px        0.29228   0.00000     -0.000  -0.000   0.000
    4  9 3Pdxy      0.00869   0.00000      0.000  -0.000  -0.000
    4 10 3Pdyz      0.01045   0.00000     -0.000  -0.000   0.000
    4 11 3Pdz2      0.00126   0.00000     -0.000   0.000  -0.000
    4 12 3Pdxz      0.00500   0.00000     -0.000   0.000   0.000
    4 13 3Pdx2-y2   0.00797   0.00000      0.000   0.000  -0.000
    4     Total     5.35900   0.00000     -0.000   0.000  -0.000

    5  1 2s         1.37630   0.00000      0.000   0.000  -0.000
    5  2 2s         0.12789   0.00000     -0.000  -0.000   0.000
    5  3 2py        1.02650   0.00000      0.000   0.000  -0.000
    5  4 2pz        1.50094   0.00000      0.000  -0.000  -0.000
    5  5 2px        1.05993   0.00000      0.000   0.000  -0.000
    5  6 2py        0.20354   0.00000     -0.000  -0.000   0.000
    5  7 2pz        0.01337   0.00000      0.000   0.000   0.000
    5  8 2px        0.20096   0.00000     -0.000  -0.000   0.000
    5  9 3Pdxy      0.00393   0.00000     -0.000  -0.000   0.000
    5 10 3Pdyz      0.00241   0.00000     -0.000   0.000   0.000
    5 11 3Pdz2      0.00143   0.00000     -0.000  -0.000   0.000
    5 12 3Pdxz      0.00686   0.00000     -0.000   0.000   0.000
    5 13 3Pdx2-y2   0.00560   0.00000     -0.000   0.000   0.000
    5     Total     5.52965   0.00000      0.000   0.000  -0.000

    6  1 2s         1.26972   0.00000      0.000   0.000  -0.000
    6  2 2s         0.17901   0.00000     -0.000  -0.000   0.000
    6  3 2py        1.07618   0.00000     -0.000  -0.000  -0.000
    6  4 2pz        1.57598   0.00000      0.000  -0.000  -0.000
    6  5 2px        0.95465   0.00000      0.000   0.000  -0.000
    6  6 2py        0.18802   0.00000      0.000   0.000   0.000
    6  7 2pz        0.02974   0.00000     -0.000   0.000   0.000
    6  8 2px        0.25575   0.00000     -0.000  -0.000   0.000
    6  9 3Pdxy      0.00251   0.00000     -0.000  -0.000   0.000
    6 10 3Pdyz      0.00017   0.00000      0.000   0.000  -0.000
    6 11 3Pdz2      0.00178   0.00000     -0.000  -0.000  -0.000
    6 12 3Pdxz      0.00324   0.00000      0.000  -0.000   0.000
    6 13 3Pdx2-y2   0.00395   0.00000      0.000  -0.000   0.000
    6     Total     5.54070   0.00000      0.000  -0.000  -0.000

   21  1 2s         1.42499   0.00000      0.000   0.000   0.000
   21  2 2s         0.12776   0.00000     -0.000  -0.000  -0.000
   21  3 2py        0.87077   0.00000      0.000   0.000  -0.000
   21  4 2pz        1.29371   0.00000      0.000  -0.000  -0.000
   21  5 2px        1.15605   0.00000      0.000  -0.000  -0.000
   21  6 2py        0.27577   0.00000     -0.000  -0.000  -0.000
   21  7 2pz        0.04907   0.00000     -0.000  -0.000   0.000
   21  8 2px        0.16343   0.00000     -0.000   0.000   0.000
   21  9 3Pdxy      0.00654   0.00000     -0.000  -0.000  -0.000
   21 10 3Pdyz      0.00512   0.00000      0.000  -0.000   0.000
   21 11 3Pdz2      0.00017   0.00000     -0.000   0.000   0.000
   21 12 3Pdxz      0.00575   0.00000      0.000  -0.000  -0.000
   21 13 3Pdx2-y2   0.00561   0.00000      0.000  -0.000  -0.000
   21     Total     5.38472   0.00000      0.000  -0.000  -0.000

   22  1 2s         1.29468   0.00000      0.000   0.000  -0.000
   22  2 2s         0.16751   0.00000     -0.000  -0.000   0.000
   22  3 2py        1.05633   0.00000     -0.000  -0.000  -0.000
   22  4 2pz        1.55983   0.00000     -0.000   0.000   0.000
   22  5 2px        0.98147   0.00000     -0.000  -0.000   0.000
   22  6 2py        0.19642   0.00000      0.000   0.000   0.000
   22  7 2pz        0.02812   0.00000      0.000  -0.000   0.000
   22  8 2px        0.23513   0.00000      0.000   0.000  -0.000
   22  9 3Pdxy      0.00334   0.00000     -0.000   0.000   0.000
   22 10 3Pdyz      0.00035   0.00000      0.000  -0.000  -0.000
   22 11 3Pdz2      0.00258   0.00000      0.000   0.000  -0.000
   22 12 3Pdxz      0.00313   0.00000      0.000  -0.000   0.000
   22 13 3Pdx2-y2   0.00479   0.00000      0.000  -0.000  -0.000
   22     Total     5.53368   0.00000     -0.000   0.000   0.000

   23  1 2s         1.39752   0.00000     -0.000   0.000   0.000
   23  2 2s         0.11776   0.00000     -0.000  -0.000  -0.000
   23  3 2py        1.00646   0.00000     -0.000  -0.000  -0.000
   23  4 2pz        1.52384   0.00000     -0.000  -0.000  -0.000
   23  5 2px        1.06565   0.00000      0.000  -0.000  -0.000
   23  6 2py        0.21171   0.00000      0.000   0.000  -0.000
   23  7 2pz        0.00496   0.00000      0.000  -0.000   0.000
   23  8 2px        0.19796   0.00000     -0.000   0.000   0.000
   23  9 3Pdxy      0.00530   0.00000      0.000  -0.000  -0.000
   23 10 3Pdyz      0.00445   0.00000     -0.000  -0.000  -0.000
   23 11 3Pdz2      0.00058   0.00000     -0.000   0.000  -0.000
   23 12 3Pdxz      0.00243   0.00000      0.000  -0.000  -0.000
   23 13 3Pdx2-y2   0.00138   0.00000     -0.000  -0.000   0.000
   23     Total     5.53998   0.00000     -0.000  -0.000  -0.000

----------------------------------------------------------------
Total              56.73840   0.00000      0.000  -0.000  -0.000


Species: Si                  

Atom      Orb        Charge      Spin       Svec
----------------------------------------------------------------
    7  1 3s         0.66753   0.00000      0.000   0.000   0.000
    7  2 3s         0.36521   0.00000     -0.000  -0.000   0.000
    7  3 3py        0.48744   0.00000     -0.000  -0.000  -0.000
    7  4 3pz        0.68856   0.00000      0.000  -0.000  -0.000
    7  5 3px        0.12469   0.00000      0.000   0.000  -0.000
    7  6 3py        0.26478   0.00000      0.000   0.000   0.000
    7  7 3pz        0.25943   0.00000      0.000   0.000   0.000
    7  8 3px        0.43869   0.00000     -0.000  -0.000   0.000
    7  9 3Pdxy      0.24580   0.00000     -0.000  -0.000   0.000
    7 10 3Pdyz      0.02943   0.00000     -0.000   0.000  -0.000
    7 11 3Pdz2      0.01176   0.00000      0.000  -0.000   0.000
    7 12 3Pdxz      0.14578   0.00000     -0.000   0.000  -0.000
    7 13 3Pdx2-y2   0.11297   0.00000      0.000   0.000  -0.000
    7     Total     3.84207   0.00000      0.000   0.000   0.000

    8  1 3s         0.65710   0.00000     -0.000  -0.000   0.000
    8  2 3s         0.36841   0.00000      0.000   0.000   0.000
    8  3 3py        0.38774   0.00000     -0.000  -0.000   0.000
    8  4 3pz        0.52735   0.00000     -0.000  -0.000   0.000
    8  5 3px       -0.03111   0.00000      0.000   0.000  -0.000
    8  6 3py        0.30898   0.00000      0.000   0.000   0.000
    8  7 3pz        0.20169   0.00000      0.000  -0.000   0.000
    8  8 3px        0.51459   0.00000     -0.000  -0.000  -0.000
    8  9 3Pdxy      0.24570   0.00000     -0.000  -0.000   0.000
    8 10 3Pdyz      0.11216   0.00000     -0.000  -0.000  -0.000
    8 11 3Pdz2      0.01459   0.00000      0.000   0.000   0.000
    8 12 3Pdxz      0.15297   0.00000     -0.000   0.000   0.000
    8 13 3Pdx2-y2   0.20011   0.00000      0.000   0.000   0.000
    8     Total     3.66027   0.00000     -0.000  -0.000   0.000

    9  1 3s         0.60444   0.00000     -0.000  -0.000   0.000
    9  2 3s         0.36649   0.00000      0.000   0.000  -0.000
    9  3 3py        0.07588   0.00000      0.000   0.000  -0.000
    9  4 3pz        0.48422   0.00000      0.000   0.000  -0.000
    9  5 3px        0.37750   0.00000     -0.000   0.000  -0.000
    9  6 3py        0.44708   0.00000     -0.000   0.000  -0.000
    9  7 3pz        0.18801   0.00000     -0.000   0.000  -0.000
    9  8 3px        0.27395   0.00000      0.000  -0.000   0.000
    9  9 3Pdxy      0.31230   0.00000      0.000  -0.000  -0.000
    9 10 3Pdyz      0.18949   0.00000     -0.000   0.000  -0.000
    9 11 3Pdz2      0.01642   0.00000      0.000  -0.000   0.000
    9 12 3Pdxz      0.09652   0.00000      0.000  -0.000  -0.000
    9 13 3Pdx2-y2   0.17145   0.00000      0.000  -0.000   0.000
    9     Total     3.60376   0.00000     -0.000  -0.000  -0.000

   10  1 3s         0.48372   0.00000     -0.000   0.000   0.000
   10  2 3s         0.37724   0.00000      0.000  -0.000   0.000
   10  3 3py        0.24243   0.00000      0.000   0.000   0.000
   10  4 3pz        0.41027   0.00000     -0.000   0.000   0.000
   10  5 3px        0.10132   0.00000     -0.000  -0.000   0.000
   10  6 3py        0.32765   0.00000     -0.000  -0.000   0.000
   10  7 3pz        0.22209   0.00000     -0.000  -0.000   0.000
   10  8 3px        0.42803   0.00000      0.000   0.000   0.000
   10  9 3Pdxy      0.16952   0.00000     -0.000  -0.000   0.000
   10 10 3Pdyz      0.14079   0.00000      0.000   0.000   0.000
   10 11 3Pdz2      0.01047   0.00000     -0.000   0.000   0.000
   10 12 3Pdxz      0.17440   0.00000     -0.000  -0.000   0.000
   10 13 3Pdx2-y2   0.31052   0.00000      0.000   0.000  -0.000
   10     Total     3.39845   0.00000     -0.000   0.000   0.000

   11  1 3s         0.55273   0.00000      0.000  -0.000   0.000
   11  2 3s         0.38551   0.00000     -0.000  -0.000   0.000
   11  3 3py        0.32132   0.00000     -0.000  -0.000   0.000
   11  4 3pz        0.53871   0.00000      0.000  -0.000   0.000
   11  5 3px        0.12327   0.00000     -0.000  -0.000   0.000
   11  6 3py        0.28702   0.00000      0.000   0.000   0.000
   11  7 3pz        0.17791   0.00000     -0.000   0.000   0.000
   11  8 3px        0.44722   0.00000      0.000   0.000  -0.000
   11  9 3Pdxy      0.22527   0.00000      0.000  -0.000   0.000
   11 10 3Pdyz      0.12607   0.00000     -0.000   0.000   0.000
   11 11 3Pdz2      0.00955   0.00000      0.000   0.000  -0.000
   11 12 3Pdxz      0.05255   0.00000      0.000  -0.000   0.000
   11 13 3Pdx2-y2   0.20363   0.00000      0.000  -0.000   0.000
   11     Total     3.45077   0.00000     -0.000  -0.000   0.000

   17  1 3s         0.64032   0.00000     -0.000   0.000   0.000
   17  2 3s         0.36020   0.00000      0.000  -0.000  -0.000
   17  3 3py        0.22879   0.00000      0.000   0.000   0.000
   17  4 3pz        0.42509   0.00000      0.000  -0.000   0.000
   17  5 3px        0.24499   0.00000      0.000   0.000   0.000
   17  6 3py        0.38764   0.00000     -0.000   0.000  -0.000
   17  7 3pz        0.21077   0.00000      0.000   0.000   0.000
   17  8 3px        0.36789   0.00000     -0.000  -0.000  -0.000
   17  9 3Pdxy      0.30243   0.00000      0.000  -0.000   0.000
   17 10 3Pdyz      0.14340   0.00000     -0.000  -0.000   0.000
   17 11 3Pdz2      0.00914   0.00000      0.000   0.000   0.000
   17 12 3Pdxz      0.14321   0.00000      0.000  -0.000   0.000
   17 13 3Pdx2-y2   0.16311   0.00000      0.000   0.000   0.000
   17     Total     3.62698   0.00000      0.000   0.000   0.000

   18  1 3s         0.74468   0.00000     -0.000   0.000   0.000
   18  2 3s         0.33910   0.00000      0.000  -0.000   0.000
   18  3 3py        0.08095   0.00000      0.000  -0.000   0.000
   18  4 3pz        0.82470   0.00000      0.000   0.000   0.000
   18  5 3px        0.55541   0.00000     -0.000  -0.000   0.000
   18  6 3py        0.51700   0.00000     -0.000   0.000   0.000
   18  7 3pz        0.19730   0.00000     -0.000  -0.000   0.000
   18  8 3px        0.24978   0.00000      0.000   0.000   0.000
   18  9 3Pdxy      0.10345   0.00000      0.000  -0.000  -0.000
   18 10 3Pdyz      0.02735   0.00000     -0.000  -0.000  -0.000
   18 11 3Pdz2      0.00876   0.00000     -0.000  -0.000  -0.000
   18 12 3Pdxz      0.03016   0.00000     -0.000   0.000  -0.000
   18 13 3Pdx2-y2   0.11335   0.00000     -0.000  -0.000  -0.000
   18     Total     3.79200   0.00000     -0.000  -0.000   0.000

   19  1 3s         0.45883   0.00000      0.000   0.000   0.000
   19  2 3s         0.36570   0.00000      0.000  -0.000   0.000
   19  3 3py        0.08207   0.00000      0.000   0.000   0.000
   19  4 3pz        0.42841   0.00000      0.000   0.000   0.000
   19  5 3px        0.35434   0.00000      0.000  -0.000  -0.000
   19  6 3py        0.47071   0.00000      0.000  -0.000  -0.000
   19  7 3pz        0.18368   0.00000      0.000   0.000  -0.000
   19  8 3px        0.23959   0.00000      0.000  -0.000   0.000
   19  9 3Pdxy      0.34138   0.00000     -0.000  -0.000  -0.000
   19 10 3Pdyz      0.18768   0.00000      0.000  -0.000  -0.000
   19 11 3Pdz2      0.01607   0.00000     -0.000  -0.000   0.000
   19 12 3Pdxz      0.08678   0.00000     -0.000  -0.000   0.000
   19 13 3Pdx2-y2   0.23607   0.00000     -0.000   0.000  -0.000
   19     Total     3.45132   0.00000      0.000   0.000  -0.000

   20  1 3s         0.67303   0.00000      0.000  -0.000  -0.000
   20  2 3s         0.37823   0.00000      0.000   0.000  -0.000
   20  3 3py        0.33175   0.00000      0.000   0.000  -0.000
   20  4 3pz        0.58827   0.00000     -0.000   0.000  -0.000
   20  5 3px        0.13751   0.00000      0.000  -0.000  -0.000
   20  6 3py        0.29232   0.00000      0.000  -0.000  -0.000
   20  7 3pz        0.16405   0.00000      0.000  -0.000  -0.000
   20  8 3px        0.50005   0.00000     -0.000   0.000  -0.000
   20  9 3Pdxy      0.10050   0.00000      0.000  -0.000  -0.000
   20 10 3Pdyz      0.13402   0.00000      0.000   0.000  -0.000
   20 11 3Pdz2      0.00735   0.00000      0.000  -0.000   0.000
   20 12 3Pdxz      0.02701   0.00000     -0.000   0.000   0.000
   20 13 3Pdx2-y2   0.17183   0.00000     -0.000  -0.000  -0.000
   20     Total     3.50592   0.00000      0.000  -0.000  -0.000

----------------------------------------------------------------
Total              89.06995   0.00000      0.000  -0.000   0.000


Species: H                   

Atom      Orb        Charge      Spin       Svec
----------------------------------------------------------------
   12  1 1s         0.49884   0.00000     -0.000   0.000   0.000
   12  2 1s         0.18153   0.00000      0.000  -0.000   0.000
   12  3 2Ppy       0.02926   0.00000     -0.000  -0.000   0.000
   12  4 2Ppz       0.03454   0.00000     -0.000  -0.000   0.000
   12  5 2Ppx       0.02289   0.00000     -0.000  -0.000   0.000
   12     Total     0.76706   0.00000     -0.000   0.000   0.000

   13  1 1s         1.01848   0.00000     -0.000   0.000  -0.000
   13  2 1s         0.09554   0.00000      0.000  -0.000   0.000
   13  3 2Ppy       0.01808   0.00000      0.000   0.000  -0.000
   13  4 2Ppz       0.02001   0.00000     -0.000  -0.000   0.000
   13  5 2Ppx       0.03520   0.00000      0.000  -0.000  -0.000
   13     Total     1.18731   0.00000     -0.000   0.000  -0.000

   14  1 1s         0.46030   0.00000      0.000   0.000   0.000
   14  2 1s         0.19983   0.00000     -0.000  -0.000   0.000
   14  3 2Ppy       0.01787   0.00000     -0.000   0.000  -0.000
   14  4 2Ppz       0.04548   0.00000     -0.000   0.000  -0.000
   14  5 2Ppx       0.01717   0.00000      0.000   0.000   0.000
   14     Total     0.74066   0.00000     -0.000   0.000   0.000

   15  1 1s         0.50271   0.00000     -0.000  -0.000   0.000
   15  2 1s         0.17793   0.00000      0.000   0.000   0.000
   15  3 2Ppy       0.00530   0.00000      0.000   0.000   0.000
   15  4 2Ppz       0.04385   0.00000     -0.000   0.000  -0.000
   15  5 2Ppx       0.02808   0.00000     -0.000  -0.000   0.000
   15     Total     0.75787   0.00000     -0.000  -0.000   0.000

   16  1 1s         0.50998   0.00000     -0.000  -0.000   0.000
   16  2 1s         0.18719   0.00000      0.000  -0.000   0.000
   16  3 2Ppy       0.02979   0.00000     -0.000  -0.000   0.000
   16  4 2Ppz       0.03983   0.00000     -0.000  -0.000   0.000
   16  5 2Ppx       0.02359   0.00000     -0.000   0.000   0.000
   16     Total     0.79038   0.00000     -0.000  -0.000   0.000

   24  1 1s         1.06320   0.00000     -0.000   0.000  -0.000
   24  2 1s         0.07448   0.00000      0.000  -0.000   0.000
   24  3 2Ppy       0.03201   0.00000      0.000  -0.000   0.000
   24  4 2Ppz       0.03081   0.00000     -0.000  -0.000   0.000
   24  5 2Ppx       0.01729   0.00000     -0.000  -0.000  -0.000
   24     Total     1.21779   0.00000      0.000   0.000  -0.000

   25  1 1s         1.04323   0.00000     -0.000  -0.000   0.000
   25  2 1s         0.08644   0.00000      0.000   0.000  -0.000
   25  3 2Ppy       0.01228   0.00000     -0.000  -0.000   0.000
   25  4 2Ppz       0.01843   0.00000      0.000  -0.000  -0.000
   25  5 2Ppx       0.03571   0.00000      0.000   0.000   0.000
   25     Total     1.19608   0.00000     -0.000  -0.000   0.000

   26  1 1s         0.47572   0.00000     -0.000  -0.000   0.000
   26  2 1s         0.19596   0.00000      0.000   0.000   0.000
   26  3 2Ppy       0.02094   0.00000     -0.000  -0.000  -0.000
   26  4 2Ppz       0.04941   0.00000      0.000  -0.000  -0.000
   26  5 2Ppx       0.01618   0.00000      0.000  -0.000  -0.000
   26     Total     0.75821   0.00000     -0.000  -0.000   0.000

   27  1 1s         0.51695   0.00000      0.000   0.000   0.000
   27  2 1s         0.16849   0.00000     -0.000  -0.000   0.000
   27  3 2Ppy       0.00683   0.00000     -0.000  -0.000  -0.000
   27  4 2Ppz       0.03868   0.00000     -0.000  -0.000   0.000
   27  5 2Ppx       0.02853   0.00000      0.000  -0.000   0.000
   27     Total     0.75947   0.00000     -0.000  -0.000   0.000

   29  1 1s         0.48401   0.00000      0.000   0.000   0.000
   29  2 1s         0.18787   0.00000     -0.000  -0.000   0.000
   29  3 2Ppy       0.02512   0.00000      0.000  -0.000  -0.000
   29  4 2Ppz       0.03408   0.00000      0.000  -0.000   0.000
   29  5 2Ppx       0.02413   0.00000     -0.000   0.000   0.000
   29     Total     0.75521   0.00000      0.000   0.000   0.000

----------------------------------------------------------------
Total              98.00000   0.00000     -0.000  -0.000   0.000


siesta: Eigenvalues (eV):
ik =     1
  -22.0102  -22.0102  -21.7227  -21.7227  -21.6127  -21.6127  -21.6055  -21.6055  -21.2660  -21.2660
  -20.9468  -20.9468  -20.9017  -20.9017  -19.8866  -19.8866  -19.3905  -19.3905  -19.3556  -19.3556
  -14.7220  -14.7220  -13.9399  -13.9399  -13.3358  -13.3358  -13.2690  -13.2690  -13.1385  -13.1385
  -12.9776  -12.9776  -12.8944  -12.8944  -12.5206  -12.5206  -12.3931  -12.3931  -12.0015  -12.0015
  -11.5306  -11.5306  -10.8085  -10.8085  -10.7809  -10.7809  -10.7592  -10.7592  -10.0602  -10.0602
   -9.5104   -9.5104   -9.2917   -9.2917   -8.8959   -8.8959   -8.7356   -8.7356   -8.7226   -8.7226
   -8.6467   -8.6467   -8.3630   -8.3630   -8.2352   -8.2352   -7.8390   -7.8390   -7.6849   -7.6849
   -7.4664   -7.4664   -7.4099   -7.4099   -7.3176   -7.3176   -6.9590   -6.9590   -6.7055   -6.7055
   -6.5530   -6.5530   -6.4577   -6.4577   -6.1310   -6.1310   -6.1033   -6.1033   -6.0352   -6.0352
   -5.6458   -5.6458   -5.5984   -5.5984   -5.4025   -5.4025   -4.3434   -4.3434   -3.2168   -3.2168
   -2.3461   -2.3461   -2.2862   -2.2862   -2.2763   -2.2763   -1.9357   -1.9357   -1.8976   -1.8976
   -1.8189   -1.8189   -1.7458   -1.7458   -1.6118   -1.6118   -1.5486   -1.5486   -0.9852   -0.9852
   -0.9411   -0.9411   -0.8745   -0.8745   -0.4246   -0.4246   -0.1237   -0.1237   -0.0118   -0.0118
    0.1853    0.1853    0.3979    0.3979    0.4885    0.4885    0.7104    0.7104    0.7262    0.7262
    0.9472    0.9472    1.1528    1.1528    1.3157    1.3157    1.3468    1.3468    1.4686    1.4686
    1.6360    1.6360    1.8121    1.8121    1.9018    1.9018    2.2966    2.2966    2.7109    2.7109
    2.7155    2.7155    2.8396    2.8396    2.9483    2.9483    3.1456    3.1456    3.3305    3.3305
    3.3411    3.3411    3.7327    3.7327    3.8072    3.8072    4.1070    4.1070    4.2412    4.2412
    4.4411    4.4411    4.5346    4.5346    4.5828    4.5828    4.6038    4.6038    4.8104    4.8104
    4.9107    4.9107    4.9744    4.9744    5.2016    5.2016    5.5299    5.5299    5.6202    5.6202
    5.6762    5.6762    5.7990    5.7990    5.8293    5.8293    5.8944    5.8944    5.9566    5.9566
    6.1887    6.1887    6.2974    6.2974    6.6649    6.6649    6.6875    6.6875    6.8396    6.8396
    7.0674    7.0674    7.1646    7.1646    7.3525    7.3525    7.4681    7.4681    7.7133    7.7133
    7.8294    7.8294    8.0299    8.0299    8.1151    8.1151    8.1982    8.1982    8.2981    8.2981
    8.4523    8.4523    8.6507    8.6507    8.7187    8.7187    8.9512    8.9512    9.1882    9.1882
    9.2053    9.2053    9.2242    9.2242    9.7843    9.7843    9.7879    9.7879    9.8457    9.8457
    9.9775    9.9775   10.1863   10.1863   10.4032   10.4032   10.6385   10.6385   10.7794   10.7794
   10.8669   10.8669   11.0533   11.0533   11.2433   11.2433   11.6824   11.6824   11.7773   11.7773
   11.8280   11.8280   11.9191   11.9191   12.1511   12.1511   12.3317   12.3317   12.5133   12.5133
   12.7244   12.7244   12.7696   12.7696   13.3449   13.3449   13.5150   13.5150   13.7285   13.7285
   13.7525   13.7525   14.0734   14.0734   14.1931   14.1931   14.3834   14.3834   14.7919   14.7919
   14.8897   14.8897   15.3553   15.3553   15.9642   15.9642   16.3837   16.3837   16.6915   16.6915
   16.9179   16.9179   17.3919   17.3919   17.6974   17.6974   18.1685   18.1685   18.2967   18.2967
   18.5567   18.5567   19.1292   19.1292   19.3017   19.3017   19.9031   19.9031   20.2678   20.2678
   20.9076   20.9076   21.3292   21.3292   21.7695   21.7695   22.2071   22.2071   22.3913   22.3913
   23.1071   23.1071   23.2443   23.2443   23.7321   23.7321   23.8183   23.8183   23.8279   23.8279
   24.8096   24.8096   25.1803   25.1803   26.0294   26.0294   26.7417   26.7417   27.3499   27.3499
   28.2816   28.2816   29.0492   29.0492   29.1167   29.1167   29.4675   29.4675   29.5711   29.5711
   30.0053   30.0053   30.0780   30.0780   30.2250   30.2250   30.5696   30.5696   30.7500   30.7500
   31.0018   31.0018   31.2038   31.2038   31.4988   31.4988   31.6178   31.6178   32.2081   32.2081
   32.7069   32.7069   33.8142   33.8142   34.4897   34.4897   34.7572   34.7572   34.9925   34.9925
   34.9974   34.9974   35.1898   35.1898   35.3499   35.3499   35.6241   35.6241   35.9387   35.9387
   36.7463   36.7463   36.7515   36.7515   36.9922   36.9922   37.1568   37.1568   37.4672   37.4672
   38.1369   38.1369   38.2489   38.2489   39.3830   39.3830   39.4297   39.4297   39.9021   39.9021
   40.2091   40.2091   40.4986   40.4986   40.6410   40.6410   40.6422   40.6422   40.9470   40.9470
   41.0006   41.0006   41.4525   41.4525   42.4115   42.4115   42.5880   42.5880   43.0363   43.0363
   43.1174   43.1174   43.7856   43.7856   43.8593   43.8593   44.0034   44.0034   44.2439   44.2439
   44.6494   44.6494   44.7297   44.7297   45.0086   45.0086   45.3100   45.3100   46.1159   46.1159
   46.3283   46.3283   46.8100   46.8100   47.1613   47.1613   48.6613   48.6613   48.9498   48.9498
   49.4140   49.4140   50.3446   50.3446   50.4655   50.4655   50.7445   50.7445   50.8878   50.8878
   51.3380   51.3380   51.6211   51.6211   52.6723   52.6723   52.7096   52.7096   54.1673   54.1673
   54.2291   54.2291   54.6092   54.6092   54.6872   54.6872   55.8084   55.8084   55.8361   55.8361
   55.8552   55.8552   56.0115   56.0115   56.5212   56.5212   57.8330   57.8330   58.1863   58.1863
   58.6413   58.6413   60.1051   60.1051   60.5054   60.5054   60.5271   60.5271   61.1248   61.1248
   61.8421   61.8421   61.9507   61.9507   62.1904   62.1904   64.4515   64.4515   66.4776   66.4776
   67.1107   67.1107   67.1635   67.1635   68.2140   68.2140   68.6957   68.6957   70.8136   70.8136
   74.0126   74.0126   79.9933   79.9933   91.0177   91.0177   91.9365   91.9365   93.3351   93.3351
   98.3773   98.3773   98.7379   98.7379   99.6917   99.6917  103.3385  103.3385  103.7371  103.7371
  110.0475  110.0475  111.5930  111.5930  123.6036  123.6036  125.7242  125.7242  129.9051  129.9051
  134.9841  134.9841  138.2235  138.2235
siesta: Fermi energy =      -3.780115 eV

siesta: Program's energy decomposition (eV):
siesta: Ebs     =     -1135.767133
siesta: Eions   =      3585.165840
siesta: Ena     =       382.019161
siesta: Ekin    =      2903.141225
siesta: Enl     =     -2787.903326
siesta: Eso     =        -0.004284
siesta: Edftu   =         0.000000
siesta: DEna    =        46.986554
siesta: DUscf   =        14.359139
siesta: DUext   =         0.000000
siesta: Exc     =     -1119.720281
siesta: eta*DQ  =         0.000000
siesta: Emadel  =         0.000000
siesta: Emeta   =         0.000000
siesta: Emolmec =         0.000000
siesta: Ekinion =         0.000000
siesta: Eharris =     -4146.287652
siesta: Etot    =     -4146.287652
siesta: FreeEng =     -4146.287652

siesta: Final energy (eV):
siesta:  Band Struct. =   -1135.767133
siesta:       Kinetic =    2903.141225
siesta:       Hartree =    8124.777396
siesta:       Edftu   =       0.000000
siesta:       Eso     =      -0.004284
siesta:    Ext. field =       0.000000
siesta:   Exch.-corr. =   -1119.720281
siesta:  Ion-electron =  -18834.941307
siesta:       Ion-ion =    4780.459599
siesta:       Ekinion =       0.000000
siesta:         Total =   -4146.287652
siesta:         Fermi =      -3.780115

siesta: Atomic forces (eV/Ang):
siesta:      1    3.142520    0.597672    0.000000
siesta:      2    0.016277    0.031683   -0.000000
siesta:      3    0.826525   -0.447205    0.000000
siesta:      4    0.809230   -0.019813   -0.000000
siesta:      5    0.046354   -0.103405    0.000000
siesta:      6    1.847042    0.650425    0.000000
siesta:      7    0.040042   -0.269872   -0.000000
siesta:      8   -0.460414    0.314763    0.000000
siesta:      9   -0.228369    1.339837    0.000000
siesta:     10   -1.147653    0.382910   -0.000000
siesta:     11   -0.028173   -0.018940   -0.000000
siesta:     12   -0.352165   -0.237013   -0.000000
siesta:     13    0.016766   -0.083671    0.000000
siesta:     14    0.202929   -0.059829   -0.000000
siesta:     15   -1.391201   -0.971925   -0.000000
siesta:     16   -0.090796    0.150634    0.000000
siesta:     17    1.111969   -1.182582   -0.000000
siesta:     18   -0.234315    0.213150    0.000000
siesta:     19   -0.188348   -1.372582    0.000000
siesta:     20   -0.010478   -0.459517   -0.000000
siesta:     21   -0.369889    1.079394    0.000000
siesta:     22   -2.283717   -0.883065    0.000000
siesta:     23    0.280292    0.623267   -0.000000
siesta:     24    0.073890    0.077071    0.000000
siesta:     25    0.102745    0.006150    0.000000
siesta:     26   -0.254823   -0.162846   -0.000000
siesta:     27    1.655361    1.434796    0.000000
siesta:     28   -2.251184    3.481916   -0.000000
siesta:     29    0.050912    0.096381   -0.000000
siesta: ----------------------------------------
siesta:    Tot    0.931327    4.207785    0.000000

siesta: Stress tensor (static) (eV/Ang**3):
siesta:    -0.000072    0.000751   -0.000000
siesta:     0.000751    0.000864   -0.000000
siesta:     0.000000   -0.000000   -0.000056

siesta: Cell volume =       6141.152280 Ang**3

siesta: Pressure (static):
siesta:                Solid            Molecule  Units
siesta:          -0.00000267          0.00001259  Ry/Bohr**3
siesta:          -0.00024525          0.00115637  eV/Ang**3
siesta:          -0.39294161          1.85273416  kBar
(Free)E+ p_basis*V_orbitals  =       -4126.437235
(Free)Eharris+ p_basis*V_orbitals  =       -4126.437235
     spin moment: S , {S} =    0.00000  -0.00000  -0.00000   0.00000

siesta: Electric dipole (a.u.)  =    1.504757   -0.015410   -0.000000
siesta: Electric dipole (Debye) =    3.824714   -0.039169   -0.000000

cite: Please see "GC.bib" for an exhaustive BiBTeX file.
cite: Please clearly indicate Siesta version in published work: v4.1.5-1-g384057250
cite: This calculation has made use of the following articles
cite: which are encouraged to be cited in a published work.
        Primary SIESTA paper
          DOI: www.doi.org/10.1088/0953-8984/14/11/302
        Spin-orbit coupling (on-site approximation)
          DOI: www.doi.org/10.1088/0953-8984/19/19/489001


WARNING: alloc-realloc-dealloc name mismatch
         Name: atomlist isa
         Size:              -116. Bytes
         Node:     0
         Subsequent mismatches will not be reported
>> End of run:  28-JUN-2023  16:51:54
Job completed
