Siesta Version  : v4.1.5-1-g384057250
Architecture    : gcc
Compiler version: GNU Fortran (Ubuntu 11.3.0-1ubuntu1~22.04) 11.3.0
Compiler flags  : mpifort -O2 -fPIC -ftree-vectorize -fallow-argument-mismatch
PP flags        : -DFC_HAVE_ABORT -DMPI -DSIESTA__FLOOK -DSIESTA__METIS -DSIESTA__MUMPS -DCDF -DNCDF -DNCDF_4 -DNCDF_PARALLEL -DSIESTA__MRRR -DSIESTA__ELPA
Libraries       : libncdf.a libfdict.a  -lflookall -ldl -lnetcdff -lnetcdf -lhdf5_hl -lhdf5 -lhdf5_fortran -lz -lscalapack-openmpi -lopenblas -lmetis -lzmumps -lcmumps -ldmumps -lmumps_common -lpord -lsmumps -lesmumps -lscotch -lscotcherr -fopenmp -lelpa
PARALLEL version
NetCDF support
NetCDF-4 support
NetCDF-4 MPI-IO support
METIS ordering support
Lua support

* Running on 4 nodes in parallel
>> Start of run:   4-JUL-2023   9:08:14

                           ***********************       
                           *  WELCOME TO SIESTA  *       
                           ***********************       

reinit: Reading from standard input
reinit: Dumped input in INPUT_TMP.21351
************************** Dump of input data file ****************************
SystemLabel      GC
NumberOfAtoms    29
NumberOfSpecies  4
%block ChemicalSpeciesLabel
    1    8  O
    2    7  N
    3   14  Si
    4    1  H
%endblock ChemicalSpeciesLabel
# Single point calculation
MD.TypeOfRun                CG
MD.Steps                    0
SCF.MustConverge            F # In case it does not. There can be 2 very close atoms
AtomicCoordinatesFormat NotScaledCartesianAng
%block AtomicCoordinatesAndAtomicSpecies
0.958671510    3.803529300    0.000000000       1
-3.038688210   0.998073330    0.000000000       2
2.066567750    1.099065770    0.000000000       2
1.029569860    -1.834680850   0.000000000       2
-2.108567660   -1.881798240   0.000000000       2
3.912411070    -1.180894430   0.000000000       2
-1.235636790   1.044983000    0.000000000       3
-0.501909240   -1.031832280   0.000000000       3
0.629463280    2.232755840    0.000000000       3
2.280054370    -0.658293540   0.000000000       3
-3.424812990   -0.662324160   0.000000000       3
2.965974160    1.682263990    0.000000000       4
-4.796229390   -1.238728480   0.000000000       4
4.096559410    -2.214148760   0.000000000       4
4.792108680    -0.529147250   0.000000000       4
-2.266861300   -2.922393730   0.000000000       4
4.425560733    4.745010618    0.000000000       3
6.351038483    5.936639948    0.000000000       3
5.886232093    2.010456248    0.000000000       3
7.957412013    4.457502838    0.000000000       3
4.527845273    3.035655928    0.000000000       2
2.846182643    5.415240108    0.000000000       2
7.539301993    2.725619928    0.000000000       2
6.659529303    7.401301308    0.000000000       4
9.449084923    4.657482298    0.000000000       4
2.661556203    6.450113838    0.000000000       4
1.954090853    4.743951378    0.000000000       4
5.876101493    0.412227728    0.000000000       1
8.315900373    2.003789728    0.000000000       4
%endblock AtomicCoordinatesAndAtomicSpecies
%include ../../../Defaults.fdf
************************** End of input data file *****************************

reinit: -----------------------------------------------------------------------
reinit: System Name: 
reinit: -----------------------------------------------------------------------
reinit: System Label: GC
reinit: -----------------------------------------------------------------------

initatom: Reading input for the pseudopotentials and atomic orbitals ----------
Species number:   1 Atomic number:    8 Label: O
Species number:   2 Atomic number:    7 Label: N
Species number:   3 Atomic number:   14 Label: Si
Species number:   4 Atomic number:    1 Label: H

Ground state valence configuration:   2s02  2p04
Reading pseudopotential information in formatted form from O.psf

Pseudopotential generated from a relativistic atomic calculation

Valence configuration for pseudopotential generation:
2s( 2.00) rc: 0.45
2p( 4.00) rc: 0.92
3d( 0.00) rc: 2.24
4f( 0.00) rc: 0.25
Ground state valence configuration:   2s02  2p03
Reading pseudopotential information in formatted form from N.psf

Pseudopotential generated from a relativistic atomic calculation

Valence configuration for pseudopotential generation:
2s( 2.00) rc: 0.94
2p( 3.00) rc: 0.59
3d( 0.00) rc: 3.46
4f( 0.00) rc: 2.47
Ground state valence configuration:   3s02  3p02
Reading pseudopotential information in formatted form from Si.psf

Pseudopotential generated from a relativistic atomic calculation

Valence configuration for pseudopotential generation:
3s( 2.00) rc: 1.67
3p( 2.00) rc: 2.04
3d( 0.00) rc: 2.89
4f( 0.00) rc: 2.49
Ground state valence configuration:   1s01
Reading pseudopotential information in formatted form from H.psf

Pseudopotential generated from a relativistic atomic calculation

Valence configuration for pseudopotential generation:
1s( 1.00) rc: 0.01
2p( 0.00) rc: 0.60
3d( 0.00) rc: 1.99
4f( 0.00) rc: 2.49
For O, standard SIESTA heuristics set lmxkb to 3
 (one more than the basis l, including polarization orbitals).
Use PS.lmax or PS.KBprojectors blocks to override.
For N, standard SIESTA heuristics set lmxkb to 3
 (one more than the basis l, including polarization orbitals).
Use PS.lmax or PS.KBprojectors blocks to override.
For Si, standard SIESTA heuristics set lmxkb to 3
 (one more than the basis l, including polarization orbitals).
Use PS.lmax or PS.KBprojectors blocks to override.
For H, standard SIESTA heuristics set lmxkb to 2
 (one more than the basis l, including polarization orbitals).
Use PS.lmax or PS.KBprojectors blocks to override.

<basis_specs>
===============================================================================
O                    Z=   8    Mass=  16.000        Charge= 0.17977+309
Lmxo=1 Lmxkb= 3    BasisType=split      Semic=F
L=0  Nsemic=0  Cnfigmx=2
          i=1  nzeta=2  polorb=0  (2s)
            splnorm:   0.28000    
               vcte:    0.0000    
               rinn:    0.0000    
               qcoe:    0.0000    
               qyuk:    0.0000    
               qwid:   0.10000E-01
                rcs:    0.0000      0.0000    
            lambdas:    1.0000      1.0000    
L=1  Nsemic=0  Cnfigmx=2
          i=1  nzeta=2  polorb=1  (2p)
            splnorm:   0.28000    
               vcte:    0.0000    
               rinn:    0.0000    
               qcoe:    0.0000    
               qyuk:    0.0000    
               qwid:   0.10000E-01
                rcs:    0.0000      0.0000    
            lambdas:    1.0000      1.0000    
-------------------------------------------------------------------------------
L=0  Nkbl=1  erefs: 0.17977+309
L=1  Nkbl=1  erefs: 0.17977+309
L=2  Nkbl=1  erefs: 0.17977+309
L=3  Nkbl=1  erefs: 0.17977+309
===============================================================================
</basis_specs>

atom: Called for O                     (Z =   8)

read_vps: Pseudopotential generation method:
read_vps: ATM4.2.7  Troullier-Martins                       
Valence charge for ps generation:    6.00000

xc_check: Exchange-correlation functional:
xc_check: GGA Perdew, Burke & Ernzerhof 1996
V l=0 = -2*Zval/r beyond r=  1.1000
V l=1 = -2*Zval/r beyond r=  1.1000
V l=2 = -2*Zval/r beyond r=  2.2154
V l=3 = -2*Zval/r beyond r=  1.1000
All V_l potentials equal beyond r=  2.2154
This should be close to max(r_c) in ps generation
All pots = -2*Zval/r beyond r=  2.2154

VLOCAL1: 99.0% of the norm of Vloc inside      8.845 Ry
VLOCAL1: 99.9% of the norm of Vloc inside     20.157 Ry
atom: Maximum radius for 4*pi*r*r*local-pseudopot. charge    2.67231
atom: Maximum radius for r*vlocal+2*Zval:    2.32897
GHOST: No ghost state for L =  0
GHOST: No ghost state for L =  1
GHOST: No ghost state for L =  2
GHOST: No ghost state for L =  3

KBgen: Kleinman-Bylander projectors: 
   l= 0   rc=  2.243238   el= -1.759686   Ekb=**********   kbcos= -0.171774
   l= 1   rc=  2.328968   el= -0.663873   Ekb=-14.506792   kbcos= -0.519897
   l= 2   rc=  2.573941   el=  0.002031   Ekb= -1.137373   kbcos= -0.019581
   l= 3   rc=  2.606321   el=  0.003153   Ekb= -1.013546   kbcos= -0.003122

KBgen: Total number of Kleinman-Bylander projectors:   16
atom: -------------------------------------------------------------------------

atom: SANKEY-TYPE ORBITALS:
atom: Selected multiple-zeta basis: split     

SPLIT: Orbitals with angular momentum L= 0

SPLIT: Basis orbitals for state 2s

SPLIT: PAO cut-off radius determined from an
SPLIT: energy shift=  0.002000 Ry

   izeta = 1
                 lambda =    1.000000
                     rc =    4.243912
                 energy =   -1.758270
                kinetic =    3.286084
    potential(screened) =   -5.044353
       potential(ionic) =  -12.921184

   izeta = 2
                 rmatch =    2.187845
              splitnorm =    0.280000
                 energy =   -0.885018
                kinetic =    8.134434
    potential(screened) =   -9.019452
       potential(ionic) =  -17.710645

SPLIT: Orbitals with angular momentum L= 1

SPLIT: Basis orbitals for state 2p

SPLIT: PAO cut-off radius determined from an
SPLIT: energy shift=  0.002000 Ry

   izeta = 1
                 lambda =    1.000000
                     rc =    5.314825
                 energy =   -0.661986
                kinetic =    4.917472
    potential(screened) =   -5.579458
       potential(ionic) =  -13.236259

   izeta = 2
                 rmatch =    2.160663
              splitnorm =    0.280000
                 energy =   -0.068760
                kinetic =    9.183374
    potential(screened) =   -9.252135
       potential(ionic) =  -18.274251

POLgen: Perturbative polarization orbital with L=  2

POLgen: Polarization orbital for state 2p

   izeta = 1
                     rc =    5.314825
                 energy =    1.970580
                kinetic =    3.886128
    potential(screened) =   -1.915547
       potential(ionic) =   -7.749584
atom: Total number of Sankey-type orbitals: 13

atm_pop: Valence configuration (for local Pseudopot. screening):
 2s( 2.00)                                                            
 2p( 4.00)                                                            
Vna: chval, zval:    6.00000   6.00000

Vna:  Cut-off radius for the neutral-atom potential:   5.314825

atom: _________________________________________________________________________

<basis_specs>
===============================================================================
N                    Z=   7    Mass=  14.010        Charge= 0.17977+309
Lmxo=1 Lmxkb= 3    BasisType=split      Semic=F
L=0  Nsemic=0  Cnfigmx=2
          i=1  nzeta=2  polorb=0  (2s)
            splnorm:   0.28000    
               vcte:    0.0000    
               rinn:    0.0000    
               qcoe:    0.0000    
               qyuk:    0.0000    
               qwid:   0.10000E-01
                rcs:    0.0000      0.0000    
            lambdas:    1.0000      1.0000    
L=1  Nsemic=0  Cnfigmx=2
          i=1  nzeta=2  polorb=1  (2p)
            splnorm:   0.28000    
               vcte:    0.0000    
               rinn:    0.0000    
               qcoe:    0.0000    
               qyuk:    0.0000    
               qwid:   0.10000E-01
                rcs:    0.0000      0.0000    
            lambdas:    1.0000      1.0000    
-------------------------------------------------------------------------------
L=0  Nkbl=1  erefs: 0.17977+309
L=1  Nkbl=1  erefs: 0.17977+309
L=2  Nkbl=1  erefs: 0.17977+309
L=3  Nkbl=1  erefs: 0.17977+309
===============================================================================
</basis_specs>

atom: Called for N                     (Z =   7)

read_vps: Pseudopotential generation method:
read_vps: ATM4.2.7  Troullier-Martins                       
Valence charge for ps generation:    5.00000

xc_check: Exchange-correlation functional:
xc_check: GGA Perdew, Burke & Ernzerhof 1996
V l=0 = -2*Zval/r beyond r=  1.2889
V l=1 = -2*Zval/r beyond r=  1.2889
V l=2 = -2*Zval/r beyond r=  3.4178
V l=3 = -2*Zval/r beyond r=  2.4084
All V_l potentials equal beyond r=  3.3753
This should be close to max(r_c) in ps generation
All pots = -2*Zval/r beyond r=  3.4178

VLOCAL1: 99.0% of the norm of Vloc inside      3.810 Ry
VLOCAL1: 99.9% of the norm of Vloc inside      8.683 Ry
atom: Maximum radius for 4*pi*r*r*local-pseudopot. charge    4.02088
atom: Maximum radius for r*vlocal+2*Zval:    3.54838
GHOST: No ghost state for L =  0
GHOST: No ghost state for L =  1
GHOST: No ghost state for L =  2
GHOST: No ghost state for L =  3

KBgen: Kleinman-Bylander projectors: 
   l= 0   rc=  3.417763   el= -1.365098   Ekb= -4.433130   kbcos= -0.707855
   l= 1   rc=  3.375302   el= -0.521201   Ekb=-13.264039   kbcos= -0.535594
   l= 2   rc=  3.872880   el=  0.001991   Ekb= -0.641094   kbcos= -0.062456
   l= 3   rc=  3.970931   el=  0.003093   Ekb= -0.474517   kbcos= -0.018236

KBgen: Total number of Kleinman-Bylander projectors:   16
atom: -------------------------------------------------------------------------

atom: SANKEY-TYPE ORBITALS:
atom: Selected multiple-zeta basis: split     

SPLIT: Orbitals with angular momentum L= 0

SPLIT: Basis orbitals for state 2s

SPLIT: PAO cut-off radius determined from an
SPLIT: energy shift=  0.002000 Ry

   izeta = 1
                 lambda =    1.000000
                     rc =    4.730425
                 energy =   -1.363399
                kinetic =    1.245246
    potential(screened) =   -2.608645
       potential(ionic) =   -8.121105

   izeta = 2
                 rmatch =    2.531849
              splitnorm =    0.280000
                 energy =   -0.959908
                kinetic =    2.409435
    potential(screened) =   -3.369343
       potential(ionic) =   -9.427975

SPLIT: Orbitals with angular momentum L= 1

SPLIT: Basis orbitals for state 2p

SPLIT: PAO cut-off radius determined from an
SPLIT: energy shift=  0.002000 Ry

   izeta = 1
                 lambda =    1.000000
                     rc =    5.924108
                 energy =   -0.519262
                kinetic =    3.672940
    potential(screened) =   -4.192202
       potential(ionic) =   -9.518354

   izeta = 2
                 rmatch =    2.531849
              splitnorm =    0.280000
                 energy =   -0.104258
                kinetic =    6.807538
    potential(screened) =   -6.911796
       potential(ionic) =  -13.149920

POLgen: Perturbative polarization orbital with L=  2

POLgen: Polarization orbital for state 2p

   izeta = 1
                     rc =    5.924108
                 energy =    1.427508
                kinetic =    2.872379
    potential(screened) =   -1.444871
       potential(ionic) =   -5.563644
atom: Total number of Sankey-type orbitals: 13

atm_pop: Valence configuration (for local Pseudopot. screening):
 2s( 2.00)                                                            
 2p( 3.00)                                                            
Vna: chval, zval:    5.00000   5.00000

Vna:  Cut-off radius for the neutral-atom potential:   5.924108

atom: _________________________________________________________________________

<basis_specs>
===============================================================================
Si                   Z=  14    Mass=  28.090        Charge= 0.17977+309
Lmxo=1 Lmxkb= 3    BasisType=split      Semic=F
L=0  Nsemic=0  Cnfigmx=3
          i=1  nzeta=2  polorb=0  (3s)
            splnorm:   0.28000    
               vcte:    0.0000    
               rinn:    0.0000    
               qcoe:    0.0000    
               qyuk:    0.0000    
               qwid:   0.10000E-01
                rcs:    0.0000      0.0000    
            lambdas:    1.0000      1.0000    
L=1  Nsemic=0  Cnfigmx=3
          i=1  nzeta=2  polorb=1  (3p)
            splnorm:   0.28000    
               vcte:    0.0000    
               rinn:    0.0000    
               qcoe:    0.0000    
               qyuk:    0.0000    
               qwid:   0.10000E-01
                rcs:    0.0000      0.0000    
            lambdas:    1.0000      1.0000    
-------------------------------------------------------------------------------
L=0  Nkbl=1  erefs: 0.17977+309
L=1  Nkbl=1  erefs: 0.17977+309
L=2  Nkbl=1  erefs: 0.17977+309
L=3  Nkbl=1  erefs: 0.17977+309
===============================================================================
</basis_specs>

atom: Called for Si                    (Z =  14)

read_vps: Pseudopotential generation method:
read_vps: ATM4.2.7  Troullier-Martins                       
Valence charge for ps generation:    4.00000

xc_check: Exchange-correlation functional:
xc_check: GGA Perdew, Burke & Ernzerhof 1996
V l=0 = -2*Zval/r beyond r=  2.7826
V l=1 = -2*Zval/r beyond r=  2.7826
V l=2 = -2*Zval/r beyond r=  2.9253
V l=3 = -2*Zval/r beyond r=  2.7826
All V_l potentials equal beyond r=  2.8530
This should be close to max(r_c) in ps generation
All pots = -2*Zval/r beyond r=  2.9253

VLOCAL1: 99.0% of the norm of Vloc inside      5.333 Ry
VLOCAL1: 99.9% of the norm of Vloc inside     12.154 Ry
atom: Maximum radius for 4*pi*r*r*local-pseudopot. charge    3.39869
atom: Maximum radius for r*vlocal+2*Zval:    2.96205
GHOST: No ghost state for L =  0
GHOST: No ghost state for L =  1
GHOST: No ghost state for L =  2
GHOST: No ghost state for L =  3

KBgen: Kleinman-Bylander projectors: 
   l= 0   rc=  3.075247   el= -0.794092   Ekb=  5.879390   kbcos=  0.167461
   l= 1   rc=  3.153101   el= -0.300068   Ekb=  2.642817   kbcos=  0.058301
   l= 2   rc=  3.273594   el=  0.001958   Ekb= -1.185135   kbcos= -0.104411
   l= 3   rc=  3.232927   el=  0.003046   Ekb= -0.497174   kbcos= -0.015889

KBgen: Total number of Kleinman-Bylander projectors:   16
atom: -------------------------------------------------------------------------

atom: SANKEY-TYPE ORBITALS:
atom: Selected multiple-zeta basis: split     

SPLIT: Orbitals with angular momentum L= 0

SPLIT: Basis orbitals for state 3s

SPLIT: PAO cut-off radius determined from an
SPLIT: energy shift=  0.002000 Ry

   izeta = 1
                 lambda =    1.000000
                     rc =    6.429618
                 energy =   -0.792283
                kinetic =    0.525293
    potential(screened) =   -1.317576
       potential(ionic) =   -3.744923

   izeta = 2
                 rmatch =    3.998416
              splitnorm =    0.280000
                 energy =   -0.583081
                kinetic =    1.069570
    potential(screened) =   -1.652651
       potential(ionic) =   -4.235185

SPLIT: Orbitals with angular momentum L= 1

SPLIT: Basis orbitals for state 3p

SPLIT: PAO cut-off radius determined from an
SPLIT: energy shift=  0.002000 Ry

   izeta = 1
                 lambda =    1.000000
                     rc =    8.464845
                 energy =   -0.298236
                kinetic =    0.785360
    potential(screened) =   -1.083596
       potential(ionic) =   -3.273779

   izeta = 2
                 rmatch =    4.587816
              splitnorm =    0.280000
                 energy =   -0.131871
                kinetic =    1.403687
    potential(screened) =   -1.535557
       potential(ionic) =   -4.015310

POLgen: Perturbative polarization orbital with L=  2

POLgen: Polarization orbital for state 3p

   izeta = 1
                     rc =    8.464845
                 energy =    0.321949
                kinetic =    1.055677
    potential(screened) =   -0.733728
       potential(ionic) =   -2.672950
atom: Total number of Sankey-type orbitals: 13

atm_pop: Valence configuration (for local Pseudopot. screening):
 3s( 2.00)                                                            
 3p( 2.00)                                                            
Vna: chval, zval:    4.00000   4.00000

Vna:  Cut-off radius for the neutral-atom potential:   8.464845

atom: _________________________________________________________________________

<basis_specs>
===============================================================================
H                    Z=   1    Mass=  1.0100        Charge= 0.17977+309
Lmxo=0 Lmxkb= 2    BasisType=split      Semic=F
L=0  Nsemic=0  Cnfigmx=1
          i=1  nzeta=2  polorb=1  (1s)
            splnorm:   0.62000    
               vcte:    0.0000    
               rinn:    0.0000    
               qcoe:    0.0000    
               qyuk:    0.0000    
               qwid:   0.10000E-01
                rcs:    0.0000      0.0000    
            lambdas:    1.0000      1.0000    
-------------------------------------------------------------------------------
L=0  Nkbl=1  erefs: 0.17977+309
L=1  Nkbl=1  erefs: 0.17977+309
L=2  Nkbl=1  erefs: 0.17977+309
===============================================================================
</basis_specs>

atom: Called for H                     (Z =   1)

read_vps: Pseudopotential generation method:
read_vps: ATM4.2.7  Troullier-Martins                       
Valence charge for ps generation:    1.00000

xc_check: Exchange-correlation functional:
xc_check: GGA Perdew, Burke & Ernzerhof 1996
V l=0 = -2*Zval/r beyond r=  0.0098
V l=1 = -2*Zval/r beyond r=  0.5817
V l=2 = -2*Zval/r beyond r=  1.9372
All V_l potentials equal beyond r=  1.9372
This should be close to max(r_c) in ps generation
All pots = -2*Zval/r beyond r=  1.9372

VLOCAL1: 99.0% of the norm of Vloc inside     11.567 Ry
VLOCAL1: 99.9% of the norm of Vloc inside     26.362 Ry
atom: Maximum radius for 4*pi*r*r*local-pseudopot. charge    2.25106
atom: Maximum radius for r*vlocal+2*Zval:    1.91306
GHOST: No ghost state for L =  0
GHOST: No ghost state for L =  1
GHOST: No ghost state for L =  2

KBgen: Kleinman-Bylander projectors: 
   l= 0   rc=  2.036604   el= -0.477180   Ekb= -6.081590   kbcos= -0.277285
   l= 1   rc=  2.195416   el=  0.001076   Ekb= -0.926943   kbcos= -0.034643
   l= 2   rc=  2.251056   el=  0.002010   Ekb= -0.130941   kbcos= -0.009788

KBgen: Total number of Kleinman-Bylander projectors:    9
atom: -------------------------------------------------------------------------

atom: SANKEY-TYPE ORBITALS:
atom: Selected multiple-zeta basis: split     

SPLIT: Orbitals with angular momentum L= 0

SPLIT: Basis orbitals for state 1s

SPLIT: PAO cut-off radius determined from an
SPLIT: energy shift=  0.002000 Ry

   izeta = 1
                 lambda =    1.000000
                     rc =    6.518340
                 energy =   -0.475305
                kinetic =    0.912139
    potential(screened) =   -1.387444
       potential(ionic) =   -1.907295

   izeta = 2
                 rmatch =    2.141150
              splitnorm =    0.620000
                 energy =    0.566467
                kinetic =    3.772856
    potential(screened) =   -3.206389
       potential(ionic) =   -3.759093

POLgen: Perturbative polarization orbital with L=  1

POLgen: Polarization orbital for state 1s

   izeta = 1
                     rc =    6.518340
                 energy =    0.533861
                kinetic =    1.121086
    potential(screened) =   -0.587225
       potential(ionic) =   -1.053027
atom: Total number of Sankey-type orbitals:  5

atm_pop: Valence configuration (for local Pseudopot. screening):
 1s( 1.00)                                                            
Vna: chval, zval:    1.00000   1.00000

Vna:  Cut-off radius for the neutral-atom potential:   6.518340

atom: _________________________________________________________________________

prinput: Basis input ----------------------------------------------------------

PAO.BasisType split     

%block ChemicalSpeciesLabel
    1    8 O                       # Species index, atomic number, species label
    2    7 N                       # Species index, atomic number, species label
    3   14 Si                      # Species index, atomic number, species label
    4    1 H                       # Species index, atomic number, species label
%endblock ChemicalSpeciesLabel

%block PAO.Basis                 # Define Basis set
O                     2                    # Species label, number of l-shells
 n=2   0   2                         # n, l, Nzeta 
   4.244      2.188   
   1.000      1.000   
 n=2   1   2 P   1                   # n, l, Nzeta, Polarization, NzetaPol
   5.315      2.161   
   1.000      1.000   
N                     2                    # Species label, number of l-shells
 n=2   0   2                         # n, l, Nzeta 
   4.730      2.532   
   1.000      1.000   
 n=2   1   2 P   1                   # n, l, Nzeta, Polarization, NzetaPol
   5.924      2.532   
   1.000      1.000   
Si                    2                    # Species label, number of l-shells
 n=3   0   2                         # n, l, Nzeta 
   6.430      3.998   
   1.000      1.000   
 n=3   1   2 P   1                   # n, l, Nzeta, Polarization, NzetaPol
   8.465      4.588   
   1.000      1.000   
H                     1                    # Species label, number of l-shells
 n=1   0   2 P   1                   # n, l, Nzeta, Polarization, NzetaPol
   6.518      2.141   
   1.000      1.000   
%endblock PAO.Basis

prinput: ----------------------------------------------------------------------

Dumping basis to NetCDF file O.ion.nc
Dumping basis to NetCDF file N.ion.nc
Dumping basis to NetCDF file Si.ion.nc
Dumping basis to NetCDF file H.ion.nc
coor:   Atomic-coordinates input format  =     Cartesian coordinates
coor:                                          (in Angstroms)

siesta: Atomic coordinates (Bohr) and species
siesta:      1.81163   7.18763   0.00000  1        1
siesta:     -5.74229   1.88609   0.00000  2        2
siesta:      3.90525   2.07693   0.00000  2        3
siesta:      1.94561  -3.46705   0.00000  2        4
siesta:     -3.98462  -3.55608   0.00000  2        5
siesta:      7.39339  -2.23157   0.00000  2        6
siesta:     -2.33502   1.97473   0.00000  3        7
siesta:     -0.94847  -1.94988   0.00000  3        8
siesta:      1.18951   4.21930   0.00000  3        9
siesta:      4.30868  -1.24399   0.00000  3       10
siesta:     -6.47196  -1.25161   0.00000  3       11
siesta:      5.60488   3.17902   0.00000  4       12
siesta:     -9.06356  -2.34086   0.00000  4       13
siesta:      7.74138  -4.18414   0.00000  4       14
siesta:      9.05578  -0.99994   0.00000  4       15
siesta:     -4.28375  -5.52253   0.00000  4       16
siesta:      8.36310   8.96677   0.00000  3       17
siesta:     12.00173  11.21863   0.00000  3       18
siesta:     11.12337   3.79921   0.00000  3       19
siesta:     15.03734   8.42346   0.00000  3       20
siesta:      8.55639   5.73656   0.00000  2       21
siesta:      5.37851  10.23332   0.00000  2       22
siesta:     14.24722   5.15068   0.00000  2       23
siesta:     12.58469  13.98644   0.00000  4       24
siesta:     17.85619   8.80137   0.00000  4       25
siesta:      5.02961  12.18895   0.00000  4       26
siesta:      3.69270   8.96477   0.00000  4       27
siesta:     11.10423   0.77900   0.00000  1       28
siesta:     15.71478   3.78662   0.00000  4       29

siesta: Automatic unit cell vectors (Ang):
siesta:   23.258429    0.000000    0.000000
siesta:    0.000000   18.944647    0.000000
siesta:    0.000000    0.000000    9.854683

siesta: System type = molecule  

initatomlists: Number of atoms, orbitals, and projectors:     29   297   394

siesta: ******************** Simulation parameters ****************************
siesta:
siesta: The following are some of the parameters of the simulation.
siesta: A complete list of the parameters used, including default values,
siesta: can be found in file out.fdf
siesta:
redata: Spin configuration                          = spin-orbit
redata: Number of spin components                   = 8
redata: Time-Reversal Symmetry                      = F
redata: Spin spiral                                 = F
############################################################
This spin-orbit implementation uses a local approximation.
From 4.2 and onwards the full non-local approximation is implemented
You are strongly advised to use >=4.2 versions!
############################################################
redata: Long output                                 =   F
redata: Number of Atomic Species                    =        4
redata: Charge density info will appear in .RHO file
redata: Write Mulliken Pop.                         = Atomic and Orbital charges
redata: Matel table size (NRTAB)                    =     1024
redata: Mesh Cutoff                                 =   340.0000 Ry
redata: Net charge of the system                    =     0.0000 |e|
redata: Min. number of SCF Iter                     =        1
redata: Max. number of SCF Iter                     =      200
redata: SCF mix quantity                            = Hamiltonian
redata: Mix DM or H after convergence               =   F
redata: Recompute H after scf cycle                 =   F
redata: Mix DM in first SCF step                    =   T
redata: Write Pulay info on disk                    =   F
redata: New DM Occupancy tolerance                  = 0.000000000001
redata: No kicks to SCF
redata: DM Mixing Weight for Kicks                  =     0.5000
redata: Require Harris convergence for SCF          =   F
redata: Harris energy tolerance for SCF             =     0.000100 eV
redata: Require DM convergence for SCF              =   T
redata: DM tolerance for SCF                        =     0.000008
redata: Require EDM convergence for SCF             =   F
redata: EDM tolerance for SCF                       =     0.001000 eV
redata: Require H convergence for SCF               =   T
redata: Hamiltonian tolerance for SCF               =     0.000001 eV
redata: Require (free) Energy convergence for SCF   =   F
redata: (free) Energy tolerance for SCF             =     0.000100 eV
redata: Using Saved Data (generic)                  =   F
redata: Use continuation files for DM               =   F
redata: Neglect nonoverlap interactions             =   F
redata: Method of Calculation                       = Diagonalization
redata: Electronic Temperature                      =   299.9978 K
redata: Fix the spin of the system                  =   F
redata: Dynamics option                             = Single-point calculation
mix.SCF: Pulay mixing                            = Pulay
mix.SCF:    Variant                              = stable
mix.SCF:    History steps                        = 6
mix.SCF:    Linear mixing weight                 =     0.250000
mix.SCF:    Mixing weight                        =     0.250000
mix.SCF:    SVD condition                        = 0.1000E-07
mix.SCF:    Restart steps                        = 24
mix.SCF:    Restart save steps                   = 3
mix.SCF: Spin-component mixing                   all
redata: Save all siesta data in one NC              =   F
redata: ***********************************************************************

%block SCF.Mixers
  Pulay
%endblock SCF.Mixers

%block SCF.Mixer.Pulay
  # Mixing method
  method pulay
  variant stable

  # Mixing options
  weight 0.2500
  weight.linear 0.2500
  history 6
  restart 24
  restart.save 3
%endblock SCF.Mixer.Pulay

DM_history_depth set to one: no extrapolation allowed by default for geometry relaxation
Size of DM history Fstack: 1
Total number of electrons:    98.000000
Total ionic charge:    98.000000

* ProcessorY, Blocksize:    2  24


* Orbital distribution balance (max,min):    81    72


Time-reversal symmetry not used.

siesta: k-grid: Number of k-points =     1
siesta: k-grid: Cutoff (effective) =     4.927 Ang
siesta: k-grid: Supercell and displacements
siesta: k-grid:    1   0   0      0.000
siesta: k-grid:    0   1   0      0.000
siesta: k-grid:    0   0   1      0.000

diag: Algorithm                                     = ELPA-1stage
diag: Parallel over k                               =   F
diag: Use parallel 2D distribution                  =   T
diag: Parallel block-size                           = 24
diag: Parallel distribution                         =     2 x     2
diag: Used triangular part                          = Lower
diag: Absolute tolerance                            =  0.100E-15
diag: Orthogonalization factor                      =  0.100E-05
diag: Memory factor                                 =  1.0000


ts: **************************************************************
ts: Save H and S matrices                           =    F
ts: Save DM and EDM matrices                        =    F
ts: Only save the overlap matrix S                  =    F
ts: **************************************************************

************************ Begin: TS CHECKS AND WARNINGS ************************
************************ End: TS CHECKS AND WARNINGS **************************


                     ====================================
                        Single-point calculation
                     ====================================

outcoor: Atomic coordinates (Ang):                          
    0.95867151    3.80352930    0.00000000   1       1  O
   -3.03868821    0.99807333    0.00000000   2       2  N
    2.06656775    1.09906577    0.00000000   2       3  N
    1.02956986   -1.83468085    0.00000000   2       4  N
   -2.10856766   -1.88179824    0.00000000   2       5  N
    3.91241107   -1.18089443    0.00000000   2       6  N
   -1.23563679    1.04498300    0.00000000   3       7  Si
   -0.50190924   -1.03183228    0.00000000   3       8  Si
    0.62946328    2.23275584    0.00000000   3       9  Si
    2.28005437   -0.65829354    0.00000000   3      10  Si
   -3.42481299   -0.66232416    0.00000000   3      11  Si
    2.96597416    1.68226399    0.00000000   4      12  H
   -4.79622939   -1.23872848    0.00000000   4      13  H
    4.09655941   -2.21414876    0.00000000   4      14  H
    4.79210868   -0.52914725    0.00000000   4      15  H
   -2.26686130   -2.92239373    0.00000000   4      16  H
    4.42556073    4.74501062    0.00000000   3      17  Si
    6.35103848    5.93663995    0.00000000   3      18  Si
    5.88623209    2.01045625    0.00000000   3      19  Si
    7.95741201    4.45750284    0.00000000   3      20  Si
    4.52784527    3.03565593    0.00000000   2      21  N
    2.84618264    5.41524011    0.00000000   2      22  N
    7.53930199    2.72561993    0.00000000   2      23  N
    6.65952930    7.40130131    0.00000000   4      24  H
    9.44908492    4.65748230    0.00000000   4      25  H
    2.66155620    6.45011384    0.00000000   4      26  H
    1.95409085    4.74395138    0.00000000   4      27  H
    5.87610149    0.41222773    0.00000000   1      28  O
    8.31590037    2.00378973    0.00000000   4      29  H

outcell: Unit cell vectors (Ang):
       23.258429    0.000000    0.000000
        0.000000   18.944647    0.000000
        0.000000    0.000000    9.854683

outcell: Cell vector modules (Ang)   :   23.258429   18.944647    9.854683
outcell: Cell angles (23,13,12) (deg):     90.0000     90.0000     90.0000
outcell: Cell volume (Ang**3)        :   4342.1974
<dSpData1D:S at geom step 0
  <sparsity:sparsity for geom step 0
    nrows_g=297 nrows=81 sparsity=.2385 nnzs=21039, refcount: 8>
  <dData1D:(new from dSpData1D) n=21039, refcount: 1>
refcount: 1>
new_DM -- step:     1
Initializing Density Matrix...
DM filled with atomic data:
<dSpData2D:DM initialized from atoms
  <sparsity:sparsity for geom step 0
    nrows_g=297 nrows=81 sparsity=.2385 nnzs=21039, refcount: 9>
  <dData2D:DM n=21039 m=8, refcount: 1>
refcount: 1>
     spin moment: S , {S} =   56.00000   0.00000   0.00000  56.00000
No. of atoms with KB's overlaping orbs in proc 0. Max # of overlaps:      29     214

Initializing spin-orbit part of the Hamiltonian
  Adding spin-orbit effects for O 
  Adding spin-orbit effects for N 
  Adding spin-orbit effects for Si
  Adding spin-orbit effects for H 


New grid distribution:   1
           1       1:  135    1:   54    1:   30
           2       1:  135    1:   54   31:   60
           3       1:  135   55:  108    1:   30
           4       1:  135   55:  108   31:   60

InitMesh: MESH =   270 x   216 x   120 =     6998400
InitMesh: (bp) =   135 x   108 x    60 =      874800
InitMesh: Mesh cutoff (required, used) =   340.000   359.283 Ry
ExtMesh (bp) on 0 =   243 x   158 x   142 =     5451948
New grid distribution:   2
           1      31:  135    1:   24    1:   60
           2       1:   30    1:   22    1:   60
           3      31:  135   25:  108    1:   60
           4       1:   30   23:  108    1:   60
New grid distribution:   3
           1      44:  135    1:   32    1:   60
           2       1:   43    1:   37    1:   60
           3      44:  135   33:  108    1:   60
           4       1:   43   38:  108    1:   60
Setting up quadratic distribution...
ExtMesh (bp) on 0 =   213 x   128 x   172 =     4689408
PhiOnMesh: Number of (b)points on node 0 =               151200
PhiOnMesh: nlist on node 0 =              2644488

stepf: Fermi-Dirac step function

siesta: Program's energy decomposition (eV):
siesta: Ebs     =      -610.680337
siesta: Eions   =      3585.165840
siesta: Ena     =       383.149888
siesta: Ekin    =      3372.367916
siesta: Enl     =     -3302.452665
siesta: Eso     =        -0.003480
siesta: Edftu   =         0.000000
siesta: DEna    =       155.536841
siesta: DUscf   =        78.229815
siesta: DUext   =         0.000000
siesta: Exc     =     -1205.974443
siesta: eta*DQ  =         0.000000
siesta: Emadel  =         0.000000
siesta: Emeta   =         0.000000
siesta: Emolmec =         0.000000
siesta: Ekinion =         0.000000
siesta: Eharris =     -4025.880123
siesta: Etot    =     -4104.311968
siesta: FreeEng =     -4104.313686

        iscf     Eharris(eV)        E_KS(eV)     FreeEng(eV)     dDmax    Ef(eV) dHmax(eV)
   scf:    1    -4025.880123    -4104.311968    -4104.313686  0.955609 -4.904131 19.606490
     spin moment: S , {S} =    2.01052   0.00000  -0.00000   2.01052
timer: Routine,Calls,Time,% = IterSCF        1      11.576  15.98
   scf:    2    -4150.804388    -4138.567912    -4138.569659  0.464463 -4.197325 10.914861
     spin moment: S , {S} =    1.98969   0.00000  -0.00000   1.98969
   scf:    3    -4112.394405    -4135.870216    -4135.890032  0.426930 -4.246902 11.322696
     spin moment: S , {S} =    2.00012   0.00000   0.00000   2.00012
   scf:    4    -4151.320693    -4146.458974    -4146.458975  0.304622 -3.865417  5.687371
     spin moment: S , {S} =    0.00009   0.00000  -0.00000   0.00009
   scf:    5    -4147.607054    -4147.122932    -4147.122932  0.038061 -3.674479  4.277728
     spin moment: S , {S} =    0.00006   0.00000   0.00000   0.00006
   scf:    6    -4147.924527    -4147.526144    -4147.526144  0.026595 -3.628680  2.036481
     spin moment: S , {S} =    0.00003  -0.00000  -0.00000   0.00003
   scf:    7    -4147.878511    -4147.703124    -4147.703124  0.021402 -3.754317  0.824940
     spin moment: S , {S} =    0.00001  -0.00000  -0.00000   0.00001
   scf:    8    -4147.816824    -4147.758629    -4147.758629  0.012193 -3.762711  0.428389
     spin moment: S , {S} =    0.00000  -0.00000  -0.00000   0.00000
   scf:    9    -4147.796060    -4147.776807    -4147.776807  0.006835 -3.784730  0.280637
     spin moment: S , {S} =    0.00000   0.00000  -0.00000   0.00000
   scf:   10    -4147.819989    -4147.795610    -4147.795610  0.014932 -3.794719  0.125032
     spin moment: S , {S} =    0.00000   0.00000  -0.00000  -0.00000
   scf:   11    -4147.799546    -4147.797450    -4147.797450  0.004902 -3.788502  0.054501
     spin moment: S , {S} =    0.00000  -0.00000  -0.00000   0.00000
   scf:   12    -4147.798645    -4147.798026    -4147.798026  0.002520 -3.784470  0.033651
     spin moment: S , {S} =    0.00000  -0.00000  -0.00000   0.00000
   scf:   13    -4147.798765    -4147.798373    -4147.798373  0.002129 -3.782745  0.027556
     spin moment: S , {S} =    0.00000  -0.00000  -0.00000   0.00000
   scf:   14    -4147.799077    -4147.798683    -4147.798683  0.002905 -3.781814  0.017169
     spin moment: S , {S} =    0.00000  -0.00000   0.00000   0.00000
   scf:   15    -4147.799053    -4147.798833    -4147.798833  0.002681 -3.782100  0.008641
     spin moment: S , {S} =    0.00000  -0.00000  -0.00000   0.00000
   scf:   16    -4147.798912    -4147.798864    -4147.798864  0.001326 -3.782463  0.004563
     spin moment: S , {S} =    0.00000  -0.00000  -0.00000   0.00000
   scf:   17    -4147.798878    -4147.798870    -4147.798870  0.000511 -3.782660  0.002672
     spin moment: S , {S} =    0.00000   0.00000  -0.00000   0.00000
   scf:   18    -4147.798875    -4147.798872    -4147.798872  0.000293 -3.782738  0.001421
     spin moment: S , {S} =    0.00000   0.00000  -0.00000  -0.00000
   scf:   19    -4147.798875    -4147.798873    -4147.798873  0.000177 -3.782733  0.000674
     spin moment: S , {S} =    0.00000  -0.00000  -0.00000  -0.00000
   scf:   20    -4147.798874    -4147.798874    -4147.798874  0.000076 -3.782672  0.000383
     spin moment: S , {S} =    0.00000  -0.00000  -0.00000  -0.00000
   scf:   21    -4147.798874    -4147.798874    -4147.798874  0.000087 -3.782622  0.000206
     spin moment: S , {S} =    0.00000   0.00000  -0.00000  -0.00000
   scf:   22    -4147.798874    -4147.798874    -4147.798874  0.000013 -3.782605  0.000092
     spin moment: S , {S} =    0.00000   0.00000  -0.00000  -0.00000
   scf:   23    -4147.798874    -4147.798874    -4147.798874  0.000006 -3.782602  0.000050
     spin moment: S , {S} =    0.00000  -0.00000  -0.00000  -0.00000
   scf:   24    -4147.798874    -4147.798874    -4147.798874  0.000007 -3.782598  0.000020
     spin moment: S , {S} =    0.00000   0.00000  -0.00000  -0.00000
mix: Pulay -- resetting history
   scf:   25    -4147.798874    -4147.798874    -4147.798874  0.000002 -3.782597  0.000013
     spin moment: S , {S} =    0.00000   0.00000  -0.00000   0.00000
   scf:   26    -4147.798874    -4147.798874    -4147.798874  0.000000 -3.782598  0.000009
     spin moment: S , {S} =    0.00000  -0.00000  -0.00000   0.00000
   scf:   27    -4147.798874    -4147.798874    -4147.798874  0.000001 -3.782598  0.000005
     spin moment: S , {S} =    0.00000  -0.00000  -0.00000   0.00000
   scf:   28    -4147.798874    -4147.798874    -4147.798874  0.000000 -3.782598  0.000002
     spin moment: S , {S} =    0.00000  -0.00000  -0.00000   0.00000
   scf:   29    -4147.798874    -4147.798874    -4147.798874  0.000000 -3.782598  0.000001
     spin moment: S , {S} =    0.00000  -0.00000  -0.00000   0.00000
   scf:   30    -4147.798874    -4147.798874    -4147.798874  0.000000 -3.782598  0.000001
     spin moment: S , {S} =    0.00000   0.00000  -0.00000  -0.00000

SCF Convergence by DM+H criterion
max |DM_out - DM_in|         :     0.0000002073
max |H_out - H_in|      (eV) :     0.0000007409
SCF cycle converged after 30 iterations

Using DM_out to compute the final energy and forces
No. of atoms with KB's overlaping orbs in proc 0. Max # of overlaps:      29     214

siesta: E_KS(eV) =            -4147.7989

siesta: E_KS - E_eggbox =     -4147.7989
     spin moment: S , {S} =    0.00000   0.00000  -0.00000  -0.00000

siesta: Atomic forces (eV/Ang):
     1   -3.158125   -1.845024   -0.000000
     2   -0.023021   -0.006473    0.000000
     3   -0.234225    0.007654    0.000000
     4   -0.194722    0.045358   -0.000000
     5   -0.008323    0.028044    0.000000
     6   -0.849273   -0.552531   -0.000000
     7   -0.005051    0.060083   -0.000000
     8    0.086680   -0.070565    0.000000
     9   -0.002663   -0.336016    0.000000
    10    0.196043   -0.127641   -0.000000
    11    0.006443    0.003892   -0.000000
    12    0.202456    0.134641   -0.000000
    13   -0.214733    0.019670    0.000000
    14   -0.062012   -0.179195    0.000000
    15    0.120042    0.242323    0.000000
    16   -0.007827   -0.139712   -0.000000
    17   -0.195599    0.305740    0.000000
    18    0.050116   -0.053650   -0.000000
    19    0.106451    0.263127   -0.000000
    20    0.008691    0.099868    0.000000
    21    0.129701   -0.183408    0.000000
    22    1.061287    0.692767    0.000000
    23   -0.085341   -0.134502    0.000000
    24   -0.065772    0.068697    0.000000
    25    0.065572   -0.042314   -0.000000
    26    0.150624    0.153802   -0.000000
    27   -0.194136   -0.398977    0.000000
    28   -2.174957    3.041380   -0.000000
    29    0.002254    0.051980    0.000000
----------------------------------------
   Tot   -5.289424    1.149019    0.000000
----------------------------------------
   Max    3.158125
   Res    0.597602    sqrt( Sum f_i^2 / 3N )
----------------------------------------
   Max    3.158125    constrained

Stress tensor Voigt[x,y,z,yz,xz,xy] (kbar):       -1.71       -1.75       -0.09        0.00        0.00       -1.52
(Free)E + p*V (eV/cell)    -4144.5949
Target enthalpy (eV/cell)    -4147.7989

mulliken: Atomic and Orbital Populations:

Species: O                   

Atom      Orb        Charge      Spin       Svec
----------------------------------------------------------------
    1  1 2s         1.69748   0.00000      0.000  -0.000   0.000
    1  2 2s         0.07219   0.00000     -0.000   0.000   0.000
    1  3 2py        1.32602   0.00000      0.000  -0.000  -0.000
    1  4 2pz        1.63486   0.00000      0.000   0.000   0.000
    1  5 2px        1.64795   0.00000      0.000  -0.000  -0.000
    1  6 2py        0.10280   0.00000     -0.000   0.000   0.000
    1  7 2pz       -0.01902   0.00000     -0.000  -0.000   0.000
    1  8 2px        0.00079   0.00000     -0.000   0.000   0.000
    1  9 3Pdxy      0.01048   0.00000      0.000  -0.000  -0.000
    1 10 3Pdyz      0.00712   0.00000     -0.000  -0.000   0.000
    1 11 3Pdz2      0.00242   0.00000      0.000  -0.000   0.000
    1 12 3Pdxz      0.00004   0.00000     -0.000  -0.000   0.000
    1 13 3Pdx2-y2   0.00491   0.00000      0.000  -0.000   0.000
    1     Total     6.48803   0.00000      0.000   0.000   0.000

   28  1 2s         1.71897   0.00000     -0.000   0.000   0.000
   28  2 2s         0.06507   0.00000      0.000  -0.000  -0.000
   28  3 2py        1.33027   0.00000      0.000   0.000  -0.000
   28  4 2pz        1.62052   0.00000     -0.000   0.000   0.000
   28  5 2px        1.66737   0.00000      0.000   0.000  -0.000
   28  6 2py        0.09397   0.00000     -0.000  -0.000   0.000
   28  7 2pz       -0.01694   0.00000      0.000  -0.000   0.000
   28  8 2px       -0.00408   0.00000     -0.000   0.000   0.000
   28  9 3Pdxy      0.01047   0.00000     -0.000   0.000   0.000
   28 10 3Pdyz      0.00810   0.00000      0.000  -0.000   0.000
   28 11 3Pdz2      0.00205   0.00000      0.000   0.000  -0.000
   28 12 3Pdxz      0.00003   0.00000     -0.000  -0.000  -0.000
   28 13 3Pdx2-y2   0.00626   0.00000     -0.000  -0.000   0.000
   28     Total     6.50205   0.00000     -0.000   0.000   0.000

----------------------------------------------------------------
Total              12.99008   0.00000     -0.000   0.000   0.000


Species: N                   

Atom      Orb        Charge      Spin       Svec
----------------------------------------------------------------
    2  1 2s         1.55362   0.00000      0.000   0.000   0.000
    2  2 2s         0.08368   0.00000     -0.000  -0.000   0.000
    2  3 2py        1.04115   0.00000     -0.000   0.000   0.000
    2  4 2pz        1.22491   0.00000     -0.000  -0.000   0.000
    2  5 2px        0.98784   0.00000     -0.000  -0.000   0.000
    2  6 2py        0.18849   0.00000     -0.000  -0.000  -0.000
    2  7 2pz        0.05629   0.00000      0.000   0.000  -0.000
    2  8 2px        0.19556   0.00000      0.000   0.000  -0.000
    2  9 3Pdxy      0.00855   0.00000     -0.000  -0.000   0.000
    2 10 3Pdyz      0.01120   0.00000      0.000   0.000  -0.000
    2 11 3Pdz2      0.00192   0.00000      0.000   0.000  -0.000
    2 12 3Pdxz      0.00761   0.00000     -0.000  -0.000  -0.000
    2 13 3Pdx2-y2   0.00930   0.00000      0.000   0.000   0.000
    2     Total     5.37013   0.00000     -0.000  -0.000   0.000

    3  1 2s         1.37832   0.00000     -0.000   0.000  -0.000
    3  2 2s         0.12542   0.00000      0.000  -0.000   0.000
    3  3 2py        0.93535   0.00000     -0.000  -0.000  -0.000
    3  4 2pz        1.53497   0.00000     -0.000   0.000  -0.000
    3  5 2px        1.06392   0.00000      0.000  -0.000  -0.000
    3  6 2py        0.25758   0.00000      0.000   0.000   0.000
    3  7 2pz        0.00589   0.00000      0.000  -0.000   0.000
    3  8 2px        0.19334   0.00000     -0.000   0.000   0.000
    3  9 3Pdxy      0.00408   0.00000     -0.000  -0.000   0.000
    3 10 3Pdyz      0.00385   0.00000      0.000   0.000   0.000
    3 11 3Pdz2      0.00042   0.00000     -0.000   0.000  -0.000
    3 12 3Pdxz      0.00285   0.00000     -0.000   0.000   0.000
    3 13 3Pdx2-y2   0.00241   0.00000     -0.000  -0.000  -0.000
    3     Total     5.50840   0.00000     -0.000   0.000  -0.000

    4  1 2s         1.46305   0.00000     -0.000  -0.000  -0.000
    4  2 2s         0.11888   0.00000      0.000   0.000   0.000
    4  3 2py        1.12913   0.00000     -0.000  -0.000  -0.000
    4  4 2pz        1.28948   0.00000      0.000   0.000  -0.000
    4  5 2px        0.82542   0.00000      0.000   0.000  -0.000
    4  6 2py        0.15098   0.00000     -0.000   0.000   0.000
    4  7 2pz        0.05382   0.00000     -0.000   0.000   0.000
    4  8 2px        0.29139   0.00000      0.000   0.000   0.000
    4  9 3Pdxy      0.00874   0.00000     -0.000   0.000  -0.000
    4 10 3Pdyz      0.01047   0.00000      0.000   0.000   0.000
    4 11 3Pdz2      0.00129   0.00000     -0.000   0.000  -0.000
    4 12 3Pdxz      0.00475   0.00000     -0.000  -0.000  -0.000
    4 13 3Pdx2-y2   0.00793   0.00000     -0.000  -0.000   0.000
    4     Total     5.35532   0.00000      0.000   0.000  -0.000

    5  1 2s         1.37156   0.00000      0.000   0.000   0.000
    5  2 2s         0.12992   0.00000     -0.000  -0.000   0.000
    5  3 2py        1.02762   0.00000     -0.000   0.000   0.000
    5  4 2pz        1.49837   0.00000     -0.000   0.000   0.000
    5  5 2px        1.05669   0.00000     -0.000  -0.000   0.000
    5  6 2py        0.20569   0.00000      0.000  -0.000   0.000
    5  7 2pz        0.01376   0.00000      0.000  -0.000  -0.000
    5  8 2px        0.20543   0.00000      0.000   0.000  -0.000
    5  9 3Pdxy      0.00387   0.00000     -0.000  -0.000  -0.000
    5 10 3Pdyz      0.00244   0.00000      0.000   0.000  -0.000
    5 11 3Pdz2      0.00141   0.00000     -0.000  -0.000  -0.000
    5 12 3Pdxz      0.00662   0.00000      0.000   0.000  -0.000
    5 13 3Pdx2-y2   0.00555   0.00000     -0.000  -0.000   0.000
    5     Total     5.52893   0.00000     -0.000   0.000   0.000

    6  1 2s         1.27377   0.00000     -0.000  -0.000  -0.000
    6  2 2s         0.17855   0.00000      0.000   0.000   0.000
    6  3 2py        1.06872   0.00000     -0.000   0.000  -0.000
    6  4 2pz        1.49464   0.00000     -0.000  -0.000  -0.000
    6  5 2px        0.98127   0.00000      0.000   0.000  -0.000
    6  6 2py        0.19616   0.00000      0.000  -0.000   0.000
    6  7 2pz        0.03649   0.00000      0.000   0.000   0.000
    6  8 2px        0.25647   0.00000     -0.000   0.000   0.000
    6  9 3Pdxy      0.00346   0.00000     -0.000  -0.000  -0.000
    6 10 3Pdyz     -0.00000   0.00000      0.000   0.000  -0.000
    6 11 3Pdz2      0.00193   0.00000      0.000   0.000  -0.000
    6 12 3Pdxz      0.00416   0.00000      0.000   0.000   0.000
    6 13 3Pdx2-y2   0.00454   0.00000      0.000  -0.000   0.000
    6     Total     5.50016   0.00000     -0.000  -0.000  -0.000

   21  1 2s         1.41249   0.00000      0.000   0.000  -0.000
   21  2 2s         0.12770   0.00000     -0.000  -0.000   0.000
   21  3 2py        0.89874   0.00000      0.000   0.000  -0.000
   21  4 2pz        1.33357   0.00000      0.000  -0.000  -0.000
   21  5 2px        1.15582   0.00000      0.000   0.000  -0.000
   21  6 2py        0.27012   0.00000     -0.000   0.000  -0.000
   21  7 2pz        0.04035   0.00000      0.000  -0.000   0.000
   21  8 2px        0.16224   0.00000     -0.000  -0.000  -0.000
   21  9 3Pdxy      0.00641   0.00000     -0.000   0.000  -0.000
   21 10 3Pdyz      0.00445   0.00000      0.000  -0.000   0.000
   21 11 3Pdz2     -0.00007   0.00000      0.000  -0.000  -0.000
   21 12 3Pdxz      0.00565   0.00000     -0.000   0.000  -0.000
   21 13 3Pdx2-y2   0.00583   0.00000      0.000  -0.000   0.000
   21     Total     5.42332   0.00000      0.000   0.000  -0.000

   22  1 2s         1.29859   0.00000      0.000   0.000   0.000
   22  2 2s         0.16971   0.00000     -0.000  -0.000  -0.000
   22  3 2py        1.06778   0.00000      0.000   0.000   0.000
   22  4 2pz        1.44888   0.00000      0.000  -0.000  -0.000
   22  5 2px        1.02515   0.00000      0.000  -0.000  -0.000
   22  6 2py        0.19889   0.00000     -0.000   0.000   0.000
   22  7 2pz        0.03596   0.00000      0.000   0.000   0.000
   22  8 2px        0.23162   0.00000     -0.000   0.000   0.000
   22  9 3Pdxy      0.00496   0.00000     -0.000  -0.000  -0.000
   22 10 3Pdyz      0.00007   0.00000      0.000   0.000  -0.000
   22 11 3Pdz2      0.00262   0.00000     -0.000  -0.000  -0.000
   22 12 3Pdxz      0.00450   0.00000      0.000  -0.000  -0.000
   22 13 3Pdx2-y2   0.00495   0.00000      0.000  -0.000  -0.000
   22     Total     5.49369   0.00000      0.000   0.000  -0.000

   23  1 2s         1.36370   0.00000     -0.000  -0.000   0.000
   23  2 2s         0.13381   0.00000      0.000   0.000   0.000
   23  3 2py        1.01026   0.00000     -0.000   0.000  -0.000
   23  4 2pz        1.53712   0.00000     -0.000   0.000   0.000
   23  5 2px        1.04430   0.00000      0.000   0.000  -0.000
   23  6 2py        0.21709   0.00000      0.000  -0.000   0.000
   23  7 2pz        0.00441   0.00000      0.000  -0.000   0.000
   23  8 2px        0.20629   0.00000     -0.000  -0.000   0.000
   23  9 3Pdxy      0.00519   0.00000     -0.000  -0.000  -0.000
   23 10 3Pdyz      0.00464   0.00000      0.000   0.000   0.000
   23 11 3Pdz2      0.00072   0.00000      0.000  -0.000   0.000
   23 12 3Pdxz      0.00242   0.00000      0.000  -0.000   0.000
   23 13 3Pdx2-y2   0.00149   0.00000     -0.000   0.000  -0.000
   23     Total     5.53143   0.00000     -0.000   0.000   0.000

----------------------------------------------------------------
Total              56.70146   0.00000      0.000   0.000   0.000


Species: Si                  

Atom      Orb        Charge      Spin       Svec
----------------------------------------------------------------
    7  1 3s         0.64032   0.00000      0.000  -0.000  -0.000
    7  2 3s         0.37692   0.00000     -0.000  -0.000  -0.000
    7  3 3py        0.46457   0.00000      0.000  -0.000   0.000
    7  4 3pz        0.68462   0.00000      0.000  -0.000  -0.000
    7  5 3px        0.10881   0.00000      0.000  -0.000  -0.000
    7  6 3py        0.28288   0.00000     -0.000  -0.000  -0.000
    7  7 3pz        0.26734   0.00000     -0.000  -0.000  -0.000
    7  8 3px        0.45139   0.00000     -0.000   0.000  -0.000
    7  9 3Pdxy      0.25249   0.00000     -0.000  -0.000  -0.000
    7 10 3Pdyz      0.02862   0.00000     -0.000  -0.000   0.000
    7 11 3Pdz2      0.01070   0.00000     -0.000   0.000  -0.000
    7 12 3Pdxz      0.15332   0.00000      0.000   0.000   0.000
    7 13 3Pdx2-y2   0.11135   0.00000      0.000   0.000  -0.000
    7     Total     3.83332   0.00000      0.000  -0.000  -0.000

    8  1 3s         0.65296   0.00000     -0.000  -0.000   0.000
    8  2 3s         0.37017   0.00000     -0.000  -0.000  -0.000
    8  3 3py        0.39829   0.00000      0.000  -0.000  -0.000
    8  4 3pz        0.49694   0.00000     -0.000  -0.000  -0.000
    8  5 3px       -0.01679   0.00000     -0.000  -0.000   0.000
    8  6 3py        0.30419   0.00000     -0.000   0.000   0.000
    8  7 3pz        0.20699   0.00000     -0.000  -0.000  -0.000
    8  8 3px        0.51185   0.00000      0.000   0.000  -0.000
    8  9 3Pdxy      0.24978   0.00000     -0.000   0.000   0.000
    8 10 3Pdyz      0.11169   0.00000     -0.000  -0.000   0.000
    8 11 3Pdz2      0.01391   0.00000     -0.000   0.000  -0.000
    8 12 3Pdxz      0.15802   0.00000      0.000  -0.000   0.000
    8 13 3Pdx2-y2   0.20312   0.00000      0.000  -0.000  -0.000
    8     Total     3.66113   0.00000     -0.000  -0.000  -0.000

    9  1 3s         0.58013   0.00000     -0.000   0.000   0.000
    9  2 3s         0.37690   0.00000      0.000   0.000   0.000
    9  3 3py        0.11192   0.00000      0.000   0.000   0.000
    9  4 3pz        0.46480   0.00000     -0.000   0.000   0.000
    9  5 3px        0.33644   0.00000     -0.000  -0.000   0.000
    9  6 3py        0.39884   0.00000     -0.000  -0.000   0.000
    9  7 3pz        0.19759   0.00000      0.000   0.000   0.000
    9  8 3px        0.29890   0.00000      0.000   0.000  -0.000
    9  9 3Pdxy      0.28262   0.00000      0.000   0.000   0.000
    9 10 3Pdyz      0.18748   0.00000     -0.000  -0.000   0.000
    9 11 3Pdz2      0.01002   0.00000     -0.000   0.000   0.000
    9 12 3Pdxz      0.11012   0.00000     -0.000   0.000   0.000
    9 13 3Pdx2-y2   0.17961   0.00000      0.000   0.000  -0.000
    9     Total     3.53536   0.00000     -0.000   0.000   0.000

   10  1 3s         0.48849   0.00000      0.000   0.000   0.000
   10  2 3s         0.37453   0.00000      0.000  -0.000  -0.000
   10  3 3py        0.24548   0.00000     -0.000   0.000   0.000
   10  4 3pz        0.42513   0.00000     -0.000  -0.000   0.000
   10  5 3px        0.09277   0.00000     -0.000   0.000  -0.000
   10  6 3py        0.31725   0.00000      0.000  -0.000  -0.000
   10  7 3pz        0.21507   0.00000      0.000   0.000   0.000
   10  8 3px        0.45102   0.00000      0.000  -0.000   0.000
   10  9 3Pdxy      0.18061   0.00000     -0.000   0.000   0.000
   10 10 3Pdyz      0.12848   0.00000      0.000  -0.000  -0.000
   10 11 3Pdz2      0.00915   0.00000      0.000   0.000   0.000
   10 12 3Pdxz      0.18703   0.00000     -0.000   0.000   0.000
   10 13 3Pdx2-y2   0.30773   0.00000      0.000  -0.000  -0.000
   10     Total     3.42274   0.00000      0.000  -0.000   0.000

   11  1 3s         0.55130   0.00000     -0.000   0.000  -0.000
   11  2 3s         0.38666   0.00000      0.000  -0.000  -0.000
   11  3 3py        0.31081   0.00000      0.000   0.000  -0.000
   11  4 3pz        0.52868   0.00000      0.000   0.000  -0.000
   11  5 3px        0.13145   0.00000     -0.000   0.000  -0.000
   11  6 3py        0.29934   0.00000     -0.000  -0.000  -0.000
   11  7 3pz        0.17980   0.00000      0.000  -0.000  -0.000
   11  8 3px        0.44292   0.00000     -0.000  -0.000   0.000
   11  9 3Pdxy      0.23602   0.00000     -0.000  -0.000  -0.000
   11 10 3Pdyz      0.12957   0.00000      0.000  -0.000  -0.000
   11 11 3Pdz2      0.00997   0.00000      0.000   0.000   0.000
   11 12 3Pdxz      0.05433   0.00000     -0.000  -0.000  -0.000
   11 13 3Pdx2-y2   0.19829   0.00000      0.000   0.000  -0.000
   11     Total     3.45916   0.00000      0.000   0.000  -0.000

   17  1 3s         0.64456   0.00000      0.000   0.000   0.000
   17  2 3s         0.35519   0.00000     -0.000  -0.000  -0.000
   17  3 3py        0.23399   0.00000     -0.000   0.000  -0.000
   17  4 3pz        0.43108   0.00000     -0.000   0.000  -0.000
   17  5 3px        0.22539   0.00000     -0.000  -0.000  -0.000
   17  6 3py        0.36072   0.00000      0.000  -0.000   0.000
   17  7 3pz        0.21326   0.00000      0.000   0.000   0.000
   17  8 3px        0.39341   0.00000      0.000   0.000   0.000
   17  9 3Pdxy      0.27612   0.00000      0.000   0.000  -0.000
   17 10 3Pdyz      0.13000   0.00000     -0.000  -0.000  -0.000
   17 11 3Pdz2      0.00758   0.00000      0.000  -0.000  -0.000
   17 12 3Pdxz      0.15085   0.00000     -0.000   0.000  -0.000
   17 13 3Pdx2-y2   0.18251   0.00000     -0.000  -0.000  -0.000
   17     Total     3.60465   0.00000     -0.000   0.000   0.000

   18  1 3s         0.75412   0.00000     -0.000  -0.000  -0.000
   18  2 3s         0.33923   0.00000      0.000   0.000   0.000
   18  3 3py        0.08250   0.00000      0.000   0.000  -0.000
   18  4 3pz        0.80165   0.00000      0.000  -0.000  -0.000
   18  5 3px        0.53873   0.00000     -0.000  -0.000  -0.000
   18  6 3py        0.51653   0.00000     -0.000  -0.000  -0.000
   18  7 3pz        0.19576   0.00000      0.000   0.000  -0.000
   18  8 3px        0.26241   0.00000      0.000   0.000  -0.000
   18  9 3Pdxy      0.10623   0.00000     -0.000  -0.000   0.000
   18 10 3Pdyz      0.02644   0.00000     -0.000  -0.000   0.000
   18 11 3Pdz2      0.00902   0.00000      0.000  -0.000   0.000
   18 12 3Pdxz      0.03324   0.00000     -0.000   0.000   0.000
   18 13 3Pdx2-y2   0.10425   0.00000     -0.000  -0.000  -0.000
   18     Total     3.77011   0.00000     -0.000  -0.000  -0.000

   19  1 3s         0.45100   0.00000     -0.000   0.000   0.000
   19  2 3s         0.36552   0.00000      0.000  -0.000  -0.000
   19  3 3py        0.08183   0.00000     -0.000  -0.000   0.000
   19  4 3pz        0.39493   0.00000      0.000  -0.000  -0.000
   19  5 3px        0.24581   0.00000     -0.000  -0.000   0.000
   19  6 3py        0.44565   0.00000     -0.000  -0.000  -0.000
   19  7 3pz        0.19771   0.00000     -0.000  -0.000   0.000
   19  8 3px        0.30859   0.00000      0.000   0.000  -0.000
   19  9 3Pdxy      0.31235   0.00000     -0.000   0.000  -0.000
   19 10 3Pdyz      0.18074   0.00000      0.000  -0.000  -0.000
   19 11 3Pdz2      0.01018   0.00000     -0.000  -0.000   0.000
   19 12 3Pdxz      0.10467   0.00000      0.000  -0.000  -0.000
   19 13 3Pdx2-y2   0.24293   0.00000     -0.000  -0.000   0.000
   19     Total     3.34192   0.00000     -0.000  -0.000   0.000

   20  1 3s         0.68168   0.00000     -0.000   0.000   0.000
   20  2 3s         0.37547   0.00000      0.000  -0.000   0.000
   20  3 3py        0.33926   0.00000     -0.000  -0.000   0.000
   20  4 3pz        0.61439   0.00000     -0.000  -0.000   0.000
   20  5 3px        0.13927   0.00000      0.000  -0.000   0.000
   20  6 3py        0.28071   0.00000      0.000  -0.000  -0.000
   20  7 3pz        0.16013   0.00000      0.000   0.000   0.000
   20  8 3px        0.50212   0.00000     -0.000  -0.000  -0.000
   20  9 3Pdxy      0.09882   0.00000     -0.000  -0.000   0.000
   20 10 3Pdyz      0.12804   0.00000      0.000   0.000   0.000
   20 11 3Pdz2      0.00747   0.00000     -0.000   0.000  -0.000
   20 12 3Pdxz      0.02686   0.00000      0.000   0.000  -0.000
   20 13 3Pdx2-y2   0.17605   0.00000      0.000   0.000   0.000
   20     Total     3.53027   0.00000      0.000   0.000   0.000

----------------------------------------------------------------
Total              88.86013   0.00000      0.000   0.000   0.000


Species: H                   

Atom      Orb        Charge      Spin       Svec
----------------------------------------------------------------
   12  1 1s         0.48161   0.00000     -0.000   0.000   0.000
   12  2 1s         0.17855   0.00000      0.000  -0.000   0.000
   12  3 2Ppy       0.04779   0.00000      0.000  -0.000  -0.000
   12  4 2Ppz       0.03243   0.00000     -0.000  -0.000  -0.000
   12  5 2Ppx       0.05361   0.00000      0.000  -0.000   0.000
   12     Total     0.79398   0.00000      0.000   0.000   0.000

   13  1 1s         1.01858   0.00000     -0.000   0.000   0.000
   13  2 1s         0.09718   0.00000      0.000   0.000  -0.000
   13  3 2Ppy       0.01915   0.00000      0.000  -0.000   0.000
   13  4 2Ppz       0.02012   0.00000      0.000   0.000  -0.000
   13  5 2Ppx       0.03328   0.00000      0.000  -0.000   0.000
   13     Total     1.18830   0.00000     -0.000   0.000   0.000

   14  1 1s         0.49464   0.00000      0.000  -0.000  -0.000
   14  2 1s         0.19491   0.00000     -0.000   0.000  -0.000
   14  3 2Ppy       0.02095   0.00000      0.000  -0.000   0.000
   14  4 2Ppz       0.04921   0.00000      0.000   0.000  -0.000
   14  5 2Ppx       0.02299   0.00000     -0.000   0.000  -0.000
   14     Total     0.78270   0.00000      0.000  -0.000  -0.000

   15  1 1s         0.41107   0.00000      0.000  -0.000   0.000
   15  2 1s         0.18445   0.00000     -0.000  -0.000  -0.000
   15  3 2Ppy       0.06294   0.00000     -0.000  -0.000   0.000
   15  4 2Ppz       0.05100   0.00000      0.000  -0.000  -0.000
   15  5 2Ppx       0.10167   0.00000     -0.000  -0.000  -0.000
   15     Total     0.81112   0.00000      0.000  -0.000   0.000

   16  1 1s         0.50374   0.00000     -0.000  -0.000  -0.000
   16  2 1s         0.19050   0.00000      0.000   0.000  -0.000
   16  3 2Ppy       0.02898   0.00000     -0.000  -0.000  -0.000
   16  4 2Ppz       0.03945   0.00000      0.000  -0.000  -0.000
   16  5 2Ppx       0.02419   0.00000     -0.000   0.000  -0.000
   16     Total     0.78687   0.00000     -0.000  -0.000  -0.000

   24  1 1s         1.05797   0.00000     -0.000  -0.000   0.000
   24  2 1s         0.07591   0.00000      0.000   0.000   0.000
   24  3 2Ppy       0.03072   0.00000     -0.000   0.000  -0.000
   24  4 2Ppz       0.03004   0.00000     -0.000  -0.000  -0.000
   24  5 2Ppx       0.01790   0.00000     -0.000  -0.000   0.000
   24     Total     1.21254   0.00000     -0.000  -0.000   0.000

   25  1 1s         1.04564   0.00000     -0.000   0.000  -0.000
   25  2 1s         0.08522   0.00000      0.000  -0.000   0.000
   25  3 2Ppy       0.01141   0.00000     -0.000  -0.000  -0.000
   25  4 2Ppz       0.01912   0.00000      0.000   0.000   0.000
   25  5 2Ppx       0.03584   0.00000      0.000   0.000   0.000
   25     Total     1.19723   0.00000     -0.000   0.000  -0.000

   26  1 1s         0.49977   0.00000     -0.000  -0.000  -0.000
   26  2 1s         0.19344   0.00000     -0.000   0.000  -0.000
   26  3 2Ppy       0.02376   0.00000      0.000  -0.000  -0.000
   26  4 2Ppz       0.04875   0.00000      0.000  -0.000  -0.000
   26  5 2Ppx       0.02274   0.00000     -0.000   0.000  -0.000
   26     Total     0.78845   0.00000     -0.000  -0.000  -0.000

   27  1 1s         0.39718   0.00000      0.000  -0.000   0.000
   27  2 1s         0.18401   0.00000     -0.000  -0.000   0.000
   27  3 2Ppy       0.07426   0.00000     -0.000   0.000  -0.000
   27  4 2Ppz       0.05024   0.00000     -0.000   0.000   0.000
   27  5 2Ppx       0.10757   0.00000      0.000   0.000  -0.000
   27     Total     0.81327   0.00000     -0.000   0.000   0.000

   29  1 1s         0.48987   0.00000     -0.000   0.000  -0.000
   29  2 1s         0.18815   0.00000      0.000  -0.000  -0.000
   29  3 2Ppy       0.02472   0.00000     -0.000   0.000  -0.000
   29  4 2Ppz       0.03497   0.00000     -0.000  -0.000  -0.000
   29  5 2Ppx       0.02769   0.00000      0.000  -0.000  -0.000
   29     Total     0.76540   0.00000      0.000   0.000  -0.000

----------------------------------------------------------------
Total              98.00000   0.00000      0.000  -0.000  -0.000


siesta: Eigenvalues (eV):
ik =     1
  -23.1437  -23.1437  -22.7497  -22.7497  -21.4944  -21.4944  -21.2743  -21.2743  -20.8729  -20.8729
  -20.5776  -20.5776  -20.1364  -20.1364  -19.6639  -19.6639  -19.4693  -19.4693  -19.3928  -19.3928
  -14.7659  -14.7659  -13.8608  -13.8608  -13.2921  -13.2921  -13.1242  -13.1242  -13.0648  -13.0648
  -12.7194  -12.7194  -12.5318  -12.5318  -12.1221  -12.1221  -11.9515  -11.9515  -11.8153  -11.8153
  -10.9928  -10.9928  -10.8102  -10.8102  -10.5689  -10.5689  -10.2964  -10.2964  -10.1745  -10.1745
   -9.7200   -9.7200   -9.1443   -9.1443   -8.9506   -8.9506   -8.8268   -8.8268   -8.7496   -8.7496
   -8.4529   -8.4529   -8.4160   -8.4160   -8.3001   -8.3001   -7.9700   -7.9700   -7.8131   -7.8131
   -7.5989   -7.5989   -7.4208   -7.4208   -7.3943   -7.3943   -7.1841   -7.1841   -6.9665   -6.9665
   -6.7775   -6.7775   -6.6645   -6.6645   -6.4717   -6.4717   -6.4218   -6.4218   -6.2299   -6.2299
   -5.9723   -5.9723   -5.9544   -5.9544   -5.5350   -5.5350   -4.3243   -4.3243   -3.2404   -3.2404
   -2.3614   -2.3614   -2.2573   -2.2573   -2.1708   -2.1708   -1.8993   -1.8993   -1.8928   -1.8928
   -1.8233   -1.8233   -1.6515   -1.6515   -1.5748   -1.5748   -1.1656   -1.1656   -1.0616   -1.0616
   -0.9249   -0.9249   -0.4867   -0.4867   -0.4426   -0.4426   -0.3006   -0.3006    0.4187    0.4187
    0.5089    0.5089    0.5465    0.5465    0.7210    0.7210    1.0615    1.0615    1.1531    1.1531
    1.3752    1.3752    1.4073    1.4073    1.5438    1.5438    1.6411    1.6411    2.0477    2.0477
    2.1282    2.1282    2.6686    2.6686    2.7140    2.7140    2.7744    2.7744    2.9053    2.9053
    3.0160    3.0160    3.1629    3.1629    3.4443    3.4443    3.4587    3.4587    3.7253    3.7253
    3.8714    3.8714    4.0691    4.0691    4.1480    4.1480    4.2906    4.2906    4.5705    4.5705
    4.5982    4.5982    4.7955    4.7955    4.8474    4.8474    5.0042    5.0042    5.3171    5.3171
    5.3329    5.3329    5.5713    5.5713    5.7393    5.7393    5.9166    5.9166    5.9850    5.9850
    6.0109    6.0109    6.4220    6.4220    6.4376    6.4376    6.5342    6.5342    6.7119    6.7119
    6.8965    6.8965    7.1270    7.1270    7.1879    7.1879    7.2167    7.2167    7.2434    7.2434
    7.4839    7.4839    7.7316    7.7316    7.7576    7.7576    8.0497    8.0497    8.0669    8.0669
    8.2404    8.2404    8.5833    8.5833    8.6491    8.6491    8.7814    8.7814    8.8219    8.8219
    8.8774    8.8774    9.1193    9.1193    9.2961    9.2961    9.5361    9.5361    9.5485    9.5485
    9.7787    9.7787    9.8630    9.8630   10.0357   10.0357   10.2286   10.2286   10.3071   10.3071
   10.4474   10.4474   10.7646   10.7646   11.0295   11.0295   11.3077   11.3077   11.4151   11.4151
   11.4342   11.4342   11.6427   11.6427   12.3607   12.3607   12.5048   12.5048   12.5515   12.5515
   12.6090   12.6090   12.7703   12.7703   13.2385   13.2385   13.2432   13.2432   13.3875   13.3875
   13.6591   13.6591   13.8925   13.8925   14.1230   14.1230   14.1796   14.1796   14.2298   14.2298
   14.6429   14.6429   14.7734   14.7734   15.1661   15.1661   15.3599   15.3599   15.3920   15.3920
   15.7009   15.7009   16.5858   16.5858   16.7670   16.7670   17.0064   17.0064   17.2361   17.2361
   17.3950   17.3950   17.8227   17.8227   18.7720   18.7720   18.8083   18.8083   19.1892   19.1892
   19.6813   19.6813   20.2439   20.2439   20.2570   20.2570   20.8363   20.8363   20.9658   20.9658
   21.3668   21.3668   22.0702   22.0702   22.4885   22.4885   23.0990   23.0990   23.3944   23.3944
   23.8823   23.8823   24.0942   24.0942   24.3224   24.3224   24.8638   24.8638   25.2395   25.2395
   26.2222   26.2222   26.3497   26.3497   27.0562   27.0562   27.9974   27.9974   28.9935   28.9935
   29.4488   29.4488   29.6067   29.6067   30.2296   30.2296   30.3897   30.3897   30.8748   30.8748
   30.9446   30.9446   30.9767   30.9767   31.4505   31.4505   31.7098   31.7098   31.7976   31.7976
   33.0924   33.0924   33.9630   33.9630   33.9976   33.9976   34.2115   34.2115   34.8592   34.8592
   35.4932   35.4932   35.6183   35.6183   36.4013   36.4013   36.5074   36.5074   36.8075   36.8075
   37.1201   37.1201   37.4686   37.4686   37.5496   37.5496   37.7315   37.7315   38.9395   38.9395
   39.0644   39.0644   39.4924   39.4924   39.6192   39.6192   40.1807   40.1807   40.4856   40.4856
   40.9607   40.9607   41.1021   41.1021   41.8111   41.8111   41.8960   41.8960   42.1352   42.1352
   42.4817   42.4817   43.1534   43.1534   43.3540   43.3540   43.5370   43.5370   43.8900   43.8900
   44.2415   44.2415   44.5183   44.5183   44.8011   44.8011   44.9195   44.9195   45.3095   45.3095
   45.4370   45.4370   46.0501   46.0501   46.4865   46.4865   46.8235   46.8235   46.9376   46.9376
   47.8695   47.8695   47.9644   47.9644   49.6813   49.6813   50.0659   50.0659   50.1659   50.1659
   50.3664   50.3664   50.6333   50.6333   50.6401   50.6401   51.3508   51.3508   52.2403   52.2403
   52.2468   52.2468   52.8726   52.8726   53.0908   53.0908   53.9755   53.9755   54.3393   54.3393
   54.6035   54.6035   55.2539   55.2539   55.8875   55.8875   56.1353   56.1353   56.8583   56.8583
   56.9563   56.9563   57.5343   57.5343   58.7721   58.7721   59.0038   59.0038   59.9820   59.9820
   60.5688   60.5688   60.5870   60.5870   61.4271   61.4271   62.2090   62.2090   62.6282   62.6282
   63.3353   63.3353   63.9196   63.9196   64.1647   64.1647   65.1256   65.1256   66.5911   66.5911
   67.8480   67.8480   68.5549   68.5549   70.9986   70.9986   71.4682   71.4682   71.7571   71.7571
   73.1773   73.1773   74.4004   74.4004   75.5424   75.5424   76.7825   76.7825   88.9041   88.9041
   91.3124   91.3124   92.0965   92.0965   95.3747   95.3747   98.2154   98.2154   98.4651   98.4651
  102.3699  102.3699  103.5045  103.5045  105.1543  105.1543  107.5750  107.5750  108.4571  108.4571
  117.0230  117.0230  118.8402  118.8402  126.1203  126.1203  128.8534  128.8534  140.3928  140.3928
  146.0559  146.0559  148.3373  148.3373
siesta: Fermi energy =      -3.782598 eV

siesta: Program's energy decomposition (eV):
siesta: Ebs     =     -1136.250234
siesta: Eions   =      3585.165840
siesta: Ena     =       383.149888
siesta: Ekin    =      2918.803026
siesta: Enl     =     -2801.999560
siesta: Eso     =        -0.004361
siesta: Edftu   =         0.000000
siesta: DEna    =        48.313191
siesta: DUscf   =        13.777403
siesta: DUext   =         0.000000
siesta: Exc     =     -1124.672621
siesta: eta*DQ  =         0.000000
siesta: Emadel  =         0.000000
siesta: Emeta   =         0.000000
siesta: Emolmec =         0.000000
siesta: Ekinion =         0.000000
siesta: Eharris =     -4147.798874
siesta: Etot    =     -4147.798874
siesta: FreeEng =     -4147.798874

siesta: Final energy (eV):
siesta:  Band Struct. =   -1136.250234
siesta:       Kinetic =    2918.803026
siesta:       Hartree =    9171.533992
siesta:       Edftu   =       0.000000
siesta:       Eso     =      -0.004361
siesta:    Ext. field =       0.000000
siesta:   Exch.-corr. =   -1124.672621
siesta:  Ion-electron =  -20937.869554
siesta:       Ion-ion =    5824.410645
siesta:       Ekinion =       0.000000
siesta:         Total =   -4147.798874
siesta:         Fermi =      -3.782598

siesta: Atomic forces (eV/Ang):
siesta:      1   -3.158125   -1.845024   -0.000000
siesta:      2   -0.023021   -0.006473    0.000000
siesta:      3   -0.234225    0.007654    0.000000
siesta:      4   -0.194722    0.045358   -0.000000
siesta:      5   -0.008323    0.028044    0.000000
siesta:      6   -0.849273   -0.552531   -0.000000
siesta:      7   -0.005051    0.060083   -0.000000
siesta:      8    0.086680   -0.070565    0.000000
siesta:      9   -0.002663   -0.336016    0.000000
siesta:     10    0.196043   -0.127641   -0.000000
siesta:     11    0.006443    0.003892   -0.000000
siesta:     12    0.202456    0.134641   -0.000000
siesta:     13   -0.214733    0.019670    0.000000
siesta:     14   -0.062012   -0.179195    0.000000
siesta:     15    0.120042    0.242323    0.000000
siesta:     16   -0.007827   -0.139712   -0.000000
siesta:     17   -0.195599    0.305740    0.000000
siesta:     18    0.050116   -0.053650   -0.000000
siesta:     19    0.106451    0.263127   -0.000000
siesta:     20    0.008691    0.099868    0.000000
siesta:     21    0.129701   -0.183408    0.000000
siesta:     22    1.061287    0.692767    0.000000
siesta:     23   -0.085341   -0.134502    0.000000
siesta:     24   -0.065772    0.068697    0.000000
siesta:     25    0.065572   -0.042314   -0.000000
siesta:     26    0.150624    0.153802   -0.000000
siesta:     27   -0.194136   -0.398977    0.000000
siesta:     28   -2.174957    3.041380   -0.000000
siesta:     29    0.002254    0.051980    0.000000
siesta: ----------------------------------------
siesta:    Tot   -5.289424    1.149019    0.000000

siesta: Stress tensor (static) (eV/Ang**3):
siesta:    -0.001065   -0.000946   -0.000000
siesta:    -0.000946   -0.001090   -0.000000
siesta:     0.000000    0.000000   -0.000059

siesta: Cell volume =       4342.197413 Ang**3

siesta: Pressure (static):
siesta:                Solid            Molecule  Units
siesta:           0.00000804          0.00000966  Ry/Bohr**3
siesta:           0.00073786          0.00088679  eV/Ang**3
siesta:           1.18219907          1.42081535  kBar
(Free)E+ p_basis*V_orbitals  =       -4127.948456
(Free)Eharris+ p_basis*V_orbitals  =       -4127.948456
     spin moment: S , {S} =    0.00000   0.00000  -0.00000  -0.00000

siesta: Electric dipole (a.u.)  =    1.617135    0.176651    0.000000
siesta: Electric dipole (Debye) =    4.110351    0.449002    0.000000

cite: Please see "GC.bib" for an exhaustive BiBTeX file.
cite: Please clearly indicate Siesta version in published work: v4.1.5-1-g384057250
cite: This calculation has made use of the following articles
cite: which are encouraged to be cited in a published work.
        Primary SIESTA paper
          DOI: www.doi.org/10.1088/0953-8984/14/11/302
        Spin-orbit coupling (on-site approximation)
          DOI: www.doi.org/10.1088/0953-8984/19/19/489001


WARNING: alloc-realloc-dealloc name mismatch
         Name: atomlist isa
         Size:              -116. Bytes
         Node:     0
         Subsequent mismatches will not be reported
>> End of run:   4-JUL-2023   9:12:53
Job completed
