Siesta Version  : v4.1.5-1-g384057250
Architecture    : gcc
Compiler version: GNU Fortran (Debian 10.2.1-6) 10.2.1 20210110
Compiler flags  : mpifort -O2 -fPIC -ftree-vectorize -fallow-argument-mismatch
PP flags        : -DFC_HAVE_ABORT -DMPI -DSIESTA__FLOOK -DSIESTA__METIS -DSIESTA__MUMPS -DCDF -DNCDF -DNCDF_4 -DNCDF_PARALLEL -DSIESTA__MRRR -DSIESTA__ELPA
Libraries       : libncdf.a libfdict.a  -lflookall -ldl -lnetcdff -lnetcdf -lhdf5_hl -lhdf5 -lhdf5_fortran -lz -lscalapack-openmpi -lopenblas -lmetis -lzmumps -lcmumps -ldmumps -lmumps_common -lpord -lsmumps -lesmumps -lscotch -lscotcherr -fopenmp -lelpa
PARALLEL version
NetCDF support
NetCDF-4 support
NetCDF-4 MPI-IO support
METIS ordering support
Lua support

* Running on 6 nodes in parallel
>> Start of run:  16-OCT-2023  18:08:33

                           ***********************       
                           *  WELCOME TO SIESTA  *       
                           ***********************       

reinit: Reading from standard input
reinit: Dumped input in INPUT_TMP.68783
************************** Dump of input data file ****************************
# mpirun -np 4 siesta-4.1.5 < GC.fdf > GC.out &
SystemLabel      GC
NumberOfAtoms    29
NumberOfSpecies  4
%block ChemicalSpeciesLabel
    1    1  H
    2    7  N
    3   14  Si
    4    8  O
%endblock ChemicalSpeciesLabel
############################################
# This overrides Defaults.fdf configuration
############################################
MD.TypeOfRun                CG # CG, Verlet
MD.Steps                    0
MaxSCFIterations            600
AtomicCoordinatesFormat NotScaledCartesianAng
%block AtomicCoordinatesAndAtomicSpecies
    1.3479715129171472 3.13080542455398 -0.0  1  1  H
    0.6414847829171473 2.34076924455398 -0.0  2  2  N
    -1.0888021270828527 2.78213315455398 0.0  3  3  Si
    -1.2445818070828527 4.2721254145539795 0.0  1  4  H
    -2.612123747082853 1.2232256345539798 -0.0  3  5  Si
    -4.0953113770828535 1.46605599455398 -0.0  1  6  H
    -1.4137328870828527 -0.6900505254460202 -0.0  3  7  Si
    -2.1797583470828528 -2.2227672654460204 -0.0  2  8  N
    -1.5895117970828527 -3.17998029544602 0.0  1  9  H
    -3.2313806670828527 -2.3032274954460203 -0.0  1  10  H
    0.3024671729171472 -0.6348762154460202 0.0  2  11  N
    1.3774897929171472 0.6954626245539799 -0.0  3  12  Si
    2.986163112917147 0.6766523645539799 -0.0  4  13  O
    5.6164483 -7.44953905 0.0  1  14  H
    4.58206954 -7.2320376 0.0  2  15  N
    3.29666389 -8.492636 0.0  3  16  Si
    3.80117524 -9.90371886 -0.0  1  17  H
    1.65934232 -8.01362137 0.0  2  18  N
    1.68097912 -6.20463398 -0.0  3  19  Si
    0.54543521 -4.28636135 0.0  3  20  Si
    -1.03431493 -3.94450034 0.0  4  21  O
    1.73226934 -2.87719605 0.0  2  22  N
    1.20957366 -1.92961761 -0.0  1  23  H
    3.50853448 -2.77677601 0.0  3  24  Si
    4.13684451 -1.17938608 0.0  2  25  N
    3.54296161 -0.26248101 0.0  1  26  H
    5.18364407 -1.05231197 -0.0  1  27  H
    4.63288658 -4.07521596 -0.0  2  28  N
    3.79410501 -5.58634043 0.0  3  29  Si
%endblock AtomicCoordinatesAndAtomicSpecies
%include ../../../../Defaults.fdf
************************** End of input data file *****************************

reinit: -----------------------------------------------------------------------
reinit: System Name: 
reinit: -----------------------------------------------------------------------
reinit: System Label: GC
reinit: -----------------------------------------------------------------------

initatom: Reading input for the pseudopotentials and atomic orbitals ----------
Species number:   1 Atomic number:    1 Label: H
Species number:   2 Atomic number:    7 Label: N
Species number:   3 Atomic number:   14 Label: Si
Species number:   4 Atomic number:    8 Label: O

Ground state valence configuration:   1s01
Reading pseudopotential information in formatted form from H.psf

Pseudopotential generated from a relativistic atomic calculation

Valence configuration for pseudopotential generation:
1s( 1.00) rc: 0.01
2p( 0.00) rc: 0.60
3d( 0.00) rc: 1.99
4f( 0.00) rc: 2.49
Ground state valence configuration:   2s02  2p03
Reading pseudopotential information in formatted form from N.psf

Pseudopotential generated from a relativistic atomic calculation

Valence configuration for pseudopotential generation:
2s( 2.00) rc: 0.94
2p( 3.00) rc: 0.59
3d( 0.00) rc: 3.46
4f( 0.00) rc: 2.47
Ground state valence configuration:   3s02  3p02
Reading pseudopotential information in formatted form from Si.psf

Pseudopotential generated from a relativistic atomic calculation

Valence configuration for pseudopotential generation:
3s( 2.00) rc: 1.67
3p( 2.00) rc: 2.04
3d( 0.00) rc: 2.89
4f( 0.00) rc: 2.49
Ground state valence configuration:   2s02  2p04
Reading pseudopotential information in formatted form from O.psf

Pseudopotential generated from a relativistic atomic calculation

Valence configuration for pseudopotential generation:
2s( 2.00) rc: 0.45
2p( 4.00) rc: 0.92
3d( 0.00) rc: 2.24
4f( 0.00) rc: 0.25
For H, standard SIESTA heuristics set lmxkb to 2
 (one more than the basis l, including polarization orbitals).
Use PS.lmax or PS.KBprojectors blocks to override.
For N, standard SIESTA heuristics set lmxkb to 3
 (one more than the basis l, including polarization orbitals).
Use PS.lmax or PS.KBprojectors blocks to override.
For Si, standard SIESTA heuristics set lmxkb to 3
 (one more than the basis l, including polarization orbitals).
Use PS.lmax or PS.KBprojectors blocks to override.
For O, standard SIESTA heuristics set lmxkb to 3
 (one more than the basis l, including polarization orbitals).
Use PS.lmax or PS.KBprojectors blocks to override.

<basis_specs>
===============================================================================
H                    Z=   1    Mass=  1.0100        Charge= 0.17977+309
Lmxo=0 Lmxkb= 2    BasisType=split      Semic=F
L=0  Nsemic=0  Cnfigmx=1
          i=1  nzeta=2  polorb=1  (1s)
            splnorm:   0.62000    
               vcte:    0.0000    
               rinn:    0.0000    
               qcoe:    0.0000    
               qyuk:    0.0000    
               qwid:   0.10000E-01
                rcs:    0.0000      0.0000    
            lambdas:    1.0000      1.0000    
-------------------------------------------------------------------------------
L=0  Nkbl=1  erefs: 0.17977+309
L=1  Nkbl=1  erefs: 0.17977+309
L=2  Nkbl=1  erefs: 0.17977+309
===============================================================================
</basis_specs>

atom: Called for H                     (Z =   1)

read_vps: Pseudopotential generation method:
read_vps: ATM4.2.7  Troullier-Martins                       
Valence charge for ps generation:    1.00000

xc_check: Exchange-correlation functional:
xc_check: GGA Perdew, Burke & Ernzerhof 1996
V l=0 = -2*Zval/r beyond r=  0.0098
V l=1 = -2*Zval/r beyond r=  0.5817
V l=2 = -2*Zval/r beyond r=  1.9372
All V_l potentials equal beyond r=  1.9372
This should be close to max(r_c) in ps generation
All pots = -2*Zval/r beyond r=  1.9372

VLOCAL1: 99.0% of the norm of Vloc inside     11.567 Ry
VLOCAL1: 99.9% of the norm of Vloc inside     26.362 Ry
atom: Maximum radius for 4*pi*r*r*local-pseudopot. charge    2.25106
atom: Maximum radius for r*vlocal+2*Zval:    1.91306
GHOST: No ghost state for L =  0
GHOST: No ghost state for L =  1
GHOST: No ghost state for L =  2

KBgen: Kleinman-Bylander projectors: 
   l= 0   rc=  2.036604   el= -0.477180   Ekb= -6.081590   kbcos= -0.277285
   l= 1   rc=  2.195416   el=  0.001076   Ekb= -0.926943   kbcos= -0.034643
   l= 2   rc=  2.251056   el=  0.002010   Ekb= -0.130941   kbcos= -0.009788

KBgen: Total number of Kleinman-Bylander projectors:    9
atom: -------------------------------------------------------------------------

atom: SANKEY-TYPE ORBITALS:
atom: Selected multiple-zeta basis: split     

SPLIT: Orbitals with angular momentum L= 0

SPLIT: Basis orbitals for state 1s

SPLIT: PAO cut-off radius determined from an
SPLIT: energy shift=  0.002000 Ry

   izeta = 1
                 lambda =    1.000000
                     rc =    6.518340
                 energy =   -0.475305
                kinetic =    0.912139
    potential(screened) =   -1.387444
       potential(ionic) =   -1.907295

   izeta = 2
                 rmatch =    2.141150
              splitnorm =    0.620000
                 energy =    0.566467
                kinetic =    3.772856
    potential(screened) =   -3.206389
       potential(ionic) =   -3.759093

POLgen: Perturbative polarization orbital with L=  1

POLgen: Polarization orbital for state 1s

   izeta = 1
                     rc =    6.518340
                 energy =    0.533861
                kinetic =    1.121086
    potential(screened) =   -0.587225
       potential(ionic) =   -1.053027
atom: Total number of Sankey-type orbitals:  5

atm_pop: Valence configuration (for local Pseudopot. screening):
 1s( 1.00)                                                            
Vna: chval, zval:    1.00000   1.00000

Vna:  Cut-off radius for the neutral-atom potential:   6.518340

atom: _________________________________________________________________________

<basis_specs>
===============================================================================
N                    Z=   7    Mass=  14.010        Charge= 0.17977+309
Lmxo=1 Lmxkb= 3    BasisType=split      Semic=F
L=0  Nsemic=0  Cnfigmx=2
          i=1  nzeta=2  polorb=0  (2s)
            splnorm:   0.28000    
               vcte:    0.0000    
               rinn:    0.0000    
               qcoe:    0.0000    
               qyuk:    0.0000    
               qwid:   0.10000E-01
                rcs:    0.0000      0.0000    
            lambdas:    1.0000      1.0000    
L=1  Nsemic=0  Cnfigmx=2
          i=1  nzeta=2  polorb=1  (2p)
            splnorm:   0.28000    
               vcte:    0.0000    
               rinn:    0.0000    
               qcoe:    0.0000    
               qyuk:    0.0000    
               qwid:   0.10000E-01
                rcs:    0.0000      0.0000    
            lambdas:    1.0000      1.0000    
-------------------------------------------------------------------------------
L=0  Nkbl=1  erefs: 0.17977+309
L=1  Nkbl=1  erefs: 0.17977+309
L=2  Nkbl=1  erefs: 0.17977+309
L=3  Nkbl=1  erefs: 0.17977+309
===============================================================================
</basis_specs>

atom: Called for N                     (Z =   7)

read_vps: Pseudopotential generation method:
read_vps: ATM4.2.7  Troullier-Martins                       
Valence charge for ps generation:    5.00000

xc_check: Exchange-correlation functional:
xc_check: GGA Perdew, Burke & Ernzerhof 1996
V l=0 = -2*Zval/r beyond r=  1.2889
V l=1 = -2*Zval/r beyond r=  1.2889
V l=2 = -2*Zval/r beyond r=  3.4178
V l=3 = -2*Zval/r beyond r=  2.4084
All V_l potentials equal beyond r=  3.3753
This should be close to max(r_c) in ps generation
All pots = -2*Zval/r beyond r=  3.4178

VLOCAL1: 99.0% of the norm of Vloc inside      3.810 Ry
VLOCAL1: 99.9% of the norm of Vloc inside      8.683 Ry
atom: Maximum radius for 4*pi*r*r*local-pseudopot. charge    4.02088
atom: Maximum radius for r*vlocal+2*Zval:    3.54838
GHOST: No ghost state for L =  0
GHOST: No ghost state for L =  1
GHOST: No ghost state for L =  2
GHOST: No ghost state for L =  3

KBgen: Kleinman-Bylander projectors: 
   l= 0   rc=  3.417763   el= -1.365098   Ekb= -4.433130   kbcos= -0.707855
   l= 1   rc=  3.375302   el= -0.521201   Ekb=-13.264039   kbcos= -0.535594
   l= 2   rc=  3.872880   el=  0.001991   Ekb= -0.641094   kbcos= -0.062456
   l= 3   rc=  3.970931   el=  0.003093   Ekb= -0.474517   kbcos= -0.018236

KBgen: Total number of Kleinman-Bylander projectors:   16
atom: -------------------------------------------------------------------------

atom: SANKEY-TYPE ORBITALS:
atom: Selected multiple-zeta basis: split     

SPLIT: Orbitals with angular momentum L= 0

SPLIT: Basis orbitals for state 2s

SPLIT: PAO cut-off radius determined from an
SPLIT: energy shift=  0.002000 Ry

   izeta = 1
                 lambda =    1.000000
                     rc =    4.730425
                 energy =   -1.363399
                kinetic =    1.245246
    potential(screened) =   -2.608645
       potential(ionic) =   -8.121105

   izeta = 2
                 rmatch =    2.531849
              splitnorm =    0.280000
                 energy =   -0.959908
                kinetic =    2.409435
    potential(screened) =   -3.369343
       potential(ionic) =   -9.427975

SPLIT: Orbitals with angular momentum L= 1

SPLIT: Basis orbitals for state 2p

SPLIT: PAO cut-off radius determined from an
SPLIT: energy shift=  0.002000 Ry

   izeta = 1
                 lambda =    1.000000
                     rc =    5.924108
                 energy =   -0.519262
                kinetic =    3.672940
    potential(screened) =   -4.192202
       potential(ionic) =   -9.518354

   izeta = 2
                 rmatch =    2.531849
              splitnorm =    0.280000
                 energy =   -0.104258
                kinetic =    6.807538
    potential(screened) =   -6.911796
       potential(ionic) =  -13.149920

POLgen: Perturbative polarization orbital with L=  2

POLgen: Polarization orbital for state 2p

   izeta = 1
                     rc =    5.924108
                 energy =    1.427508
                kinetic =    2.872379
    potential(screened) =   -1.444871
       potential(ionic) =   -5.563644
atom: Total number of Sankey-type orbitals: 13

atm_pop: Valence configuration (for local Pseudopot. screening):
 2s( 2.00)                                                            
 2p( 3.00)                                                            
Vna: chval, zval:    5.00000   5.00000

Vna:  Cut-off radius for the neutral-atom potential:   5.924108

atom: _________________________________________________________________________

<basis_specs>
===============================================================================
Si                   Z=  14    Mass=  28.090        Charge= 0.17977+309
Lmxo=1 Lmxkb= 3    BasisType=split      Semic=F
L=0  Nsemic=0  Cnfigmx=3
          i=1  nzeta=2  polorb=0  (3s)
            splnorm:   0.28000    
               vcte:    0.0000    
               rinn:    0.0000    
               qcoe:    0.0000    
               qyuk:    0.0000    
               qwid:   0.10000E-01
                rcs:    0.0000      0.0000    
            lambdas:    1.0000      1.0000    
L=1  Nsemic=0  Cnfigmx=3
          i=1  nzeta=2  polorb=1  (3p)
            splnorm:   0.28000    
               vcte:    0.0000    
               rinn:    0.0000    
               qcoe:    0.0000    
               qyuk:    0.0000    
               qwid:   0.10000E-01
                rcs:    0.0000      0.0000    
            lambdas:    1.0000      1.0000    
-------------------------------------------------------------------------------
L=0  Nkbl=1  erefs: 0.17977+309
L=1  Nkbl=1  erefs: 0.17977+309
L=2  Nkbl=1  erefs: 0.17977+309
L=3  Nkbl=1  erefs: 0.17977+309
===============================================================================
</basis_specs>

atom: Called for Si                    (Z =  14)

read_vps: Pseudopotential generation method:
read_vps: ATM4.2.7  Troullier-Martins                       
Valence charge for ps generation:    4.00000

xc_check: Exchange-correlation functional:
xc_check: GGA Perdew, Burke & Ernzerhof 1996
V l=0 = -2*Zval/r beyond r=  2.7826
V l=1 = -2*Zval/r beyond r=  2.7826
V l=2 = -2*Zval/r beyond r=  2.9253
V l=3 = -2*Zval/r beyond r=  2.7826
All V_l potentials equal beyond r=  2.8530
This should be close to max(r_c) in ps generation
All pots = -2*Zval/r beyond r=  2.9253

VLOCAL1: 99.0% of the norm of Vloc inside      5.333 Ry
VLOCAL1: 99.9% of the norm of Vloc inside     12.154 Ry
atom: Maximum radius for 4*pi*r*r*local-pseudopot. charge    3.39869
atom: Maximum radius for r*vlocal+2*Zval:    2.96205
GHOST: No ghost state for L =  0
GHOST: No ghost state for L =  1
GHOST: No ghost state for L =  2
GHOST: No ghost state for L =  3

KBgen: Kleinman-Bylander projectors: 
   l= 0   rc=  3.075247   el= -0.794092   Ekb=  5.879390   kbcos=  0.167461
   l= 1   rc=  3.153101   el= -0.300068   Ekb=  2.642817   kbcos=  0.058301
   l= 2   rc=  3.273594   el=  0.001958   Ekb= -1.185135   kbcos= -0.104411
   l= 3   rc=  3.232927   el=  0.003046   Ekb= -0.497174   kbcos= -0.015889

KBgen: Total number of Kleinman-Bylander projectors:   16
atom: -------------------------------------------------------------------------

atom: SANKEY-TYPE ORBITALS:
atom: Selected multiple-zeta basis: split     

SPLIT: Orbitals with angular momentum L= 0

SPLIT: Basis orbitals for state 3s

SPLIT: PAO cut-off radius determined from an
SPLIT: energy shift=  0.002000 Ry

   izeta = 1
                 lambda =    1.000000
                     rc =    6.429618
                 energy =   -0.792283
                kinetic =    0.525293
    potential(screened) =   -1.317576
       potential(ionic) =   -3.744923

   izeta = 2
                 rmatch =    3.998416
              splitnorm =    0.280000
                 energy =   -0.583081
                kinetic =    1.069570
    potential(screened) =   -1.652651
       potential(ionic) =   -4.235185

SPLIT: Orbitals with angular momentum L= 1

SPLIT: Basis orbitals for state 3p

SPLIT: PAO cut-off radius determined from an
SPLIT: energy shift=  0.002000 Ry

   izeta = 1
                 lambda =    1.000000
                     rc =    8.464845
                 energy =   -0.298236
                kinetic =    0.785360
    potential(screened) =   -1.083596
       potential(ionic) =   -3.273779

   izeta = 2
                 rmatch =    4.587816
              splitnorm =    0.280000
                 energy =   -0.131871
                kinetic =    1.403687
    potential(screened) =   -1.535557
       potential(ionic) =   -4.015310

POLgen: Perturbative polarization orbital with L=  2

POLgen: Polarization orbital for state 3p

   izeta = 1
                     rc =    8.464845
                 energy =    0.321949
                kinetic =    1.055677
    potential(screened) =   -0.733728
       potential(ionic) =   -2.672950
atom: Total number of Sankey-type orbitals: 13

atm_pop: Valence configuration (for local Pseudopot. screening):
 3s( 2.00)                                                            
 3p( 2.00)                                                            
Vna: chval, zval:    4.00000   4.00000

Vna:  Cut-off radius for the neutral-atom potential:   8.464845

atom: _________________________________________________________________________

<basis_specs>
===============================================================================
O                    Z=   8    Mass=  16.000        Charge= 0.17977+309
Lmxo=1 Lmxkb= 3    BasisType=split      Semic=F
L=0  Nsemic=0  Cnfigmx=2
          i=1  nzeta=2  polorb=0  (2s)
            splnorm:   0.28000    
               vcte:    0.0000    
               rinn:    0.0000    
               qcoe:    0.0000    
               qyuk:    0.0000    
               qwid:   0.10000E-01
                rcs:    0.0000      0.0000    
            lambdas:    1.0000      1.0000    
L=1  Nsemic=0  Cnfigmx=2
          i=1  nzeta=2  polorb=1  (2p)
            splnorm:   0.28000    
               vcte:    0.0000    
               rinn:    0.0000    
               qcoe:    0.0000    
               qyuk:    0.0000    
               qwid:   0.10000E-01
                rcs:    0.0000      0.0000    
            lambdas:    1.0000      1.0000    
-------------------------------------------------------------------------------
L=0  Nkbl=1  erefs: 0.17977+309
L=1  Nkbl=1  erefs: 0.17977+309
L=2  Nkbl=1  erefs: 0.17977+309
L=3  Nkbl=1  erefs: 0.17977+309
===============================================================================
</basis_specs>

atom: Called for O                     (Z =   8)

read_vps: Pseudopotential generation method:
read_vps: ATM4.2.7  Troullier-Martins                       
Valence charge for ps generation:    6.00000

xc_check: Exchange-correlation functional:
xc_check: GGA Perdew, Burke & Ernzerhof 1996
V l=0 = -2*Zval/r beyond r=  1.1000
V l=1 = -2*Zval/r beyond r=  1.1000
V l=2 = -2*Zval/r beyond r=  2.2154
V l=3 = -2*Zval/r beyond r=  1.1000
All V_l potentials equal beyond r=  2.2154
This should be close to max(r_c) in ps generation
All pots = -2*Zval/r beyond r=  2.2154

VLOCAL1: 99.0% of the norm of Vloc inside      8.845 Ry
VLOCAL1: 99.9% of the norm of Vloc inside     20.157 Ry
atom: Maximum radius for 4*pi*r*r*local-pseudopot. charge    2.67231
atom: Maximum radius for r*vlocal+2*Zval:    2.32897
GHOST: No ghost state for L =  0
GHOST: No ghost state for L =  1
GHOST: No ghost state for L =  2
GHOST: No ghost state for L =  3

KBgen: Kleinman-Bylander projectors: 
   l= 0   rc=  2.243238   el= -1.759686   Ekb=**********   kbcos= -0.171774
   l= 1   rc=  2.328968   el= -0.663873   Ekb=-14.506792   kbcos= -0.519897
   l= 2   rc=  2.573941   el=  0.002031   Ekb= -1.137373   kbcos= -0.019581
   l= 3   rc=  2.606321   el=  0.003153   Ekb= -1.013546   kbcos= -0.003122

KBgen: Total number of Kleinman-Bylander projectors:   16
atom: -------------------------------------------------------------------------

atom: SANKEY-TYPE ORBITALS:
atom: Selected multiple-zeta basis: split     

SPLIT: Orbitals with angular momentum L= 0

SPLIT: Basis orbitals for state 2s

SPLIT: PAO cut-off radius determined from an
SPLIT: energy shift=  0.002000 Ry

   izeta = 1
                 lambda =    1.000000
                     rc =    4.243912
                 energy =   -1.758270
                kinetic =    3.286084
    potential(screened) =   -5.044353
       potential(ionic) =  -12.921184

   izeta = 2
                 rmatch =    2.187845
              splitnorm =    0.280000
                 energy =   -0.885018
                kinetic =    8.134434
    potential(screened) =   -9.019452
       potential(ionic) =  -17.710645

SPLIT: Orbitals with angular momentum L= 1

SPLIT: Basis orbitals for state 2p

SPLIT: PAO cut-off radius determined from an
SPLIT: energy shift=  0.002000 Ry

   izeta = 1
                 lambda =    1.000000
                     rc =    5.314825
                 energy =   -0.661986
                kinetic =    4.917472
    potential(screened) =   -5.579458
       potential(ionic) =  -13.236259

   izeta = 2
                 rmatch =    2.160663
              splitnorm =    0.280000
                 energy =   -0.068760
                kinetic =    9.183374
    potential(screened) =   -9.252135
       potential(ionic) =  -18.274251

POLgen: Perturbative polarization orbital with L=  2

POLgen: Polarization orbital for state 2p

   izeta = 1
                     rc =    5.314825
                 energy =    1.970580
                kinetic =    3.886128
    potential(screened) =   -1.915547
       potential(ionic) =   -7.749584
atom: Total number of Sankey-type orbitals: 13

atm_pop: Valence configuration (for local Pseudopot. screening):
 2s( 2.00)                                                            
 2p( 4.00)                                                            
Vna: chval, zval:    6.00000   6.00000

Vna:  Cut-off radius for the neutral-atom potential:   5.314825

atom: _________________________________________________________________________

prinput: Basis input ----------------------------------------------------------

PAO.BasisType split     

%block ChemicalSpeciesLabel
    1    1 H                       # Species index, atomic number, species label
    2    7 N                       # Species index, atomic number, species label
    3   14 Si                      # Species index, atomic number, species label
    4    8 O                       # Species index, atomic number, species label
%endblock ChemicalSpeciesLabel

%block PAO.Basis                 # Define Basis set
H                     1                    # Species label, number of l-shells
 n=1   0   2 P   1                   # n, l, Nzeta, Polarization, NzetaPol
   6.518      2.141   
   1.000      1.000   
N                     2                    # Species label, number of l-shells
 n=2   0   2                         # n, l, Nzeta 
   4.730      2.532   
   1.000      1.000   
 n=2   1   2 P   1                   # n, l, Nzeta, Polarization, NzetaPol
   5.924      2.532   
   1.000      1.000   
Si                    2                    # Species label, number of l-shells
 n=3   0   2                         # n, l, Nzeta 
   6.430      3.998   
   1.000      1.000   
 n=3   1   2 P   1                   # n, l, Nzeta, Polarization, NzetaPol
   8.465      4.588   
   1.000      1.000   
O                     2                    # Species label, number of l-shells
 n=2   0   2                         # n, l, Nzeta 
   4.244      2.188   
   1.000      1.000   
 n=2   1   2 P   1                   # n, l, Nzeta, Polarization, NzetaPol
   5.315      2.161   
   1.000      1.000   
%endblock PAO.Basis

prinput: ----------------------------------------------------------------------

Dumping basis to NetCDF file H.ion.nc
Dumping basis to NetCDF file N.ion.nc
Dumping basis to NetCDF file Si.ion.nc
Dumping basis to NetCDF file O.ion.nc
coor:   Atomic-coordinates input format  =     Cartesian coordinates
coor:                                          (in Angstroms)

siesta: Atomic coordinates (Bohr) and species
siesta:      2.54730   5.91637  -0.00000  1        1
siesta:      1.21223   4.42341  -0.00000  2        2
siesta:     -2.05754   5.25747   0.00000  3        3
siesta:     -2.35192   8.07315   0.00000  1        4
siesta:     -4.93620   2.31156  -0.00000  3        5
siesta:     -7.73902   2.77045  -0.00000  1        6
siesta:     -2.67157  -1.30401  -0.00000  3        7
siesta:     -4.11915  -4.20042  -0.00000  2        8
siesta:     -3.00374  -6.00929   0.00000  1        9
siesta:     -6.10643  -4.35247  -0.00000  1       10
siesta:      0.57158  -1.19974   0.00000  2       11
siesta:      2.60308   1.31423  -0.00000  3       12
siesta:      5.64303   1.27869  -0.00000  4       13
siesta:     10.61355 -14.07759   0.00000  1       14
siesta:      8.65886 -13.66658   0.00000  2       15
siesta:      6.22979 -16.04876   0.00000  3       16
siesta:      7.18318 -18.71532  -0.00000  1       17
siesta:      3.13570 -15.14356   0.00000  2       18
siesta:      3.17659 -11.72506  -0.00000  3       19
siesta:      1.03072  -8.10005   0.00000  3       20
siesta:     -1.95457  -7.45403   0.00000  4       21
siesta:      3.27352  -5.43711   0.00000  2       22
siesta:      2.28576  -3.64645  -0.00000  1       23
siesta:      6.63017  -5.24735   0.00000  3       24
siesta:      7.81751  -2.22872   0.00000  2       25
siesta:      6.69523  -0.49602   0.00000  1       26
siesta:      9.79567  -1.98858  -0.00000  1       27
siesta:      8.75489  -7.70105  -0.00000  2       28
siesta:      7.16982 -10.55666   0.00000  3       29

siesta: Automatic unit cell vectors (Ang):
siesta:   18.271518    0.000000    0.000000
siesta:    0.000000   23.182011    0.000000
siesta:    0.000000    0.000000    9.854683

siesta: System type = molecule  

initatomlists: Number of atoms, orbitals, and projectors:     29   297   394

siesta: ******************** Simulation parameters ****************************
siesta:
siesta: The following are some of the parameters of the simulation.
siesta: A complete list of the parameters used, including default values,
siesta: can be found in file out.fdf
siesta:
redata: Spin configuration                          = spin-orbit
redata: Number of spin components                   = 8
redata: Time-Reversal Symmetry                      = F
redata: Spin spiral                                 = F
############################################################
This spin-orbit implementation uses a local approximation.
From 4.2 and onwards the full non-local approximation is implemented
You are strongly advised to use >=4.2 versions!
############################################################
redata: Long output                                 =   F
redata: Number of Atomic Species                    =        4
redata: Charge density info will appear in .RHO file
redata: Write Mulliken Pop.                         = NO
redata: Matel table size (NRTAB)                    =     1024
redata: Mesh Cutoff                                 =   340.0000 Ry
redata: Net charge of the system                    =     0.0000 |e|
redata: Min. number of SCF Iter                     =        1
redata: Max. number of SCF Iter                     =      600
redata: SCF convergence failure will abort job
redata: SCF mix quantity                            = Hamiltonian
redata: Mix DM or H after convergence               =   F
redata: Recompute H after scf cycle                 =   F
redata: Mix DM in first SCF step                    =   T
redata: Write Pulay info on disk                    =   F
redata: New DM Occupancy tolerance                  = 0.000000000001
redata: No kicks to SCF
redata: DM Mixing Weight for Kicks                  =     0.5000
redata: Require Harris convergence for SCF          =   F
redata: Harris energy tolerance for SCF             =     0.000100 eV
redata: Require DM convergence for SCF              =   T
redata: DM tolerance for SCF                        =     0.000008
redata: Require EDM convergence for SCF             =   F
redata: EDM tolerance for SCF                       =     0.001000 eV
redata: Require H convergence for SCF               =   T
redata: Hamiltonian tolerance for SCF               =     0.000001 eV
redata: Require (free) Energy convergence for SCF   =   F
redata: (free) Energy tolerance for SCF             =     0.000100 eV
redata: Using Saved Data (generic)                  =   F
redata: Use continuation files for DM               =   T
redata: Neglect nonoverlap interactions             =   F
redata: Method of Calculation                       = Diagonalization
redata: Electronic Temperature                      =   299.9978 K
redata: Fix the spin of the system                  =   F
redata: Dynamics option                             = Single-point calculation
mix.SCF: Pulay mixing                            = Pulay
mix.SCF:    Variant                              = stable
mix.SCF:    History steps                        = 6
mix.SCF:    Linear mixing weight                 =     0.250000
mix.SCF:    Mixing weight                        =     0.250000
mix.SCF:    SVD condition                        = 0.1000E-07
mix.SCF:    Restart steps                        = 24
mix.SCF:    Restart save steps                   = 3
mix.SCF: Spin-component mixing                   all
redata: Save all siesta data in one NC              =   F
redata: ***********************************************************************

%block SCF.Mixers
  Pulay
%endblock SCF.Mixers

%block SCF.Mixer.Pulay
  # Mixing method
  method pulay
  variant stable

  # Mixing options
  weight 0.2500
  weight.linear 0.2500
  history 6
  restart 24
  restart.save 3
%endblock SCF.Mixer.Pulay

DM_history_depth set to one: no extrapolation allowed by default for geometry relaxation
Size of DM history Fstack: 1
Total number of electrons:    98.000000
Total ionic charge:    98.000000

* ProcessorY, Blocksize:    2  24


* Orbital distribution balance (max,min):    57    48


Time-reversal symmetry not used.

siesta: k-grid: Number of k-points =     1
siesta: k-grid: Cutoff (effective) =     4.927 Ang
siesta: k-grid: Supercell and displacements
siesta: k-grid:    1   0   0      0.000
siesta: k-grid:    0   1   0      0.000
siesta: k-grid:    0   0   1      0.000

diag: Algorithm                                     = ELPA-1stage
diag: Parallel over k                               =   F
diag: Use parallel 2D distribution                  =   T
diag: Parallel block-size                           = 24
diag: Parallel distribution                         =     2 x     3
diag: Used triangular part                          = Lower
diag: Absolute tolerance                            =  0.100E-15
diag: Orthogonalization factor                      =  0.100E-05
diag: Memory factor                                 =  1.0000


ts: **************************************************************
ts: Save H and S matrices                           =    F
ts: Save DM and EDM matrices                        =    F
ts: Only save the overlap matrix S                  =    F
ts: **************************************************************

************************ Begin: TS CHECKS AND WARNINGS ************************
************************ End: TS CHECKS AND WARNINGS **************************


                     ====================================
                        Single-point calculation
                     ====================================

outcoor: Atomic coordinates (Ang):                          
    1.34797151    3.13080542    0.00000000   1       1  H
    0.64148478    2.34076924    0.00000000   2       2  N
   -1.08880213    2.78213315    0.00000000   3       3  Si
   -1.24458181    4.27212541    0.00000000   1       4  H
   -2.61212375    1.22322563    0.00000000   3       5  Si
   -4.09531138    1.46605599    0.00000000   1       6  H
   -1.41373289   -0.69005053    0.00000000   3       7  Si
   -2.17975835   -2.22276727    0.00000000   2       8  N
   -1.58951180   -3.17998030    0.00000000   1       9  H
   -3.23138067   -2.30322750    0.00000000   1      10  H
    0.30246717   -0.63487622    0.00000000   2      11  N
    1.37748979    0.69546262    0.00000000   3      12  Si
    2.98616311    0.67665236    0.00000000   4      13  O
    5.61644830   -7.44953905    0.00000000   1      14  H
    4.58206954   -7.23203760    0.00000000   2      15  N
    3.29666389   -8.49263600    0.00000000   3      16  Si
    3.80117524   -9.90371886    0.00000000   1      17  H
    1.65934232   -8.01362137    0.00000000   2      18  N
    1.68097912   -6.20463398    0.00000000   3      19  Si
    0.54543521   -4.28636135    0.00000000   3      20  Si
   -1.03431493   -3.94450034    0.00000000   4      21  O
    1.73226934   -2.87719605    0.00000000   2      22  N
    1.20957366   -1.92961761    0.00000000   1      23  H
    3.50853448   -2.77677601    0.00000000   3      24  Si
    4.13684451   -1.17938608    0.00000000   2      25  N
    3.54296161   -0.26248101    0.00000000   1      26  H
    5.18364407   -1.05231197    0.00000000   1      27  H
    4.63288658   -4.07521596    0.00000000   2      28  N
    3.79410501   -5.58634043    0.00000000   3      29  Si

outcell: Unit cell vectors (Ang):
       18.271518    0.000000    0.000000
        0.000000   23.182011    0.000000
        0.000000    0.000000    9.854683

outcell: Cell vector modules (Ang)   :   18.271518   23.182011    9.854683
outcell: Cell angles (23,13,12) (deg):     90.0000     90.0000     90.0000
outcell: Cell volume (Ang**3)        :   4174.1536
<dSpData1D:S at geom step 0
  <sparsity:sparsity for geom step 0
    nrows_g=297 nrows=57 sparsity=.1478 nnzs=13040, refcount: 8>
  <dData1D:(new from dSpData1D) n=13040, refcount: 1>
refcount: 1>
new_DM -- step:     1
Initializing Density Matrix...

Attempting to read DM from file... Failed...
DM filled with atomic data:
<dSpData2D:DM initialized from atoms
  <sparsity:sparsity for geom step 0
    nrows_g=297 nrows=57 sparsity=.1478 nnzs=13040, refcount: 9>
  <dData2D:DM n=13040 m=8, refcount: 1>
refcount: 1>
     spin moment: S , {S} =   56.00000   0.00000   0.00000  56.00000
No. of atoms with KB's overlaping orbs in proc 0. Max # of overlaps:      28     223

Initializing spin-orbit part of the Hamiltonian
  Adding spin-orbit effects for H 
  Adding spin-orbit effects for N 
  Adding spin-orbit effects for Si
  Adding spin-orbit effects for O 


New grid distribution:   1
           1       1:  108    1:   68    1:   20
           2       1:  108    1:   68   21:   40
           3       1:  108    1:   68   41:   60
           4       1:  108   69:  135    1:   20
           5       1:  108   69:  135   21:   40
           6       1:  108   69:  135   41:   60

InitMesh: MESH =   216 x   270 x   120 =     6998400
InitMesh: (bp) =   108 x   135 x    60 =      874800
InitMesh: Mesh cutoff (required, used) =   340.000   374.910 Ry
ExtMesh (bp) on 0 =   216 x   176 x   132 =     5018112
New grid distribution:   2
           1      16:  108    1:   68    1:   60
           2       1:   15    1:  106    1:   60
           3       1:   14  107:  135    1:   60
           4      15:  108  122:  135    1:   60
           5      16:  108   69:  106    1:   60
           6      15:  108  107:  121    1:   60
New grid distribution:   3
           1      21:  108   22:   89    1:   60
           2      21:  108    1:   21    1:   60
           3       1:   23   90:  135    1:   60
           4      24:  108  116:  135    1:   60
           5      24:  108   90:  115    1:   60
           6       1:   20    1:   89    1:   60
Setting up quadratic distribution...
ExtMesh (bp) on 0 =   201 x   176 x   172 =     6084672
PhiOnMesh: Number of (b)points on node 0 =               379440
PhiOnMesh: nlist on node 0 =              2269024

stepf: Fermi-Dirac step function

siesta: Program's energy decomposition (eV):
siesta: Ebs     =      -595.433135
siesta: Eions   =      3585.165840
siesta: Ena     =       388.808818
siesta: Ekin    =      3404.863198
siesta: Enl     =     -3334.230210
siesta: Eso     =        -0.003482
siesta: Edftu   =         0.000000
siesta: DEna    =       157.913453
siesta: DUscf   =        82.306352
siesta: DUext   =         0.000000
siesta: Exc     =     -1212.980689
siesta: eta*DQ  =         0.000000
siesta: Emadel  =         0.000000
siesta: Emeta   =         0.000000
siesta: Emolmec =         0.000000
siesta: Ekinion =         0.000000
siesta: Eharris =     -4005.940463
siesta: Etot    =     -4098.488400
siesta: FreeEng =     -4098.489598

        iscf     Eharris(eV)        E_KS(eV)     FreeEng(eV)     dDmax    Ef(eV) dHmax(eV)
   scf:    1    -4005.940463    -4098.488400    -4098.489598  0.960656 -4.914848 22.070429
     spin moment: S , {S} =    2.00653  -0.00000  -0.00000   2.00653
timer: Routine,Calls,Time,% = IterSCF        1       5.974  22.48
   scf:    2    -4148.572167    -4135.350645    -4135.352628  0.480005 -4.164763 10.542799
     spin moment: S , {S} =    1.99324  -0.00000   0.00000   1.99324
   scf:    3    -4111.027857    -4132.855150    -4132.880340  0.435397 -4.200964 10.813019
     spin moment: S , {S} =    2.00013  -0.00000   0.00000   2.00013
   scf:    4    -4147.360446    -4142.802066    -4142.802076  0.290818 -3.829484  5.526353
     spin moment: S , {S} =    0.00013   0.00000   0.00000   0.00013
   scf:    5    -4143.989495    -4143.523147    -4143.523147  0.044444 -3.645542  4.761557
     spin moment: S , {S} =    0.00007  -0.00000  -0.00000   0.00007
   scf:    6    -4144.457709    -4143.996283    -4143.996283  0.028965 -3.612382  2.284491
     spin moment: S , {S} =    0.00003   0.00000  -0.00000   0.00003
   scf:    7    -4144.371452    -4144.186130    -4144.186130  0.020191 -3.673334  0.799893
     spin moment: S , {S} =    0.00001  -0.00000   0.00000   0.00001
   scf:    8    -4144.330021    -4144.255639    -4144.255639  0.014293 -3.695838  0.341168
     spin moment: S , {S} =    0.00000  -0.00000   0.00000   0.00000
   scf:    9    -4144.289183    -4144.272013    -4144.272013  0.006734 -3.739430  0.228912
     spin moment: S , {S} =    0.00000  -0.00000  -0.00000   0.00000
   scf:   10    -4144.305182    -4144.287250    -4144.287250  0.010529 -3.758272  0.114080
     spin moment: S , {S} =    0.00000  -0.00000  -0.00000   0.00000
   scf:   11    -4144.295261    -4144.290961    -4144.290961  0.005651 -3.748162  0.064546
     spin moment: S , {S} =    0.00000  -0.00000   0.00000   0.00000
   scf:   12    -4144.294316    -4144.292518    -4144.292518  0.004035 -3.745713  0.042443
     spin moment: S , {S} =    0.00000  -0.00000   0.00000   0.00000
   scf:   13    -4144.294499    -4144.293411    -4144.293411  0.003711 -3.741868  0.032015
     spin moment: S , {S} =    0.00000  -0.00000   0.00000   0.00000
   scf:   14    -4144.294547    -4144.293885    -4144.293885  0.003824 -3.750339  0.015967
     spin moment: S , {S} =    0.00000  -0.00000   0.00000   0.00000
   scf:   15    -4144.294144    -4144.293992    -4144.293992  0.002068 -3.750139  0.009462
     spin moment: S , {S} =    0.00000  -0.00000  -0.00000   0.00000
   scf:   16    -4144.294051    -4144.294018    -4144.294018  0.000929 -3.750586  0.006774
     spin moment: S , {S} =    0.00000  -0.00000  -0.00000   0.00000
   scf:   17    -4144.294046    -4144.294030    -4144.294030  0.000646 -3.750654  0.004215
     spin moment: S , {S} =    0.00000  -0.00000  -0.00000   0.00000
   scf:   18    -4144.294049    -4144.294038    -4144.294038  0.000612 -3.750712  0.001884
     spin moment: S , {S} =    0.00000  -0.00000  -0.00000  -0.00000
   scf:   19    -4144.294044    -4144.294040    -4144.294040  0.000367 -3.750662  0.000706
     spin moment: S , {S} =    0.00000  -0.00000  -0.00000  -0.00000
   scf:   20    -4144.294041    -4144.294041    -4144.294041  0.000114 -3.750611  0.000411
     spin moment: S , {S} =    0.00000  -0.00000  -0.00000  -0.00000
   scf:   21    -4144.294041    -4144.294041    -4144.294041  0.000046 -3.750591  0.000313
     spin moment: S , {S} =    0.00000  -0.00000  -0.00000  -0.00000
   scf:   22    -4144.294041    -4144.294041    -4144.294041  0.000021 -3.750572  0.000178
     spin moment: S , {S} =    0.00000  -0.00000  -0.00000  -0.00000
   scf:   23    -4144.294041    -4144.294041    -4144.294041  0.000012 -3.750573  0.000112
     spin moment: S , {S} =    0.00000  -0.00000  -0.00000  -0.00000
   scf:   24    -4144.294041    -4144.294041    -4144.294041  0.000011 -3.750574  0.000076
     spin moment: S , {S} =    0.00000  -0.00000  -0.00000  -0.00000
mix: Pulay -- resetting history
   scf:   25    -4144.294041    -4144.294041    -4144.294041  0.000005 -3.750578  0.000055
     spin moment: S , {S} =    0.00000  -0.00000  -0.00000  -0.00000
   scf:   26    -4144.294041    -4144.294041    -4144.294041  0.000004 -3.750579  0.000039
     spin moment: S , {S} =    0.00000  -0.00000  -0.00000  -0.00000
   scf:   27    -4144.294041    -4144.294041    -4144.294041  0.000004 -3.750580  0.000026
     spin moment: S , {S} =    0.00000  -0.00000  -0.00000  -0.00000
   scf:   28    -4144.294041    -4144.294041    -4144.294041  0.000004 -3.750579  0.000009
     spin moment: S , {S} =    0.00000  -0.00000  -0.00000  -0.00000
   scf:   29    -4144.294041    -4144.294041    -4144.294041  0.000001 -3.750579  0.000006
     spin moment: S , {S} =    0.00000  -0.00000  -0.00000  -0.00000
   scf:   30    -4144.294041    -4144.294041    -4144.294041  0.000001 -3.750579  0.000002
     spin moment: S , {S} =    0.00000  -0.00000  -0.00000  -0.00000
   scf:   31    -4144.294041    -4144.294041    -4144.294041  0.000000 -3.750579  0.000001
     spin moment: S , {S} =    0.00000  -0.00000  -0.00000  -0.00000
   scf:   32    -4144.294041    -4144.294041    -4144.294041  0.000000 -3.750579  0.000001
     spin moment: S , {S} =    0.00000  -0.00000  -0.00000  -0.00000
   scf:   33    -4144.294041    -4144.294041    -4144.294041  0.000000 -3.750579  0.000001
     spin moment: S , {S} =    0.00000  -0.00000  -0.00000  -0.00000

SCF Convergence by DM+H criterion
max |DM_out - DM_in|         :     0.0000000876
max |H_out - H_in|      (eV) :     0.0000005059
SCF cycle converged after 33 iterations

Using DM_out to compute the final energy and forces
No. of atoms with KB's overlaping orbs in proc 0. Max # of overlaps:      28     223

siesta: E_KS(eV) =            -4144.2940

siesta: E_KS - E_eggbox =     -4144.2940
     spin moment: S , {S} =    0.00000  -0.00000  -0.00000  -0.00000

siesta: Atomic forces (eV/Ang):
     1    0.023022   -0.010285    0.000000
     2    0.454055   -0.281508    0.000000
     3   -0.432895    0.086022    0.000000
     4    0.040959    0.204745    0.000000
     5    0.246398    0.179518   -0.000000
     6    0.088248    0.002018    0.000000
     7   -1.413335   -0.450507   -0.000000
     8   -4.051863    7.270723    0.000000
     9   -2.772025    3.686061    0.000000
    10   -0.135839    0.373049   -0.000000
    11    0.308641    1.079086    0.000000
    12   -1.148818    0.690753   -0.000000
    13   -5.328683    7.928530    0.000000
    14   -0.020425    0.028119   -0.000000
    15   -0.088983   -0.062231   -0.000000
    16   -0.013942    0.026485    0.000000
    17   -0.042670    0.076481   -0.000000
    18   -0.001511   -0.035439    0.000000
    19   -0.255777   -0.022363   -0.000000
    20    1.544899   -0.243387   -0.000000
    21    9.002861  -11.817883   -0.000000
    22    0.365980   -1.731876    0.000000
    23   -0.368537    0.294867   -0.000000
    24    0.519822    0.518596   -0.000000
    25    2.642033   -4.978480   -0.000000
    26    0.766758   -0.933674   -0.000000
    27    0.066145   -0.319833    0.000000
    28    0.024001   -0.700232   -0.000000
    29    0.290368    0.318633    0.000000
----------------------------------------
   Tot    0.308888    1.175987    0.000000
----------------------------------------
   Max   11.817883
   Res    2.271768    sqrt( Sum f_i^2 / 3N )
----------------------------------------
   Max   11.817883    constrained

Stress tensor Voigt[x,y,z,yz,xz,xy] (kbar):       -4.74      -11.62       -0.11        0.00       -0.00        8.56
(Free)E + p*V (eV/cell)    -4129.9937
Target enthalpy (eV/cell)    -4144.2940

siesta: Eigenvalues (eV):
ik =     1
  -24.8271  -24.8271  -24.5174  -24.5174  -21.6696  -21.6696  -21.2277  -21.2277  -20.7621  -20.7621
  -20.2997  -20.2997  -19.8362  -19.8362  -19.4509  -19.4509  -19.3942  -19.3942  -19.1889  -19.1889
  -14.8589  -14.8589  -14.4408  -14.4408  -13.7443  -13.7443  -13.5524  -13.5524  -13.1073  -13.1073
  -13.0553  -13.0553  -12.4782  -12.4782  -12.3836  -12.3836  -12.1615  -12.1615  -12.0368  -12.0368
  -11.0076  -11.0076  -10.7357  -10.7357  -10.5990  -10.5990  -10.2258  -10.2258  -10.0618  -10.0618
   -9.7863   -9.7863   -9.2188   -9.2188   -9.0530   -9.0530   -8.9005   -8.9005   -8.8255   -8.8255
   -8.6015   -8.6015   -8.4856   -8.4856   -8.4506   -8.4506   -8.2612   -8.2612   -7.9372   -7.9372
   -7.9006   -7.9006   -7.5564   -7.5564   -7.5113   -7.5113   -7.4443   -7.4443   -6.8468   -6.8468
   -6.7177   -6.7177   -6.4142   -6.4142   -6.3982   -6.3982   -6.1825   -6.1825   -6.0994   -6.0994
   -5.7279   -5.7279   -5.5935   -5.5935   -5.4332   -5.4332   -4.3379   -4.3379   -3.1537   -3.1537
   -2.4532   -2.4532   -2.3438   -2.3438   -2.1952   -2.1952   -2.0612   -2.0612   -1.9497   -1.9497
   -1.8987   -1.8987   -1.5948   -1.5948   -1.5606   -1.5606   -1.2628   -1.2628   -1.0018   -1.0018
   -0.9642   -0.9642   -0.6484   -0.6484   -0.4041   -0.4041   -0.3449   -0.3449    0.4595    0.4595
    0.4794    0.4794    0.5494    0.5494    0.6552    0.6552    0.8718    0.8718    1.1298    1.1298
    1.4568    1.4568    1.4709    1.4709    1.5645    1.5645    1.6017    1.6017    2.0695    2.0695
    2.3336    2.3336    2.5779    2.5779    2.6318    2.6318    2.7645    2.7645    2.9062    2.9062
    3.0592    3.0592    3.3655    3.3655    3.4260    3.4260    3.5429    3.5429    3.6582    3.6582
    4.0358    4.0358    4.0631    4.0631    4.2084    4.2084    4.3267    4.3267    4.4607    4.4607
    4.5375    4.5375    4.7859    4.7859    5.0526    5.0526    5.1629    5.1629    5.3355    5.3355
    5.3849    5.3849    5.6543    5.6543    5.6881    5.6881    5.8009    5.8009    5.9049    5.9049
    6.2618    6.2618    6.4626    6.4626    6.5263    6.5263    6.6331    6.6331    6.6608    6.6608
    7.1146    7.1146    7.1541    7.1541    7.3274    7.3274    7.4357    7.4357    7.5909    7.5909
    7.5985    7.5985    7.8047    7.8047    7.8090    7.8090    8.0895    8.0895    8.2114    8.2114
    8.3829    8.3829    8.6845    8.6845    8.7204    8.7204    8.7309    8.7309    8.9489    8.9489
    9.0678    9.0678    9.1522    9.1522    9.5858    9.5858    9.5902    9.5902   10.0390   10.0390
   10.1178   10.1178   10.1401   10.1401   10.2442   10.2442   10.6287   10.6287   10.7634   10.7634
   11.0128   11.0128   11.2596   11.2596   11.3624   11.3624   11.4814   11.4814   11.7821   11.7821
   12.0033   12.0033   12.4400   12.4400   12.5515   12.5515   12.6442   12.6442   12.7503   12.7503
   12.8436   12.8436   13.0168   13.0168   13.4496   13.4496   13.6761   13.6761   14.0121   14.0121
   14.0721   14.0721   14.2647   14.2647   14.5861   14.5861   14.5885   14.5885   14.7865   14.7865
   15.1151   15.1151   15.4717   15.4717   16.1428   16.1428   16.2527   16.2527   16.4705   16.4705
   16.7841   16.7841   16.8220   16.8220   17.0794   17.0794   17.4426   17.4426   17.8091   17.8091
   18.5549   18.5549   18.5869   18.5869   18.8162   18.8162   19.3572   19.3572   19.8622   19.8622
   20.3665   20.3665   20.4908   20.4908   20.7077   20.7077   21.4591   21.4591   21.6521   21.6521
   22.2918   22.2918   22.4417   22.4417   22.9080   22.9080   23.6849   23.6849   23.7833   23.7833
   24.1436   24.1436   24.6960   24.6960   25.0485   25.0485   25.1987   25.1987   25.6788   25.6788
   26.8028   26.8028   27.2276   27.2276   27.6567   27.6567   28.3790   28.3790   29.1105   29.1105
   29.8538   29.8538   30.0647   30.0647   30.2130   30.2130   30.5599   30.5599   30.7637   30.7637
   30.9843   30.9843   31.2014   31.2014   31.5917   31.5917   31.9549   31.9549   32.0216   32.0216
   33.4092   33.4092   33.5338   33.5338   34.0642   34.0642   35.0629   35.0629   35.3034   35.3034
   35.4938   35.4938   35.9644   35.9644   36.0113   36.0113   36.5676   36.5676   37.0370   37.0370
   37.2753   37.2753   37.9973   37.9973   38.5597   38.5597   39.0495   39.0495   39.6945   39.6945
   39.8087   39.8087   40.3611   40.3611   40.5073   40.5073   40.6231   40.6231   40.9514   40.9514
   41.0310   41.0310   41.8795   41.8795   42.6024   42.6024   43.0906   43.0906   43.3188   43.3188
   43.3928   43.3928   43.5857   43.5857   43.6571   43.6571   44.2300   44.2300   44.6384   44.6384
   45.1662   45.1662   45.5858   45.5858   45.7538   45.7538   45.8798   45.8798   46.2071   46.2071
   46.4753   46.4753   46.7450   46.7450   47.0366   47.0366   47.2591   47.2591   47.8747   47.8747
   48.3502   48.3502   49.1399   49.1399   49.3855   49.3855   49.8440   49.8440   50.4359   50.4359
   51.0466   51.0466   51.1109   51.1109   51.8264   51.8264   52.7466   52.7466   53.0585   53.0585
   53.4381   53.4381   54.0961   54.0961   54.8139   54.8139   55.2440   55.2440   55.2704   55.2704
   56.1444   56.1444   56.5332   56.5332   57.4321   57.4321   58.0206   58.0206   58.3847   58.3847
   58.7509   58.7509   58.9280   58.9280   59.3826   59.3826   59.6647   59.6647   60.5306   60.5306
   61.0352   61.0352   62.1220   62.1220   62.5914   62.5914   63.7635   63.7635   64.6099   64.6099
   66.4808   66.4808   67.2889   67.2889   68.1363   68.1363   68.6570   68.6570   69.4987   69.4987
   70.7887   70.7887   73.1124   73.1124   74.7094   74.7094   76.2305   76.2305   80.7320   80.7320
   81.6324   81.6324   83.2085   83.2085   88.1419   88.1419   88.1937   88.1937   91.6623   91.6623
   93.2769   93.2769   94.8672   94.8672   97.1722   97.1722   99.8817   99.8817  100.8802  100.8802
  101.2588  101.2588  102.6277  102.6277  105.2603  105.2603  116.7271  116.7271  117.8339  117.8339
  124.5919  124.5919  127.5243  127.5243  131.1580  131.1580  133.9590  133.9590  143.5320  143.5320
  149.4995  149.4995  152.7639  152.7639
siesta: Fermi energy =      -3.750579 eV

siesta: Program's energy decomposition (eV):
siesta: Ebs     =     -1146.614041
siesta: Eions   =      3585.165840
siesta: Ena     =       388.808818
siesta: Ekin    =      2941.037472
siesta: Enl     =     -2821.554076
siesta: Eso     =        -0.004405
siesta: Edftu   =         0.000000
siesta: DEna    =        48.530577
siesta: DUscf   =        14.130404
siesta: DUext   =         0.000000
siesta: Exc     =     -1130.076991
siesta: eta*DQ  =         0.000000
siesta: Emadel  =         0.000000
siesta: Emeta   =         0.000000
siesta: Emolmec =         0.000000
siesta: Ekinion =         0.000000
siesta: Eharris =     -4144.294041
siesta: Etot    =     -4144.294041
siesta: FreeEng =     -4144.294041

siesta: Final energy (eV):
siesta:  Band Struct. =   -1146.614041
siesta:       Kinetic =    2941.037472
siesta:       Hartree =    9396.532689
siesta:       Edftu   =       0.000000
siesta:       Eso     =      -0.004405
siesta:    Ext. field =       0.000000
siesta:   Exch.-corr. =   -1130.076991
siesta:  Ion-electron =  -21413.220154
siesta:       Ion-ion =    6061.437349
siesta:       Ekinion =       0.000000
siesta:         Total =   -4144.294041
siesta:         Fermi =      -3.750579

siesta: Atomic forces (eV/Ang):
siesta:      1    0.023022   -0.010285    0.000000
siesta:      2    0.454055   -0.281508    0.000000
siesta:      3   -0.432895    0.086022    0.000000
siesta:      4    0.040959    0.204745    0.000000
siesta:      5    0.246398    0.179518   -0.000000
siesta:      6    0.088248    0.002018    0.000000
siesta:      7   -1.413335   -0.450507   -0.000000
siesta:      8   -4.051863    7.270723    0.000000
siesta:      9   -2.772025    3.686061    0.000000
siesta:     10   -0.135839    0.373049   -0.000000
siesta:     11    0.308641    1.079086    0.000000
siesta:     12   -1.148818    0.690753   -0.000000
siesta:     13   -5.328683    7.928530    0.000000
siesta:     14   -0.020425    0.028119   -0.000000
siesta:     15   -0.088983   -0.062231   -0.000000
siesta:     16   -0.013942    0.026485    0.000000
siesta:     17   -0.042670    0.076481   -0.000000
siesta:     18   -0.001511   -0.035439    0.000000
siesta:     19   -0.255777   -0.022363   -0.000000
siesta:     20    1.544899   -0.243387   -0.000000
siesta:     21    9.002861  -11.817883   -0.000000
siesta:     22    0.365980   -1.731876    0.000000
siesta:     23   -0.368537    0.294867   -0.000000
siesta:     24    0.519822    0.518596   -0.000000
siesta:     25    2.642033   -4.978480   -0.000000
siesta:     26    0.766758   -0.933674   -0.000000
siesta:     27    0.066145   -0.319833    0.000000
siesta:     28    0.024001   -0.700232   -0.000000
siesta:     29    0.290368    0.318633    0.000000
siesta: ----------------------------------------
siesta:    Tot    0.308888    1.175987    0.000000

siesta: Stress tensor (static) (eV/Ang**3):
siesta:    -0.002960    0.005343   -0.000000
siesta:     0.005343   -0.007252    0.000000
siesta:    -0.000000    0.000000   -0.000066

siesta: Cell volume =       4174.153621 Ang**3

siesta: Pressure (static):
siesta:                Solid            Molecule  Units
siesta:           0.00003731         -0.00000022  Ry/Bohr**3
siesta:           0.00342592         -0.00002061  eV/Ang**3
siesta:           5.48899405         -0.03301986  kBar
(Free)E+ p_basis*V_orbitals  =       -4124.443624
(Free)Eharris+ p_basis*V_orbitals  =       -4124.443624
     spin moment: S , {S} =    0.00000  -0.00000  -0.00000  -0.00000

siesta: Electric dipole (a.u.)  =   -0.090819    1.459875    0.000000
siesta: Electric dipole (Debye) =   -0.230838    3.710636    0.000000

cite: Please see "GC.bib" for an exhaustive BiBTeX file.
cite: Please clearly indicate Siesta version in published work: v4.1.5-1-g384057250
cite: This calculation has made use of the following articles
cite: which are encouraged to be cited in a published work.
        Primary SIESTA paper
          DOI: www.doi.org/10.1088/0953-8984/14/11/302
        Spin-orbit coupling (on-site approximation)
          DOI: www.doi.org/10.1088/0953-8984/19/19/489001


WARNING: alloc-realloc-dealloc name mismatch
         Name: atomlist isa
         Size:              -116. Bytes
         Node:     0
         Subsequent mismatches will not be reported
>> End of run:  16-OCT-2023  18:10:45
Job completed
