Siesta Version  : v4.1.5-1-g384057250
Architecture    : gcc
Compiler version: GNU Fortran (Ubuntu 11.4.0-1ubuntu1~22.04) 11.4.0
Compiler flags  : mpifort -O2 -fPIC -ftree-vectorize -fallow-argument-mismatch
PP flags        : -DFC_HAVE_ABORT -DMPI -DSIESTA__FLOOK -DSIESTA__METIS -DSIESTA__MUMPS -DCDF -DNCDF -DNCDF_4 -DNCDF_PARALLEL -DSIESTA__MRRR -DSIESTA__ELPA
Libraries       : libncdf.a libfdict.a  -lflookall -ldl -lnetcdff -lnetcdf -lhdf5_hl -lhdf5 -lhdf5_fortran -lz -lscalapack-openmpi -lopenblas -lmetis -lzmumps -lcmumps -ldmumps -lmumps_common -lpord -lsmumps -lesmumps -lscotch -lscotcherr -fopenmp -lelpa
PARALLEL version
NetCDF support
NetCDF-4 support
NetCDF-4 MPI-IO support
METIS ordering support
Lua support

* Running on 8 nodes in parallel
>> Start of run:   1-FEB-2024  21:03:20

                           ***********************       
                           *  WELCOME TO SIESTA  *       
                           ***********************       

reinit: Reading from standard input
reinit: Dumped input in INPUT_TMP.71295
************************** Dump of input data file ****************************
# mpirun -np 4 siesta-4.1.5 < GC.fdf > GC.out &
SystemLabel      GC
NumberOfAtoms    29
NumberOfSpecies  4
%block ChemicalSpeciesLabel
    1    1  H
    2    7  N
    3   14  Si
    4    8  O
%endblock ChemicalSpeciesLabel
############################################
# This overrides Defaults.fdf configuration
############################################
MD.TypeOfRun                Verlet # CG, Verlet
MD.Steps                    0
MaxSCFIterations            200
SCF.MustConverge            F
AtomicCoordinatesFormat NotScaledCartesianAng
%block AtomicCoordinatesAndAtomicSpecies
    1.2993508017039965 3.203167634484342 -0.0  1  1  H
    0.5928640717039967 2.413131454484342 -0.0  2  2  N
    -1.1374228382960032 2.854495364484342 0.0  3  3  Si
    -1.2932025182960034 4.3444876244843424 0.0  1  4  H
    -2.6607444582960036 1.2955878444843418 -0.0  3  5  Si
    -4.143932088296004 1.538418204484342 -0.0  1  6  H
    -1.4623535982960032 -0.6176883155156581 -0.0  3  7  Si
    -2.2283790582960035 -2.150405055515658 -0.0  2  8  N
    -1.6381325082960032 -3.107618085515658 0.0  1  9  H
    -3.2800013782960034 -2.230865285515658 -0.0  1  10  H
    0.25384646170399666 -0.562514005515658 0.0  2  11  N
    1.3288690817039965 0.767824834484342 -0.0  3  12  Si
    2.9375424017039964 0.749014574484342 -0.0  4  13  O
    5.6164483 -7.44953905 0.0  1  14  H
    4.58206954 -7.2320376 0.0  2  15  N
    3.29666389 -8.492636 0.0  3  16  Si
    3.80117524 -9.90371886 -0.0  1  17  H
    1.65934232 -8.01362137 0.0  2  18  N
    1.68097912 -6.20463398 -0.0  3  19  Si
    0.54543521 -4.28636135 0.0  3  20  Si
    -1.03431493 -3.94450034 0.0  4  21  O
    1.73226934 -2.87719605 0.0  2  22  N
    1.20957366 -1.92961761 -0.0  1  23  H
    3.50853448 -2.77677601 0.0  3  24  Si
    4.13684451 -1.17938608 0.0  2  25  N
    3.54296161 -0.26248101 0.0  1  26  H
    5.18364407 -1.05231197 -0.0  1  27  H
    4.63288658 -4.07521596 -0.0  2  28  N
    3.79410501 -5.58634043 0.0  3  29  Si
%endblock AtomicCoordinatesAndAtomicSpecies
#############
# Unit Cell
#############
LatticeConstant 1.0 Ang
%block LatticeVectors
    30.00000    0.000000    0.000000
    0.000000    45.00000    0.000000
    0.000000    0.000000    10.00000
%endblock LatticeVectors
%include ../../../../Defaults.fdf
************************** End of input data file *****************************

reinit: -----------------------------------------------------------------------
reinit: System Name: 
reinit: -----------------------------------------------------------------------
reinit: System Label: GC
reinit: -----------------------------------------------------------------------

initatom: Reading input for the pseudopotentials and atomic orbitals ----------
Species number:   1 Atomic number:    1 Label: H
Species number:   2 Atomic number:    7 Label: N
Species number:   3 Atomic number:   14 Label: Si
Species number:   4 Atomic number:    8 Label: O

Ground state valence configuration:   1s01
Reading pseudopotential information in formatted form from H.psf

Pseudopotential generated from a relativistic atomic calculation

Valence configuration for pseudopotential generation:
1s( 1.00) rc: 0.01
2p( 0.00) rc: 0.60
3d( 0.00) rc: 1.99
4f( 0.00) rc: 2.49
Ground state valence configuration:   2s02  2p03
Reading pseudopotential information in formatted form from N.psf

Pseudopotential generated from a relativistic atomic calculation

Valence configuration for pseudopotential generation:
2s( 2.00) rc: 0.94
2p( 3.00) rc: 0.59
3d( 0.00) rc: 3.46
4f( 0.00) rc: 2.47
Ground state valence configuration:   3s02  3p02
Reading pseudopotential information in formatted form from Si.psf

Pseudopotential generated from a relativistic atomic calculation

Valence configuration for pseudopotential generation:
3s( 2.00) rc: 1.67
3p( 2.00) rc: 2.04
3d( 0.00) rc: 2.89
4f( 0.00) rc: 2.49
Ground state valence configuration:   2s02  2p04
Reading pseudopotential information in formatted form from O.psf

Pseudopotential generated from a relativistic atomic calculation

Valence configuration for pseudopotential generation:
2s( 2.00) rc: 0.45
2p( 4.00) rc: 0.92
3d( 0.00) rc: 2.24
4f( 0.00) rc: 0.25
For H, standard SIESTA heuristics set lmxkb to 2
 (one more than the basis l, including polarization orbitals).
Use PS.lmax or PS.KBprojectors blocks to override.
For N, standard SIESTA heuristics set lmxkb to 3
 (one more than the basis l, including polarization orbitals).
Use PS.lmax or PS.KBprojectors blocks to override.
For Si, standard SIESTA heuristics set lmxkb to 3
 (one more than the basis l, including polarization orbitals).
Use PS.lmax or PS.KBprojectors blocks to override.
For O, standard SIESTA heuristics set lmxkb to 3
 (one more than the basis l, including polarization orbitals).
Use PS.lmax or PS.KBprojectors blocks to override.

<basis_specs>
===============================================================================
H                    Z=   1    Mass=  1.0100        Charge= 0.17977+309
Lmxo=0 Lmxkb= 2    BasisType=split      Semic=F
L=0  Nsemic=0  Cnfigmx=1
          i=1  nzeta=2  polorb=1  (1s)
            splnorm:   0.62000    
               vcte:    0.0000    
               rinn:    0.0000    
               qcoe:    0.0000    
               qyuk:    0.0000    
               qwid:   0.10000E-01
                rcs:    0.0000      0.0000    
            lambdas:    1.0000      1.0000    
-------------------------------------------------------------------------------
L=0  Nkbl=1  erefs: 0.17977+309
L=1  Nkbl=1  erefs: 0.17977+309
L=2  Nkbl=1  erefs: 0.17977+309
===============================================================================
</basis_specs>

atom: Called for H                     (Z =   1)

read_vps: Pseudopotential generation method:
read_vps: ATM4.2.7  Troullier-Martins                       
Valence charge for ps generation:    1.00000

xc_check: Exchange-correlation functional:
xc_check: GGA Perdew, Burke & Ernzerhof 1996
V l=0 = -2*Zval/r beyond r=  0.0098
V l=1 = -2*Zval/r beyond r=  0.5817
V l=2 = -2*Zval/r beyond r=  1.9372
All V_l potentials equal beyond r=  1.9372
This should be close to max(r_c) in ps generation
All pots = -2*Zval/r beyond r=  1.9372

VLOCAL1: 99.0% of the norm of Vloc inside     11.567 Ry
VLOCAL1: 99.9% of the norm of Vloc inside     26.362 Ry
atom: Maximum radius for 4*pi*r*r*local-pseudopot. charge    2.25106
atom: Maximum radius for r*vlocal+2*Zval:    1.91306
GHOST: No ghost state for L =  0
GHOST: No ghost state for L =  1
GHOST: No ghost state for L =  2

KBgen: Kleinman-Bylander projectors: 
   l= 0   rc=  2.036604   el= -0.477180   Ekb= -6.081590   kbcos= -0.277285
   l= 1   rc=  2.195416   el=  0.001076   Ekb= -0.926943   kbcos= -0.034643
   l= 2   rc=  2.251056   el=  0.002010   Ekb= -0.130941   kbcos= -0.009788

KBgen: Total number of Kleinman-Bylander projectors:    9
atom: -------------------------------------------------------------------------

atom: SANKEY-TYPE ORBITALS:
atom: Selected multiple-zeta basis: split     

SPLIT: Orbitals with angular momentum L= 0

SPLIT: Basis orbitals for state 1s

SPLIT: PAO cut-off radius determined from an
SPLIT: energy shift=  0.002000 Ry

   izeta = 1
                 lambda =    1.000000
                     rc =    6.518340
                 energy =   -0.475305
                kinetic =    0.912139
    potential(screened) =   -1.387444
       potential(ionic) =   -1.907295

   izeta = 2
                 rmatch =    2.141150
              splitnorm =    0.620000
                 energy =    0.566467
                kinetic =    3.772856
    potential(screened) =   -3.206389
       potential(ionic) =   -3.759093

POLgen: Perturbative polarization orbital with L=  1

POLgen: Polarization orbital for state 1s

   izeta = 1
                     rc =    6.518340
                 energy =    0.533861
                kinetic =    1.121086
    potential(screened) =   -0.587225
       potential(ionic) =   -1.053027
atom: Total number of Sankey-type orbitals:  5

atm_pop: Valence configuration (for local Pseudopot. screening):
 1s( 1.00)                                                            
Vna: chval, zval:    1.00000   1.00000

Vna:  Cut-off radius for the neutral-atom potential:   6.518340

atom: _________________________________________________________________________

<basis_specs>
===============================================================================
N                    Z=   7    Mass=  14.010        Charge= 0.17977+309
Lmxo=1 Lmxkb= 3    BasisType=split      Semic=F
L=0  Nsemic=0  Cnfigmx=2
          i=1  nzeta=2  polorb=0  (2s)
            splnorm:   0.28000    
               vcte:    0.0000    
               rinn:    0.0000    
               qcoe:    0.0000    
               qyuk:    0.0000    
               qwid:   0.10000E-01
                rcs:    0.0000      0.0000    
            lambdas:    1.0000      1.0000    
L=1  Nsemic=0  Cnfigmx=2
          i=1  nzeta=2  polorb=1  (2p)
            splnorm:   0.28000    
               vcte:    0.0000    
               rinn:    0.0000    
               qcoe:    0.0000    
               qyuk:    0.0000    
               qwid:   0.10000E-01
                rcs:    0.0000      0.0000    
            lambdas:    1.0000      1.0000    
-------------------------------------------------------------------------------
L=0  Nkbl=1  erefs: 0.17977+309
L=1  Nkbl=1  erefs: 0.17977+309
L=2  Nkbl=1  erefs: 0.17977+309
L=3  Nkbl=1  erefs: 0.17977+309
===============================================================================
</basis_specs>

atom: Called for N                     (Z =   7)

read_vps: Pseudopotential generation method:
read_vps: ATM4.2.7  Troullier-Martins                       
Valence charge for ps generation:    5.00000

xc_check: Exchange-correlation functional:
xc_check: GGA Perdew, Burke & Ernzerhof 1996
V l=0 = -2*Zval/r beyond r=  1.2889
V l=1 = -2*Zval/r beyond r=  1.2889
V l=2 = -2*Zval/r beyond r=  3.4178
V l=3 = -2*Zval/r beyond r=  2.4084
All V_l potentials equal beyond r=  3.3753
This should be close to max(r_c) in ps generation
All pots = -2*Zval/r beyond r=  3.4178

VLOCAL1: 99.0% of the norm of Vloc inside      3.810 Ry
VLOCAL1: 99.9% of the norm of Vloc inside      8.683 Ry
atom: Maximum radius for 4*pi*r*r*local-pseudopot. charge    4.02088
atom: Maximum radius for r*vlocal+2*Zval:    3.54838
GHOST: No ghost state for L =  0
GHOST: No ghost state for L =  1
GHOST: No ghost state for L =  2
GHOST: No ghost state for L =  3

KBgen: Kleinman-Bylander projectors: 
   l= 0   rc=  3.417763   el= -1.365098   Ekb= -4.433130   kbcos= -0.707855
   l= 1   rc=  3.375302   el= -0.521201   Ekb=-13.264039   kbcos= -0.535594
   l= 2   rc=  3.872880   el=  0.001991   Ekb= -0.641094   kbcos= -0.062456
   l= 3   rc=  3.970931   el=  0.003093   Ekb= -0.474517   kbcos= -0.018236

KBgen: Total number of Kleinman-Bylander projectors:   16
atom: -------------------------------------------------------------------------

atom: SANKEY-TYPE ORBITALS:
atom: Selected multiple-zeta basis: split     

SPLIT: Orbitals with angular momentum L= 0

SPLIT: Basis orbitals for state 2s

SPLIT: PAO cut-off radius determined from an
SPLIT: energy shift=  0.002000 Ry

   izeta = 1
                 lambda =    1.000000
                     rc =    4.730425
                 energy =   -1.363399
                kinetic =    1.245246
    potential(screened) =   -2.608645
       potential(ionic) =   -8.121105

   izeta = 2
                 rmatch =    2.531849
              splitnorm =    0.280000
                 energy =   -0.959908
                kinetic =    2.409435
    potential(screened) =   -3.369343
       potential(ionic) =   -9.427975

SPLIT: Orbitals with angular momentum L= 1

SPLIT: Basis orbitals for state 2p

SPLIT: PAO cut-off radius determined from an
SPLIT: energy shift=  0.002000 Ry

   izeta = 1
                 lambda =    1.000000
                     rc =    5.924108
                 energy =   -0.519262
                kinetic =    3.672940
    potential(screened) =   -4.192202
       potential(ionic) =   -9.518354

   izeta = 2
                 rmatch =    2.531849
              splitnorm =    0.280000
                 energy =   -0.104258
                kinetic =    6.807538
    potential(screened) =   -6.911796
       potential(ionic) =  -13.149920

POLgen: Perturbative polarization orbital with L=  2

POLgen: Polarization orbital for state 2p

   izeta = 1
                     rc =    5.924108
                 energy =    1.427508
                kinetic =    2.872379
    potential(screened) =   -1.444871
       potential(ionic) =   -5.563644
atom: Total number of Sankey-type orbitals: 13

atm_pop: Valence configuration (for local Pseudopot. screening):
 2s( 2.00)                                                            
 2p( 3.00)                                                            
Vna: chval, zval:    5.00000   5.00000

Vna:  Cut-off radius for the neutral-atom potential:   5.924108

atom: _________________________________________________________________________

<basis_specs>
===============================================================================
Si                   Z=  14    Mass=  28.090        Charge= 0.17977+309
Lmxo=1 Lmxkb= 3    BasisType=split      Semic=F
L=0  Nsemic=0  Cnfigmx=3
          i=1  nzeta=2  polorb=0  (3s)
            splnorm:   0.28000    
               vcte:    0.0000    
               rinn:    0.0000    
               qcoe:    0.0000    
               qyuk:    0.0000    
               qwid:   0.10000E-01
                rcs:    0.0000      0.0000    
            lambdas:    1.0000      1.0000    
L=1  Nsemic=0  Cnfigmx=3
          i=1  nzeta=2  polorb=1  (3p)
            splnorm:   0.28000    
               vcte:    0.0000    
               rinn:    0.0000    
               qcoe:    0.0000    
               qyuk:    0.0000    
               qwid:   0.10000E-01
                rcs:    0.0000      0.0000    
            lambdas:    1.0000      1.0000    
-------------------------------------------------------------------------------
L=0  Nkbl=1  erefs: 0.17977+309
L=1  Nkbl=1  erefs: 0.17977+309
L=2  Nkbl=1  erefs: 0.17977+309
L=3  Nkbl=1  erefs: 0.17977+309
===============================================================================
</basis_specs>

atom: Called for Si                    (Z =  14)

read_vps: Pseudopotential generation method:
read_vps: ATM4.2.7  Troullier-Martins                       
Valence charge for ps generation:    4.00000

xc_check: Exchange-correlation functional:
xc_check: GGA Perdew, Burke & Ernzerhof 1996
V l=0 = -2*Zval/r beyond r=  2.7826
V l=1 = -2*Zval/r beyond r=  2.7826
V l=2 = -2*Zval/r beyond r=  2.9253
V l=3 = -2*Zval/r beyond r=  2.7826
All V_l potentials equal beyond r=  2.8530
This should be close to max(r_c) in ps generation
All pots = -2*Zval/r beyond r=  2.9253

VLOCAL1: 99.0% of the norm of Vloc inside      5.333 Ry
VLOCAL1: 99.9% of the norm of Vloc inside     12.154 Ry
atom: Maximum radius for 4*pi*r*r*local-pseudopot. charge    3.39869
atom: Maximum radius for r*vlocal+2*Zval:    2.96205
GHOST: No ghost state for L =  0
GHOST: No ghost state for L =  1
GHOST: No ghost state for L =  2
GHOST: No ghost state for L =  3

KBgen: Kleinman-Bylander projectors: 
   l= 0   rc=  3.075247   el= -0.794092   Ekb=  5.879390   kbcos=  0.167461
   l= 1   rc=  3.153101   el= -0.300068   Ekb=  2.642817   kbcos=  0.058301
   l= 2   rc=  3.273594   el=  0.001958   Ekb= -1.185135   kbcos= -0.104411
   l= 3   rc=  3.232927   el=  0.003046   Ekb= -0.497174   kbcos= -0.015889

KBgen: Total number of Kleinman-Bylander projectors:   16
atom: -------------------------------------------------------------------------

atom: SANKEY-TYPE ORBITALS:
atom: Selected multiple-zeta basis: split     

SPLIT: Orbitals with angular momentum L= 0

SPLIT: Basis orbitals for state 3s

SPLIT: PAO cut-off radius determined from an
SPLIT: energy shift=  0.002000 Ry

   izeta = 1
                 lambda =    1.000000
                     rc =    6.429618
                 energy =   -0.792283
                kinetic =    0.525293
    potential(screened) =   -1.317576
       potential(ionic) =   -3.744923

   izeta = 2
                 rmatch =    3.998416
              splitnorm =    0.280000
                 energy =   -0.583081
                kinetic =    1.069570
    potential(screened) =   -1.652651
       potential(ionic) =   -4.235185

SPLIT: Orbitals with angular momentum L= 1

SPLIT: Basis orbitals for state 3p

SPLIT: PAO cut-off radius determined from an
SPLIT: energy shift=  0.002000 Ry

   izeta = 1
                 lambda =    1.000000
                     rc =    8.464845
                 energy =   -0.298236
                kinetic =    0.785360
    potential(screened) =   -1.083596
       potential(ionic) =   -3.273779

   izeta = 2
                 rmatch =    4.587816
              splitnorm =    0.280000
                 energy =   -0.131871
                kinetic =    1.403687
    potential(screened) =   -1.535557
       potential(ionic) =   -4.015310

POLgen: Perturbative polarization orbital with L=  2

POLgen: Polarization orbital for state 3p

   izeta = 1
                     rc =    8.464845
                 energy =    0.321949
                kinetic =    1.055677
    potential(screened) =   -0.733728
       potential(ionic) =   -2.672950
atom: Total number of Sankey-type orbitals: 13

atm_pop: Valence configuration (for local Pseudopot. screening):
 3s( 2.00)                                                            
 3p( 2.00)                                                            
Vna: chval, zval:    4.00000   4.00000

Vna:  Cut-off radius for the neutral-atom potential:   8.464845

atom: _________________________________________________________________________

<basis_specs>
===============================================================================
O                    Z=   8    Mass=  16.000        Charge= 0.17977+309
Lmxo=1 Lmxkb= 3    BasisType=split      Semic=F
L=0  Nsemic=0  Cnfigmx=2
          i=1  nzeta=2  polorb=0  (2s)
            splnorm:   0.28000    
               vcte:    0.0000    
               rinn:    0.0000    
               qcoe:    0.0000    
               qyuk:    0.0000    
               qwid:   0.10000E-01
                rcs:    0.0000      0.0000    
            lambdas:    1.0000      1.0000    
L=1  Nsemic=0  Cnfigmx=2
          i=1  nzeta=2  polorb=1  (2p)
            splnorm:   0.28000    
               vcte:    0.0000    
               rinn:    0.0000    
               qcoe:    0.0000    
               qyuk:    0.0000    
               qwid:   0.10000E-01
                rcs:    0.0000      0.0000    
            lambdas:    1.0000      1.0000    
-------------------------------------------------------------------------------
L=0  Nkbl=1  erefs: 0.17977+309
L=1  Nkbl=1  erefs: 0.17977+309
L=2  Nkbl=1  erefs: 0.17977+309
L=3  Nkbl=1  erefs: 0.17977+309
===============================================================================
</basis_specs>

atom: Called for O                     (Z =   8)

read_vps: Pseudopotential generation method:
read_vps: ATM4.2.7  Troullier-Martins                       
Valence charge for ps generation:    6.00000

xc_check: Exchange-correlation functional:
xc_check: GGA Perdew, Burke & Ernzerhof 1996
V l=0 = -2*Zval/r beyond r=  1.1000
V l=1 = -2*Zval/r beyond r=  1.1000
V l=2 = -2*Zval/r beyond r=  2.2154
V l=3 = -2*Zval/r beyond r=  1.1000
All V_l potentials equal beyond r=  2.2154
This should be close to max(r_c) in ps generation
All pots = -2*Zval/r beyond r=  2.2154

VLOCAL1: 99.0% of the norm of Vloc inside      8.845 Ry
VLOCAL1: 99.9% of the norm of Vloc inside     20.157 Ry
atom: Maximum radius for 4*pi*r*r*local-pseudopot. charge    2.67231
atom: Maximum radius for r*vlocal+2*Zval:    2.32897
GHOST: No ghost state for L =  0
GHOST: No ghost state for L =  1
GHOST: No ghost state for L =  2
GHOST: No ghost state for L =  3

KBgen: Kleinman-Bylander projectors: 
   l= 0   rc=  2.243238   el= -1.759686   Ekb=**********   kbcos= -0.171774
   l= 1   rc=  2.328968   el= -0.663873   Ekb=-14.506792   kbcos= -0.519897
   l= 2   rc=  2.573941   el=  0.002031   Ekb= -1.137373   kbcos= -0.019581
   l= 3   rc=  2.606321   el=  0.003153   Ekb= -1.013546   kbcos= -0.003122

KBgen: Total number of Kleinman-Bylander projectors:   16
atom: -------------------------------------------------------------------------

atom: SANKEY-TYPE ORBITALS:
atom: Selected multiple-zeta basis: split     

SPLIT: Orbitals with angular momentum L= 0

SPLIT: Basis orbitals for state 2s

SPLIT: PAO cut-off radius determined from an
SPLIT: energy shift=  0.002000 Ry

   izeta = 1
                 lambda =    1.000000
                     rc =    4.243912
                 energy =   -1.758270
                kinetic =    3.286084
    potential(screened) =   -5.044353
       potential(ionic) =  -12.921184

   izeta = 2
                 rmatch =    2.187845
              splitnorm =    0.280000
                 energy =   -0.885018
                kinetic =    8.134434
    potential(screened) =   -9.019452
       potential(ionic) =  -17.710645

SPLIT: Orbitals with angular momentum L= 1

SPLIT: Basis orbitals for state 2p

SPLIT: PAO cut-off radius determined from an
SPLIT: energy shift=  0.002000 Ry

   izeta = 1
                 lambda =    1.000000
                     rc =    5.314825
                 energy =   -0.661986
                kinetic =    4.917472
    potential(screened) =   -5.579458
       potential(ionic) =  -13.236259

   izeta = 2
                 rmatch =    2.160663
              splitnorm =    0.280000
                 energy =   -0.068760
                kinetic =    9.183374
    potential(screened) =   -9.252135
       potential(ionic) =  -18.274251

POLgen: Perturbative polarization orbital with L=  2

POLgen: Polarization orbital for state 2p

   izeta = 1
                     rc =    5.314825
                 energy =    1.970580
                kinetic =    3.886128
    potential(screened) =   -1.915547
       potential(ionic) =   -7.749584
atom: Total number of Sankey-type orbitals: 13

atm_pop: Valence configuration (for local Pseudopot. screening):
 2s( 2.00)                                                            
 2p( 4.00)                                                            
Vna: chval, zval:    6.00000   6.00000

Vna:  Cut-off radius for the neutral-atom potential:   5.314825

atom: _________________________________________________________________________

prinput: Basis input ----------------------------------------------------------

PAO.BasisType split     

%block ChemicalSpeciesLabel
    1    1 H                       # Species index, atomic number, species label
    2    7 N                       # Species index, atomic number, species label
    3   14 Si                      # Species index, atomic number, species label
    4    8 O                       # Species index, atomic number, species label
%endblock ChemicalSpeciesLabel

%block PAO.Basis                 # Define Basis set
H                     1                    # Species label, number of l-shells
 n=1   0   2 P   1                   # n, l, Nzeta, Polarization, NzetaPol
   6.518      2.141   
   1.000      1.000   
N                     2                    # Species label, number of l-shells
 n=2   0   2                         # n, l, Nzeta 
   4.730      2.532   
   1.000      1.000   
 n=2   1   2 P   1                   # n, l, Nzeta, Polarization, NzetaPol
   5.924      2.532   
   1.000      1.000   
Si                    2                    # Species label, number of l-shells
 n=3   0   2                         # n, l, Nzeta 
   6.430      3.998   
   1.000      1.000   
 n=3   1   2 P   1                   # n, l, Nzeta, Polarization, NzetaPol
   8.465      4.588   
   1.000      1.000   
O                     2                    # Species label, number of l-shells
 n=2   0   2                         # n, l, Nzeta 
   4.244      2.188   
   1.000      1.000   
 n=2   1   2 P   1                   # n, l, Nzeta, Polarization, NzetaPol
   5.315      2.161   
   1.000      1.000   
%endblock PAO.Basis

prinput: ----------------------------------------------------------------------

Dumping basis to NetCDF file H.ion.nc
Dumping basis to NetCDF file N.ion.nc
Dumping basis to NetCDF file Si.ion.nc
Dumping basis to NetCDF file O.ion.nc
coor:   Atomic-coordinates input format  =     Cartesian coordinates
coor:                                          (in Angstroms)

siesta: Atomic coordinates (Bohr) and species
siesta:      2.45542   6.05311  -0.00000  1        1
siesta:      1.12035   4.56016  -0.00000  2        2
siesta:     -2.14942   5.39422   0.00000  3        3
siesta:     -2.44380   8.20990   0.00000  1        4
siesta:     -5.02808   2.44831  -0.00000  3        5
siesta:     -7.83090   2.90719  -0.00000  1        6
siesta:     -2.76345  -1.16726  -0.00000  3        7
siesta:     -4.21103  -4.06368  -0.00000  2        8
siesta:     -3.09562  -5.87255   0.00000  1        9
siesta:     -6.19831  -4.21573  -0.00000  1       10
siesta:      0.47970  -1.06300   0.00000  2       11
siesta:      2.51120   1.45098  -0.00000  3       12
siesta:      5.55115   1.41543  -0.00000  4       13
siesta:     10.61355 -14.07759   0.00000  1       14
siesta:      8.65886 -13.66658   0.00000  2       15
siesta:      6.22979 -16.04876   0.00000  3       16
siesta:      7.18318 -18.71532  -0.00000  1       17
siesta:      3.13570 -15.14356   0.00000  2       18
siesta:      3.17659 -11.72506  -0.00000  3       19
siesta:      1.03072  -8.10005   0.00000  3       20
siesta:     -1.95457  -7.45403   0.00000  4       21
siesta:      3.27352  -5.43711   0.00000  2       22
siesta:      2.28576  -3.64645  -0.00000  1       23
siesta:      6.63017  -5.24735   0.00000  3       24
siesta:      7.81751  -2.22872   0.00000  2       25
siesta:      6.69523  -0.49602   0.00000  1       26
siesta:      9.79567  -1.98858  -0.00000  1       27
siesta:      8.75489  -7.70105  -0.00000  2       28
siesta:      7.16982 -10.55666   0.00000  3       29

siesta: System type = molecule  

initatomlists: Number of atoms, orbitals, and projectors:     29   297   394

siesta: ******************** Simulation parameters ****************************
siesta:
siesta: The following are some of the parameters of the simulation.
siesta: A complete list of the parameters used, including default values,
siesta: can be found in file out.fdf
siesta:
redata: Spin configuration                          = spin-orbit
redata: Number of spin components                   = 8
redata: Time-Reversal Symmetry                      = F
redata: Spin spiral                                 = F
############################################################
This spin-orbit implementation uses a local approximation.
From 4.2 and onwards the full non-local approximation is implemented
You are strongly advised to use >=4.2 versions!
############################################################
redata: Long output                                 =   F
redata: Number of Atomic Species                    =        4
redata: Charge density info will appear in .RHO file
redata: Write Mulliken Pop.                         = NO
redata: Matel table size (NRTAB)                    =     1024
redata: Mesh Cutoff                                 =   340.0000 Ry
redata: Net charge of the system                    =     0.0000 |e|
redata: Min. number of SCF Iter                     =        1
redata: Max. number of SCF Iter                     =      200
redata: SCF mix quantity                            = Hamiltonian
redata: Mix DM or H after convergence               =   F
redata: Recompute H after scf cycle                 =   F
redata: Mix DM in first SCF step                    =   T
redata: Write Pulay info on disk                    =   F
redata: New DM Occupancy tolerance                  = 0.000000000001
redata: No kicks to SCF
redata: DM Mixing Weight for Kicks                  =     0.5000
redata: Require Harris convergence for SCF          =   F
redata: Harris energy tolerance for SCF             =     0.000100 eV
redata: Require DM convergence for SCF              =   T
redata: DM tolerance for SCF                        =     0.000008
redata: Require EDM convergence for SCF             =   F
redata: EDM tolerance for SCF                       =     0.001000 eV
redata: Require H convergence for SCF               =   T
redata: Hamiltonian tolerance for SCF               =     0.000001 eV
redata: Require (free) Energy convergence for SCF   =   F
redata: (free) Energy tolerance for SCF             =     0.000100 eV
redata: Using Saved Data (generic)                  =   F
redata: Use continuation files for DM               =   T
redata: Neglect nonoverlap interactions             =   F
redata: Method of Calculation                       = Diagonalization
redata: Electronic Temperature                      =   299.9978 K
redata: Fix the spin of the system                  =   F
redata: Dynamics option                             = Verlet MD run
redata: Initial MD time step                        =        1
redata:   Final MD time step                        =        1
redata: Length of MD time step                      =     0.5000 fs
redata: Initial Temperature of MD run               =     0.0000 K
redata: Perform a MD quench                         =   F
mix.SCF: Pulay mixing                            = Pulay
mix.SCF:    Variant                              = stable
mix.SCF:    History steps                        = 6
mix.SCF:    Linear mixing weight                 =     0.250000
mix.SCF:    Mixing weight                        =     0.250000
mix.SCF:    SVD condition                        = 0.1000E-07
mix.SCF:    Restart steps                        = 24
mix.SCF:    Restart save steps                   = 3
mix.SCF: Spin-component mixing                   all
redata: Save all siesta data in one NC              =   F
redata: ***********************************************************************

%block SCF.Mixers
  Pulay
%endblock SCF.Mixers

%block SCF.Mixer.Pulay
  # Mixing method
  method pulay
  variant stable

  # Mixing options
  weight 0.2500
  weight.linear 0.2500
  history 6
  restart 24
  restart.save 3
%endblock SCF.Mixer.Pulay

Size of DM history Fstack: 3
Total number of electrons:    98.000000
Total ionic charge:    98.000000

* ProcessorY, Blocksize:    2  24


* Orbital distribution balance (max,min):    48    24


Time-reversal symmetry not used.

siesta: k-grid: Number of k-points =     1
siesta: k-grid: Cutoff (effective) =     5.000 Ang
siesta: k-grid: Supercell and displacements
siesta: k-grid:    1   0   0      0.000
siesta: k-grid:    0   1   0      0.000
siesta: k-grid:    0   0   1      0.000

diag: Algorithm                                     = ELPA-1stage
diag: Parallel over k                               =   F
diag: Use parallel 2D distribution                  =   T
diag: Parallel block-size                           = 24
diag: Parallel distribution                         =     2 x     4
diag: Used triangular part                          = Lower
diag: Absolute tolerance                            =  0.100E-15
diag: Orthogonalization factor                      =  0.100E-05
diag: Memory factor                                 =  1.0000


ts: **************************************************************
ts: Save H and S matrices                           =    F
ts: Save DM and EDM matrices                        =    F
ts: Only save the overlap matrix S                  =    F
ts: **************************************************************

************************ Begin: TS CHECKS AND WARNINGS ************************
************************ End: TS CHECKS AND WARNINGS **************************


                     ====================================
                        Begin MD step =      1
                     ====================================

outcoor: Atomic coordinates (Ang):                          
    1.29935080    3.20316763    0.00000000   1       1  H
    0.59286407    2.41313145    0.00000000   2       2  N
   -1.13742284    2.85449536    0.00000000   3       3  Si
   -1.29320252    4.34448762    0.00000000   1       4  H
   -2.66074446    1.29558784    0.00000000   3       5  Si
   -4.14393209    1.53841820    0.00000000   1       6  H
   -1.46235360   -0.61768832    0.00000000   3       7  Si
   -2.22837906   -2.15040506    0.00000000   2       8  N
   -1.63813251   -3.10761809    0.00000000   1       9  H
   -3.28000138   -2.23086529    0.00000000   1      10  H
    0.25384646   -0.56251401    0.00000000   2      11  N
    1.32886908    0.76782483    0.00000000   3      12  Si
    2.93754240    0.74901457    0.00000000   4      13  O
    5.61644830   -7.44953905    0.00000000   1      14  H
    4.58206954   -7.23203760    0.00000000   2      15  N
    3.29666389   -8.49263600    0.00000000   3      16  Si
    3.80117524   -9.90371886    0.00000000   1      17  H
    1.65934232   -8.01362137    0.00000000   2      18  N
    1.68097912   -6.20463398    0.00000000   3      19  Si
    0.54543521   -4.28636135    0.00000000   3      20  Si
   -1.03431493   -3.94450034    0.00000000   4      21  O
    1.73226934   -2.87719605    0.00000000   2      22  N
    1.20957366   -1.92961761    0.00000000   1      23  H
    3.50853448   -2.77677601    0.00000000   3      24  Si
    4.13684451   -1.17938608    0.00000000   2      25  N
    3.54296161   -0.26248101    0.00000000   1      26  H
    5.18364407   -1.05231197    0.00000000   1      27  H
    4.63288658   -4.07521596    0.00000000   2      28  N
    3.79410501   -5.58634043    0.00000000   3      29  Si

outcell: Unit cell vectors (Ang):
       30.000000    0.000000    0.000000
        0.000000   45.000000    0.000000
        0.000000    0.000000   10.000000

outcell: Cell vector modules (Ang)   :   30.000000   45.000000   10.000000
outcell: Cell angles (23,13,12) (deg):     90.0000     90.0000     90.0000
outcell: Cell volume (Ang**3)        :  13500.0000
<dSpData1D:S at geom step 1
  <sparsity:sparsity for geom step 1
    nrows_g=297 nrows=48 sparsity=.1406 nnzs=12402, refcount: 8>
  <dData1D:(new from dSpData1D) n=12402, refcount: 1>
refcount: 1>
new_DM -- step:     1
Initializing Density Matrix...

Attempting to read DM from file... Failed...
DM filled with atomic data:
<dSpData2D:DM initialized from atoms
  <sparsity:sparsity for geom step 1
    nrows_g=297 nrows=48 sparsity=.1406 nnzs=12402, refcount: 9>
  <dData2D:DM n=12402 m=8, refcount: 1>
refcount: 1>
     spin moment: S , {S} =   56.00000   0.00000   0.00000  56.00000
No. of atoms with KB's overlaping orbs in proc 0. Max # of overlaps:      27     223

Initializing spin-orbit part of the Hamiltonian
  Adding spin-orbit effects for H 
  Adding spin-orbit effects for N 
  Adding spin-orbit effects for Si
  Adding spin-orbit effects for O 


New grid distribution:   1
           1       1:  180    1:  125    1:   15
           2       1:  180    1:  125   16:   30
           3       1:  180    1:  125   31:   45
           4       1:  180    1:  125   46:   60
           5       1:  180  126:  250    1:   15
           6       1:  180  126:  250   16:   30
           7       1:  180  126:  250   31:   45
           8       1:  180  126:  250   46:   60

InitMesh: MESH =   360 x   500 x   120 =    21600000
InitMesh: (bp) =   180 x   250 x    60 =     2700000
InitMesh: Mesh cutoff (required, used) =   340.000   341.206 Ry
ExtMesh (bp) on 0 =   288 x   225 x   123 =     7970400
New grid distribution:   2
           1      23:  180   22:  222    1:   60
           2      23:  180    1:   21    1:   60
           3       1:   22  198:  222    1:   60
           4       1:   23  238:  250    1:   60
           5       1:   22    1:  197    1:   60
           6      24:  180  223:  237    1:   60
           7      24:  180  238:  250    1:   60
           8       1:   23  223:  237    1:   60
New grid distribution:   3
           1      36:  180   19:  205    1:   60
           2      36:  180  233:  250    1:   60
           3      36:  180    1:   18    1:   60
           4       1:   35  206:  227    1:   60
           5       1:   35   32:  205    1:   60
           6      36:  180  206:  232    1:   60
           7       1:   35    1:   31    1:   60
           8       1:   35  228:  250    1:   60
Setting up quadratic distribution...
ExtMesh (bp) on 0 =   266 x   301 x   168 =    13451088
PhiOnMesh: Number of (b)points on node 0 =              1905480
PhiOnMesh: nlist on node 0 =              1821810

stepf: Fermi-Dirac step function

siesta: Program's energy decomposition (eV):
siesta: Ebs     =      -573.917747
siesta: Eions   =      3585.165840
siesta: Ena     =       385.663531
siesta: Ekin    =      3391.311411
siesta: Enl     =     -3320.606833
siesta: Eso     =        -0.003480
siesta: Edftu   =         0.000000
siesta: DEna    =       157.416015
siesta: DUscf   =        80.667078
siesta: DUext   =         0.000000
siesta: Exc     =     -1210.133669
siesta: eta*DQ  =         0.000000
siesta: Emadel  =         0.000000
siesta: Emeta   =         0.000000
siesta: Emolmec =         0.000000
siesta: Ekinion =         0.000000
siesta: Eharris =     -4013.137353
siesta: Etot    =     -4100.851786
siesta: FreeEng =     -4100.852930

        iscf     Eharris(eV)        E_KS(eV)     FreeEng(eV)     dDmax    Ef(eV) dHmax(eV)
   scf:    1    -4013.137353    -4100.851786    -4100.852930  0.959019 -4.912384 21.645358
     spin moment: S , {S} =    2.00624  -0.00000  -0.00000   2.00624
timer: Routine,Calls,Time,% = IterSCF        1      20.077  28.02
   scf:    2    -4148.341671    -4136.359864    -4136.361050  0.481106 -4.103902 11.263216
     spin moment: S , {S} =    1.99525  -0.00000  -0.00000   1.99525
   scf:    3    -4108.701209    -4133.463384    -4133.492621  0.441051 -4.217254 12.018939
     spin moment: S , {S} =    2.00273   0.00000   0.00000   2.00273
   scf:    4    -4149.225952    -4144.287616    -4144.287622  0.270721 -3.763844  5.648968
     spin moment: S , {S} =    0.00012   0.00000   0.00000   0.00012
   scf:    5    -4145.512799    -4145.013991    -4145.013991  0.042610 -3.547228  4.746208
     spin moment: S , {S} =    0.00006   0.00000   0.00000   0.00006
   scf:    6    -4145.913191    -4145.468621    -4145.468621  0.027981 -3.445136  2.291936
     spin moment: S , {S} =    0.00003   0.00000   0.00000   0.00003
   scf:    7    -4145.830081    -4145.651978    -4145.651978  0.019547 -3.504435  0.876421
     spin moment: S , {S} =    0.00001  -0.00000  -0.00000   0.00001
   scf:    8    -4145.800148    -4145.723474    -4145.723474  0.014432 -3.605833  0.389177
     spin moment: S , {S} =    0.00000  -0.00000   0.00000   0.00000
   scf:    9    -4145.757979    -4145.740335    -4145.740335  0.006944 -3.625206  0.268713
     spin moment: S , {S} =    0.00000  -0.00000   0.00000   0.00000
   scf:   10    -4145.776456    -4145.756732    -4145.756732  0.011777 -3.646285  0.123387
     spin moment: S , {S} =    0.00000  -0.00000   0.00000  -0.00000
   scf:   11    -4145.762989    -4145.759647    -4145.759647  0.005347 -3.638999  0.064675
     spin moment: S , {S} =    0.00000   0.00000   0.00000   0.00000
   scf:   12    -4145.762136    -4145.760816    -4145.760816  0.003555 -3.633398  0.040013
     spin moment: S , {S} =    0.00000   0.00000   0.00000   0.00000
   scf:   13    -4145.762303    -4145.761498    -4145.761498  0.003099 -3.635294  0.031479
     spin moment: S , {S} =    0.00000   0.00000   0.00000   0.00000
   scf:   14    -4145.762677    -4145.761993    -4145.761993  0.003965 -3.632848  0.016656
     spin moment: S , {S} =    0.00000   0.00000  -0.00000   0.00000
   scf:   15    -4145.762301    -4145.762118    -4145.762118  0.002339 -3.632046  0.009257
     spin moment: S , {S} =    0.00000  -0.00000  -0.00000   0.00000
   scf:   16    -4145.762177    -4145.762143    -4145.762143  0.000973 -3.632725  0.006314
     spin moment: S , {S} =    0.00000  -0.00000   0.00000   0.00000
   scf:   17    -4145.762167    -4145.762154    -4145.762154  0.000607 -3.632924  0.003867
     spin moment: S , {S} =    0.00000  -0.00000   0.00000  -0.00000
   scf:   18    -4145.762167    -4145.762159    -4145.762159  0.000460 -3.633054  0.001883
     spin moment: S , {S} =    0.00000  -0.00000   0.00000  -0.00000
   scf:   19    -4145.762165    -4145.762162    -4145.762162  0.000314 -3.633046  0.000871
     spin moment: S , {S} =    0.00000  -0.00000  -0.00000  -0.00000
   scf:   20    -4145.762163    -4145.762162    -4145.762162  0.000140 -3.632963  0.000444
     spin moment: S , {S} =    0.00000  -0.00000  -0.00000  -0.00000
   scf:   21    -4145.762162    -4145.762162    -4145.762162  0.000095 -3.632916  0.000292
     spin moment: S , {S} =    0.00000  -0.00000  -0.00000  -0.00000
   scf:   22    -4145.762162    -4145.762162    -4145.762162  0.000022 -3.632889  0.000176
     spin moment: S , {S} =    0.00000  -0.00000  -0.00000  -0.00000
   scf:   23    -4145.762162    -4145.762162    -4145.762162  0.000009 -3.632886  0.000111
     spin moment: S , {S} =    0.00000  -0.00000  -0.00000  -0.00000
   scf:   24    -4145.762162    -4145.762162    -4145.762162  0.000014 -3.632886  0.000050
     spin moment: S , {S} =    0.00000  -0.00000  -0.00000  -0.00000
mix: Pulay -- resetting history
   scf:   25    -4145.762162    -4145.762162    -4145.762162  0.000006 -3.632891  0.000024
     spin moment: S , {S} =    0.00000  -0.00000  -0.00000   0.00000
   scf:   26    -4145.762162    -4145.762162    -4145.762162  0.000003 -3.632891  0.000016
     spin moment: S , {S} =    0.00000  -0.00000  -0.00000   0.00000
   scf:   27    -4145.762162    -4145.762162    -4145.762162  0.000001 -3.632891  0.000009
     spin moment: S , {S} =    0.00000  -0.00000  -0.00000   0.00000
   scf:   28    -4145.762162    -4145.762162    -4145.762162  0.000000 -3.632890  0.000005
     spin moment: S , {S} =    0.00000  -0.00000  -0.00000   0.00000
   scf:   29    -4145.762162    -4145.762162    -4145.762162  0.000000 -3.632890  0.000003
     spin moment: S , {S} =    0.00000  -0.00000  -0.00000   0.00000
   scf:   30    -4145.762162    -4145.762162    -4145.762162  0.000000 -3.632890  0.000001
     spin moment: S , {S} =    0.00000  -0.00000  -0.00000   0.00000

SCF Convergence by DM+H criterion
max |DM_out - DM_in|         :     0.0000002890
max |H_out - H_in|      (eV) :     0.0000009480
SCF cycle converged after 30 iterations

Using DM_out to compute the final energy and forces
No. of atoms with KB's overlaping orbs in proc 0. Max # of overlaps:      27     223

siesta: E_KS(eV) =            -4145.7622

siesta: E_KS - E_eggbox =     -4145.7622
     spin moment: S , {S} =    0.00000  -0.00000  -0.00000   0.00000

siesta: Atomic forces (eV/Ang):
     1    0.027932    0.016705   -0.000000
     2    0.380587   -0.238760    0.000000
     3   -0.334842    0.056801   -0.000000
     4    0.060383    0.123843    0.000000
     5    0.194671    0.152725   -0.000000
     6   -0.021374   -0.012271    0.000000
     7   -1.105927   -0.417979   -0.000000
     8   -2.965669    5.375793   -0.000000
     9   -0.896720    1.262920    0.000000
    10   -0.123821    0.313165   -0.000000
    11    0.349310    0.723837    0.000000
    12   -0.889641    0.510055   -0.000000
    13   -5.220050    0.503109   -0.000000
    14   -0.021686    0.018291    0.000000
    15   -0.069943   -0.036755   -0.000000
    16   -0.023629    0.008896    0.000000
    17   -0.013481    0.035214   -0.000000
    18   -0.036481   -0.019244   -0.000000
    19   -0.208026   -0.022105    0.000000
    20    1.245233   -0.193082    0.000000
    21    4.778592  -10.306071   -0.000000
    22    0.190605   -1.259837    0.000000
    23   -0.279554    0.236479   -0.000000
    24    0.404602    0.431266    0.000000
    25    1.862396   -3.571032   -0.000000
    26    0.218020   -0.250726    0.000000
    27    0.038125   -0.344300    0.000000
    28    0.012667   -0.559108   -0.000000
    29    0.228101    0.251295   -0.000000
----------------------------------------
   Tot   -2.219620   -7.210876    0.000000
----------------------------------------
   Max   10.306071
   Res    1.593385    sqrt( Sum f_i^2 / 3N )
----------------------------------------
   Max   10.306071    constrained

Stress tensor Voigt[x,y,z,yz,xz,xy] (kbar):       -0.95       -2.48       -0.03       -0.00       -0.00        1.89
(Free)E + p*V (eV/cell)    -4136.0291
Target enthalpy (eV/cell)    -4145.7622

siesta: Stress tensor (static) (eV/Ang**3):
        -0.000594    0.001177    0.000000
         0.001177   -0.001548    0.000000
        -0.000000   -0.000000   -0.000021

siesta: Pressure (static):          1.15513227  kBar

siesta: Stress tensor (total) (eV/Ang**3):
        -0.000594    0.001177    0.000000
         0.001177   -0.001548    0.000000
        -0.000000   -0.000000   -0.000021

siesta: Pressure (total):          1.15513227  kBar

siesta: Temp_ion =       0.000 K

siesta: Eigenvalues (eV):
ik =     1
  -24.0606  -24.0606  -23.9329  -23.9329  -21.5205  -21.5205  -21.0826  -21.0826  -20.5952  -20.5952
  -20.2120  -20.2120  -19.7869  -19.7869  -19.4107  -19.4107  -19.2430  -19.2430  -19.1109  -19.1109
  -14.6968  -14.6968  -14.0344  -14.0344  -13.4150  -13.4150  -13.3269  -13.3269  -12.9630  -12.9630
  -12.8812  -12.8812  -12.3071  -12.3071  -12.1488  -12.1488  -12.0151  -12.0151  -11.9017  -11.9017
  -10.8523  -10.8523  -10.6256  -10.6256  -10.4606  -10.4606  -10.1056  -10.1056   -9.9795   -9.9795
   -9.6847   -9.6847   -9.0698   -9.0698   -8.8408   -8.8408   -8.7923   -8.7923   -8.6964   -8.6964
   -8.4040   -8.4040   -8.2899   -8.2899   -8.2561   -8.2561   -8.0124   -8.0124   -7.7357   -7.7357
   -7.6955   -7.6955   -7.4464   -7.4464   -7.3085   -7.3085   -7.2970   -7.2970   -6.7747   -6.7747
   -6.5644   -6.5644   -6.5015   -6.5015   -6.2783   -6.2783   -6.1862   -6.1862   -6.0117   -6.0117
   -5.6902   -5.6902   -5.5569   -5.5569   -5.3659   -5.3659   -4.1935   -4.1935   -3.0732   -3.0732
   -2.2836   -2.2836   -2.2317   -2.2317   -2.0627   -2.0627   -1.9046   -1.9046   -1.8105   -1.8105
   -1.7451   -1.7451   -1.5074   -1.5074   -1.4332   -1.4332   -1.1724   -1.1724   -0.8649   -0.8649
   -0.8610   -0.8610   -0.5129   -0.5129   -0.2881   -0.2881   -0.1950   -0.1950    0.5921    0.5921
    0.5958    0.5958    0.6619    0.6619    0.7813    0.7813    1.0196    1.0196    1.2590    1.2590
    1.5354    1.5354    1.5741    1.5741    1.6774    1.6774    1.7462    1.7462    2.2050    2.2050
    2.4218    2.4218    2.7188    2.7188    2.7801    2.7801    2.8867    2.8867    3.0183    3.0183
    3.1904    3.1904    3.5028    3.5028    3.5151    3.5151    3.6644    3.6644    3.7852    3.7852
    4.1274    4.1274    4.1875    4.1875    4.2868    4.2868    4.4189    4.4189    4.5848    4.5848
    4.6362    4.6362    4.9129    4.9129    5.1696    5.1696    5.2283    5.2283    5.4347    5.4347
    5.4791    5.4791    5.7337    5.7337    5.8247    5.8247    5.9390    5.9390    6.0544    6.0544
    6.4193    6.4193    6.5334    6.5334    6.5767    6.5767    6.7353    6.7353    6.7809    6.7809
    7.2362    7.2362    7.2649    7.2649    7.4176    7.4176    7.5127    7.5127    7.6500    7.6500
    7.7196    7.7196    7.8897    7.8897    7.9145    7.9145    8.1887    8.1887    8.3165    8.3165
    8.4631    8.4631    8.7856    8.7856    8.8302    8.8302    8.8756    8.8756    9.0371    9.0371
    9.1637    9.1637    9.2709    9.2709    9.6867    9.6867    9.6902    9.6902   10.1217   10.1217
   10.1510   10.1510   10.2409   10.2409   10.3204   10.3204   10.6970   10.6970   10.7725   10.7725
   11.0842   11.0842   11.3180   11.3180   11.4604   11.4604   11.5893   11.5893   11.7112   11.7112
   11.9085   11.9085   12.5317   12.5317   12.6537   12.6537   12.6987   12.6987   12.7507   12.7507
   12.8344   12.8344   13.0398   13.0398   13.5398   13.5398   13.7651   13.7651   14.1023   14.1023
   14.1055   14.1055   14.1422   14.1422   14.6247   14.6247   14.6866   14.6866   14.7696   14.7696
   15.1832   15.1832   15.5426   15.5426   16.0254   16.0254   16.0544   16.0544   16.0927   16.0927
   16.7890   16.7890   16.8660   16.8660   16.9819   16.9819   17.4434   17.4434   17.5375   17.5375
   18.0910   18.0910   18.5587   18.5587   18.7227   18.7227   19.3036   19.3036   19.7440   19.7440
   20.2683   20.2683   20.4284   20.4284   20.7418   20.7418   21.4957   21.4957   21.5187   21.5187
   22.0003   22.0003   22.3803   22.3803   22.6199   22.6199   23.2665   23.2665   23.8834   23.8834
   24.1233   24.1233   24.4707   24.4707   24.8308   24.8308   25.2850   25.2850   25.5446   25.5446
   26.5628   26.5628   27.1880   27.1880   27.6202   27.6202   28.3132   28.3132   29.0802   29.0802
   29.8878   29.8878   30.1357   30.1357   30.3195   30.3195   30.6656   30.6656   30.8861   30.8861
   31.1394   31.1394   31.1839   31.1839   31.6977   31.6977   31.9922   31.9922   32.1046   32.1046
   33.6413   33.6413   33.6532   33.6532   34.2263   34.2263   35.2570   35.2570   35.4051   35.4051
   35.5613   35.5613   35.6847   35.6847   36.1655   36.1655   36.5823   36.5823   37.1258   37.1258
   37.2826   37.2826   37.9353   37.9353   38.5680   38.5680   39.1175   39.1175   39.7215   39.7215
   39.8308   39.8308   40.4498   40.4498   40.5919   40.5919   40.6355   40.6355   40.7888   40.7888
   41.1074   41.1074   41.8727   41.8727   42.5257   42.5257   43.0399   43.0399   43.3450   43.3450
   43.3817   43.3817   43.6568   43.6568   43.6620   43.6620   44.2665   44.2665   44.6158   44.6158
   44.7717   44.7717   45.3309   45.3309   45.6939   45.6939   45.7808   45.7808   45.8495   45.8495
   46.2098   46.2098   46.7181   46.7181   47.1947   47.1947   47.2939   47.2939   47.7210   47.7210
   48.3483   48.3483   48.9692   48.9692   49.6702   49.6702   50.0983   50.0983   50.5182   50.5182
   51.0127   51.0127   51.0213   51.0213   51.6574   51.6574   52.4191   52.4191   52.6092   52.6092
   53.4072   53.4072   54.0571   54.0571   54.7207   54.7207   55.2482   55.2482   55.2769   55.2769
   56.2596   56.2596   56.2716   56.2716   57.0662   57.0662   57.3693   57.3693   57.9943   57.9943
   58.4830   58.4830   58.7581   58.7581   59.0058   59.0058   59.7776   59.7776   60.5770   60.5770
   60.9490   60.9490   61.8678   61.8678   62.2186   62.2186   63.4341   63.4341   64.4567   64.4567
   66.1707   66.1707   66.9705   66.9705   67.9234   67.9234   67.9967   67.9967   68.0991   68.0991
   70.7235   70.7235   71.6506   71.6506   73.2312   73.2312   74.3912   74.3912   78.9104   78.9104
   79.7462   79.7462   80.7221   80.7221   84.8763   84.8763   85.3574   85.3574   91.7225   91.7225
   93.2805   93.2805   94.2543   94.2543   97.7650   97.7650   98.8798   98.8798   99.6343   99.6343
  101.5543  101.5543  101.6529  101.6529  104.8549  104.8549  114.1520  114.1520  115.1267  115.1267
  122.9743  122.9743  125.1794  125.1794  126.9732  126.9732  130.8122  130.8122  142.8136  142.8136
  147.9751  147.9751  148.6661  148.6661
siesta: Fermi energy =      -3.632890 eV

siesta: Program's energy decomposition (eV):
siesta: Ebs     =     -1130.643525
siesta: Eions   =      3585.165840
siesta: Ena     =       385.663531
siesta: Ekin    =      2932.565850
siesta: Enl     =     -2813.240857
siesta: Eso     =        -0.004389
siesta: Edftu   =         0.000000
siesta: DEna    =        48.526743
siesta: DUscf   =        13.937018
siesta: DUext   =         0.000000
siesta: Exc     =     -1128.044219
siesta: eta*DQ  =         0.000000
siesta: Emadel  =         0.000000
siesta: Emeta   =         0.000000
siesta: Emolmec =         0.000000
siesta: Ekinion =         0.000000
siesta: Eharris =     -4145.762162
siesta: Etot    =     -4145.762162
siesta: FreeEng =     -4145.762162

siesta: Final energy (eV):
siesta:  Band Struct. =   -1130.643525
siesta:       Kinetic =    2932.565850
siesta:       Hartree =   16616.495679
siesta:       Edftu   =       0.000000
siesta:       Eso     =      -0.004389
siesta:    Ext. field =       0.000000
siesta:   Exch.-corr. =   -1128.044219
siesta:  Ion-electron =  -35831.399226
siesta:       Ion-ion =   13264.624142
siesta:       Ekinion =       0.000000
siesta:         Total =   -4145.762162
siesta:         Fermi =      -3.632890

siesta: Atomic forces (eV/Ang):
siesta:      1    0.027932    0.016705   -0.000000
siesta:      2    0.380587   -0.238760    0.000000
siesta:      3   -0.334842    0.056801   -0.000000
siesta:      4    0.060383    0.123843    0.000000
siesta:      5    0.194671    0.152725   -0.000000
siesta:      6   -0.021374   -0.012271    0.000000
siesta:      7   -1.105927   -0.417979   -0.000000
siesta:      8   -2.965669    5.375793   -0.000000
siesta:      9   -0.896720    1.262920    0.000000
siesta:     10   -0.123821    0.313165   -0.000000
siesta:     11    0.349310    0.723837    0.000000
siesta:     12   -0.889641    0.510055   -0.000000
siesta:     13   -5.220050    0.503109   -0.000000
siesta:     14   -0.021686    0.018291    0.000000
siesta:     15   -0.069943   -0.036755   -0.000000
siesta:     16   -0.023629    0.008896    0.000000
siesta:     17   -0.013481    0.035214   -0.000000
siesta:     18   -0.036481   -0.019244   -0.000000
siesta:     19   -0.208026   -0.022105    0.000000
siesta:     20    1.245233   -0.193082    0.000000
siesta:     21    4.778592  -10.306071   -0.000000
siesta:     22    0.190605   -1.259837    0.000000
siesta:     23   -0.279554    0.236479   -0.000000
siesta:     24    0.404602    0.431266    0.000000
siesta:     25    1.862396   -3.571032   -0.000000
siesta:     26    0.218020   -0.250726    0.000000
siesta:     27    0.038125   -0.344300    0.000000
siesta:     28    0.012667   -0.559108   -0.000000
siesta:     29    0.228101    0.251295   -0.000000
siesta: ----------------------------------------
siesta:    Tot   -2.219620   -7.210876    0.000000

siesta: Stress tensor (static) (eV/Ang**3):
siesta:    -0.000594    0.001177    0.000000
siesta:     0.001177   -0.001548    0.000000
siesta:    -0.000000   -0.000000   -0.000021

siesta: Cell volume =      13500.000000 Ang**3

siesta: Pressure (static):
siesta:                Solid            Molecule  Units
siesta:           0.00000785          0.00000260  Ry/Bohr**3
siesta:           0.00072097          0.00023908  eV/Ang**3
siesta:           1.15513227          0.38305693  kBar
(Free)E+ p_basis*V_orbitals  =       -4125.911745
(Free)Eharris+ p_basis*V_orbitals  =       -4125.911745
     spin moment: S , {S} =    0.00000  -0.00000  -0.00000   0.00000

siesta: Electric dipole (a.u.)  =   -0.035483    1.345470   -0.000000
siesta: Electric dipole (Debye) =   -0.090188    3.419847   -0.000000

cite: Please see "GC.bib" for an exhaustive BiBTeX file.
cite: Please clearly indicate Siesta version in published work: v4.1.5-1-g384057250
cite: This calculation has made use of the following articles
cite: which are encouraged to be cited in a published work.
        Primary SIESTA paper
          DOI: www.doi.org/10.1088/0953-8984/14/11/302
        Spin-orbit coupling (on-site approximation)
          DOI: www.doi.org/10.1088/0953-8984/19/19/489001


WARNING: alloc-realloc-dealloc name mismatch
         Name: atomlist isa
         Size:              -116. Bytes
         Node:     0
         Subsequent mismatches will not be reported
>> End of run:   1-FEB-2024  21:09:45
Job completed
