Siesta Version  : v4.1.5-1-g384057250
Architecture    : gcc
Compiler version: GNU Fortran (Ubuntu 11.4.0-1ubuntu1~22.04) 11.4.0
Compiler flags  : mpifort -O2 -fPIC -ftree-vectorize -fallow-argument-mismatch
PP flags        : -DFC_HAVE_ABORT -DMPI -DSIESTA__FLOOK -DSIESTA__METIS -DSIESTA__MUMPS -DCDF -DNCDF -DNCDF_4 -DNCDF_PARALLEL -DSIESTA__MRRR -DSIESTA__ELPA
Libraries       : libncdf.a libfdict.a  -lflookall -ldl -lnetcdff -lnetcdf -lhdf5_hl -lhdf5 -lhdf5_fortran -lz -lscalapack-openmpi -lopenblas -lmetis -lzmumps -lcmumps -ldmumps -lmumps_common -lpord -lsmumps -lesmumps -lscotch -lscotcherr -fopenmp -lelpa
PARALLEL version
NetCDF support
NetCDF-4 support
NetCDF-4 MPI-IO support
METIS ordering support
Lua support

* Running on 8 nodes in parallel
>> Start of run:   1-FEB-2024  21:33:31

                           ***********************       
                           *  WELCOME TO SIESTA  *       
                           ***********************       

reinit: Reading from standard input
reinit: Dumped input in INPUT_TMP.81970
************************** Dump of input data file ****************************
# mpirun -np 4 siesta-4.1.5 < GC.fdf > GC.out &
SystemLabel      GC
NumberOfAtoms    29
NumberOfSpecies  4
%block ChemicalSpeciesLabel
    1    1  H
    2    7  N
    3   14  Si
    4    8  O
%endblock ChemicalSpeciesLabel
############################################
# This overrides Defaults.fdf configuration
############################################
MD.TypeOfRun                Verlet # CG, Verlet
MD.Steps                    0
MaxSCFIterations            200
SCF.MustConverge            F
AtomicCoordinatesFormat NotScaledCartesianAng
%block AtomicCoordinatesAndAtomicSpecies
    0.8912241203761379 3.810582619899873 0.0  1  1  H
    0.18473739037613787 3.020546439899873 0.0  2  2  N
    -1.5455495196238622 3.4619103498998727 0.0  3  3  Si
    -1.7013291996238622 4.951902609899873 0.0  1  4  H
    -3.0688711396238624 1.903002829899873 0.0  3  5  Si
    -4.552058769623862 2.145833189899873 0.0  1  6  H
    -1.8704802796238622 -0.01027333010012707 0.0  3  7  Si
    -2.6365057396238623 -1.5429900701001271 0.0  2  8  N
    -2.046259189623862 -2.5002031001001273 0.0  1  9  H
    -3.688128059623862 -1.623450300100127 0.0  1  10  H
    -0.15428021962386212 0.044900979899872906 0.0  2  11  N
    0.9207424003761379 1.375239819899873 0.0  3  12  Si
    2.5294157203761376 1.356429559899873 0.0  4  13  O
    5.6164483 -7.44953905 0.0  1  14  H
    4.58206954 -7.2320376 0.0  2  15  N
    3.29666389 -8.492636 0.0  3  16  Si
    3.80117524 -9.90371886 -0.0  1  17  H
    1.65934232 -8.01362137 0.0  2  18  N
    1.68097912 -6.20463398 -0.0  3  19  Si
    0.54543521 -4.28636135 0.0  3  20  Si
    -1.03431493 -3.94450034 0.0  4  21  O
    1.73226934 -2.87719605 0.0  2  22  N
    1.20957366 -1.92961761 -0.0  1  23  H
    3.50853448 -2.77677601 0.0  3  24  Si
    4.13684451 -1.17938608 0.0  2  25  N
    3.54296161 -0.26248101 0.0  1  26  H
    5.18364407 -1.05231197 -0.0  1  27  H
    4.63288658 -4.07521596 -0.0  2  28  N
    3.79410501 -5.58634043 0.0  3  29  Si
%endblock AtomicCoordinatesAndAtomicSpecies
#############
# Unit Cell
#############
LatticeConstant 1.0 Ang
%block LatticeVectors
    30.00000    0.000000    0.000000
    0.000000    45.00000    0.000000
    0.000000    0.000000    10.00000
%endblock LatticeVectors
%include ../../../../Defaults.fdf
************************** End of input data file *****************************

reinit: -----------------------------------------------------------------------
reinit: System Name: 
reinit: -----------------------------------------------------------------------
reinit: System Label: GC
reinit: -----------------------------------------------------------------------

initatom: Reading input for the pseudopotentials and atomic orbitals ----------
Species number:   1 Atomic number:    1 Label: H
Species number:   2 Atomic number:    7 Label: N
Species number:   3 Atomic number:   14 Label: Si
Species number:   4 Atomic number:    8 Label: O

Ground state valence configuration:   1s01
Reading pseudopotential information in formatted form from H.psf

Pseudopotential generated from a relativistic atomic calculation

Valence configuration for pseudopotential generation:
1s( 1.00) rc: 0.01
2p( 0.00) rc: 0.60
3d( 0.00) rc: 1.99
4f( 0.00) rc: 2.49
Ground state valence configuration:   2s02  2p03
Reading pseudopotential information in formatted form from N.psf

Pseudopotential generated from a relativistic atomic calculation

Valence configuration for pseudopotential generation:
2s( 2.00) rc: 0.94
2p( 3.00) rc: 0.59
3d( 0.00) rc: 3.46
4f( 0.00) rc: 2.47
Ground state valence configuration:   3s02  3p02
Reading pseudopotential information in formatted form from Si.psf

Pseudopotential generated from a relativistic atomic calculation

Valence configuration for pseudopotential generation:
3s( 2.00) rc: 1.67
3p( 2.00) rc: 2.04
3d( 0.00) rc: 2.89
4f( 0.00) rc: 2.49
Ground state valence configuration:   2s02  2p04
Reading pseudopotential information in formatted form from O.psf

Pseudopotential generated from a relativistic atomic calculation

Valence configuration for pseudopotential generation:
2s( 2.00) rc: 0.45
2p( 4.00) rc: 0.92
3d( 0.00) rc: 2.24
4f( 0.00) rc: 0.25
For H, standard SIESTA heuristics set lmxkb to 2
 (one more than the basis l, including polarization orbitals).
Use PS.lmax or PS.KBprojectors blocks to override.
For N, standard SIESTA heuristics set lmxkb to 3
 (one more than the basis l, including polarization orbitals).
Use PS.lmax or PS.KBprojectors blocks to override.
For Si, standard SIESTA heuristics set lmxkb to 3
 (one more than the basis l, including polarization orbitals).
Use PS.lmax or PS.KBprojectors blocks to override.
For O, standard SIESTA heuristics set lmxkb to 3
 (one more than the basis l, including polarization orbitals).
Use PS.lmax or PS.KBprojectors blocks to override.

<basis_specs>
===============================================================================
H                    Z=   1    Mass=  1.0100        Charge= 0.17977+309
Lmxo=0 Lmxkb= 2    BasisType=split      Semic=F
L=0  Nsemic=0  Cnfigmx=1
          i=1  nzeta=2  polorb=1  (1s)
            splnorm:   0.62000    
               vcte:    0.0000    
               rinn:    0.0000    
               qcoe:    0.0000    
               qyuk:    0.0000    
               qwid:   0.10000E-01
                rcs:    0.0000      0.0000    
            lambdas:    1.0000      1.0000    
-------------------------------------------------------------------------------
L=0  Nkbl=1  erefs: 0.17977+309
L=1  Nkbl=1  erefs: 0.17977+309
L=2  Nkbl=1  erefs: 0.17977+309
===============================================================================
</basis_specs>

atom: Called for H                     (Z =   1)

read_vps: Pseudopotential generation method:
read_vps: ATM4.2.7  Troullier-Martins                       
Valence charge for ps generation:    1.00000

xc_check: Exchange-correlation functional:
xc_check: GGA Perdew, Burke & Ernzerhof 1996
V l=0 = -2*Zval/r beyond r=  0.0098
V l=1 = -2*Zval/r beyond r=  0.5817
V l=2 = -2*Zval/r beyond r=  1.9372
All V_l potentials equal beyond r=  1.9372
This should be close to max(r_c) in ps generation
All pots = -2*Zval/r beyond r=  1.9372

VLOCAL1: 99.0% of the norm of Vloc inside     11.567 Ry
VLOCAL1: 99.9% of the norm of Vloc inside     26.362 Ry
atom: Maximum radius for 4*pi*r*r*local-pseudopot. charge    2.25106
atom: Maximum radius for r*vlocal+2*Zval:    1.91306
GHOST: No ghost state for L =  0
GHOST: No ghost state for L =  1
GHOST: No ghost state for L =  2

KBgen: Kleinman-Bylander projectors: 
   l= 0   rc=  2.036604   el= -0.477180   Ekb= -6.081590   kbcos= -0.277285
   l= 1   rc=  2.195416   el=  0.001076   Ekb= -0.926943   kbcos= -0.034643
   l= 2   rc=  2.251056   el=  0.002010   Ekb= -0.130941   kbcos= -0.009788

KBgen: Total number of Kleinman-Bylander projectors:    9
atom: -------------------------------------------------------------------------

atom: SANKEY-TYPE ORBITALS:
atom: Selected multiple-zeta basis: split     

SPLIT: Orbitals with angular momentum L= 0

SPLIT: Basis orbitals for state 1s

SPLIT: PAO cut-off radius determined from an
SPLIT: energy shift=  0.002000 Ry

   izeta = 1
                 lambda =    1.000000
                     rc =    6.518340
                 energy =   -0.475305
                kinetic =    0.912139
    potential(screened) =   -1.387444
       potential(ionic) =   -1.907295

   izeta = 2
                 rmatch =    2.141150
              splitnorm =    0.620000
                 energy =    0.566467
                kinetic =    3.772856
    potential(screened) =   -3.206389
       potential(ionic) =   -3.759093

POLgen: Perturbative polarization orbital with L=  1

POLgen: Polarization orbital for state 1s

   izeta = 1
                     rc =    6.518340
                 energy =    0.533861
                kinetic =    1.121086
    potential(screened) =   -0.587225
       potential(ionic) =   -1.053027
atom: Total number of Sankey-type orbitals:  5

atm_pop: Valence configuration (for local Pseudopot. screening):
 1s( 1.00)                                                            
Vna: chval, zval:    1.00000   1.00000

Vna:  Cut-off radius for the neutral-atom potential:   6.518340

atom: _________________________________________________________________________

<basis_specs>
===============================================================================
N                    Z=   7    Mass=  14.010        Charge= 0.17977+309
Lmxo=1 Lmxkb= 3    BasisType=split      Semic=F
L=0  Nsemic=0  Cnfigmx=2
          i=1  nzeta=2  polorb=0  (2s)
            splnorm:   0.28000    
               vcte:    0.0000    
               rinn:    0.0000    
               qcoe:    0.0000    
               qyuk:    0.0000    
               qwid:   0.10000E-01
                rcs:    0.0000      0.0000    
            lambdas:    1.0000      1.0000    
L=1  Nsemic=0  Cnfigmx=2
          i=1  nzeta=2  polorb=1  (2p)
            splnorm:   0.28000    
               vcte:    0.0000    
               rinn:    0.0000    
               qcoe:    0.0000    
               qyuk:    0.0000    
               qwid:   0.10000E-01
                rcs:    0.0000      0.0000    
            lambdas:    1.0000      1.0000    
-------------------------------------------------------------------------------
L=0  Nkbl=1  erefs: 0.17977+309
L=1  Nkbl=1  erefs: 0.17977+309
L=2  Nkbl=1  erefs: 0.17977+309
L=3  Nkbl=1  erefs: 0.17977+309
===============================================================================
</basis_specs>

atom: Called for N                     (Z =   7)

read_vps: Pseudopotential generation method:
read_vps: ATM4.2.7  Troullier-Martins                       
Valence charge for ps generation:    5.00000

xc_check: Exchange-correlation functional:
xc_check: GGA Perdew, Burke & Ernzerhof 1996
V l=0 = -2*Zval/r beyond r=  1.2889
V l=1 = -2*Zval/r beyond r=  1.2889
V l=2 = -2*Zval/r beyond r=  3.4178
V l=3 = -2*Zval/r beyond r=  2.4084
All V_l potentials equal beyond r=  3.3753
This should be close to max(r_c) in ps generation
All pots = -2*Zval/r beyond r=  3.4178

VLOCAL1: 99.0% of the norm of Vloc inside      3.810 Ry
VLOCAL1: 99.9% of the norm of Vloc inside      8.683 Ry
atom: Maximum radius for 4*pi*r*r*local-pseudopot. charge    4.02088
atom: Maximum radius for r*vlocal+2*Zval:    3.54838
GHOST: No ghost state for L =  0
GHOST: No ghost state for L =  1
GHOST: No ghost state for L =  2
GHOST: No ghost state for L =  3

KBgen: Kleinman-Bylander projectors: 
   l= 0   rc=  3.417763   el= -1.365098   Ekb= -4.433130   kbcos= -0.707855
   l= 1   rc=  3.375302   el= -0.521201   Ekb=-13.264039   kbcos= -0.535594
   l= 2   rc=  3.872880   el=  0.001991   Ekb= -0.641094   kbcos= -0.062456
   l= 3   rc=  3.970931   el=  0.003093   Ekb= -0.474517   kbcos= -0.018236

KBgen: Total number of Kleinman-Bylander projectors:   16
atom: -------------------------------------------------------------------------

atom: SANKEY-TYPE ORBITALS:
atom: Selected multiple-zeta basis: split     

SPLIT: Orbitals with angular momentum L= 0

SPLIT: Basis orbitals for state 2s

SPLIT: PAO cut-off radius determined from an
SPLIT: energy shift=  0.002000 Ry

   izeta = 1
                 lambda =    1.000000
                     rc =    4.730425
                 energy =   -1.363399
                kinetic =    1.245246
    potential(screened) =   -2.608645
       potential(ionic) =   -8.121105

   izeta = 2
                 rmatch =    2.531849
              splitnorm =    0.280000
                 energy =   -0.959908
                kinetic =    2.409435
    potential(screened) =   -3.369343
       potential(ionic) =   -9.427975

SPLIT: Orbitals with angular momentum L= 1

SPLIT: Basis orbitals for state 2p

SPLIT: PAO cut-off radius determined from an
SPLIT: energy shift=  0.002000 Ry

   izeta = 1
                 lambda =    1.000000
                     rc =    5.924108
                 energy =   -0.519262
                kinetic =    3.672940
    potential(screened) =   -4.192202
       potential(ionic) =   -9.518354

   izeta = 2
                 rmatch =    2.531849
              splitnorm =    0.280000
                 energy =   -0.104258
                kinetic =    6.807538
    potential(screened) =   -6.911796
       potential(ionic) =  -13.149920

POLgen: Perturbative polarization orbital with L=  2

POLgen: Polarization orbital for state 2p

   izeta = 1
                     rc =    5.924108
                 energy =    1.427508
                kinetic =    2.872379
    potential(screened) =   -1.444871
       potential(ionic) =   -5.563644
atom: Total number of Sankey-type orbitals: 13

atm_pop: Valence configuration (for local Pseudopot. screening):
 2s( 2.00)                                                            
 2p( 3.00)                                                            
Vna: chval, zval:    5.00000   5.00000

Vna:  Cut-off radius for the neutral-atom potential:   5.924108

atom: _________________________________________________________________________

<basis_specs>
===============================================================================
Si                   Z=  14    Mass=  28.090        Charge= 0.17977+309
Lmxo=1 Lmxkb= 3    BasisType=split      Semic=F
L=0  Nsemic=0  Cnfigmx=3
          i=1  nzeta=2  polorb=0  (3s)
            splnorm:   0.28000    
               vcte:    0.0000    
               rinn:    0.0000    
               qcoe:    0.0000    
               qyuk:    0.0000    
               qwid:   0.10000E-01
                rcs:    0.0000      0.0000    
            lambdas:    1.0000      1.0000    
L=1  Nsemic=0  Cnfigmx=3
          i=1  nzeta=2  polorb=1  (3p)
            splnorm:   0.28000    
               vcte:    0.0000    
               rinn:    0.0000    
               qcoe:    0.0000    
               qyuk:    0.0000    
               qwid:   0.10000E-01
                rcs:    0.0000      0.0000    
            lambdas:    1.0000      1.0000    
-------------------------------------------------------------------------------
L=0  Nkbl=1  erefs: 0.17977+309
L=1  Nkbl=1  erefs: 0.17977+309
L=2  Nkbl=1  erefs: 0.17977+309
L=3  Nkbl=1  erefs: 0.17977+309
===============================================================================
</basis_specs>

atom: Called for Si                    (Z =  14)

read_vps: Pseudopotential generation method:
read_vps: ATM4.2.7  Troullier-Martins                       
Valence charge for ps generation:    4.00000

xc_check: Exchange-correlation functional:
xc_check: GGA Perdew, Burke & Ernzerhof 1996
V l=0 = -2*Zval/r beyond r=  2.7826
V l=1 = -2*Zval/r beyond r=  2.7826
V l=2 = -2*Zval/r beyond r=  2.9253
V l=3 = -2*Zval/r beyond r=  2.7826
All V_l potentials equal beyond r=  2.8530
This should be close to max(r_c) in ps generation
All pots = -2*Zval/r beyond r=  2.9253

VLOCAL1: 99.0% of the norm of Vloc inside      5.333 Ry
VLOCAL1: 99.9% of the norm of Vloc inside     12.154 Ry
atom: Maximum radius for 4*pi*r*r*local-pseudopot. charge    3.39869
atom: Maximum radius for r*vlocal+2*Zval:    2.96205
GHOST: No ghost state for L =  0
GHOST: No ghost state for L =  1
GHOST: No ghost state for L =  2
GHOST: No ghost state for L =  3

KBgen: Kleinman-Bylander projectors: 
   l= 0   rc=  3.075247   el= -0.794092   Ekb=  5.879390   kbcos=  0.167461
   l= 1   rc=  3.153101   el= -0.300068   Ekb=  2.642817   kbcos=  0.058301
   l= 2   rc=  3.273594   el=  0.001958   Ekb= -1.185135   kbcos= -0.104411
   l= 3   rc=  3.232927   el=  0.003046   Ekb= -0.497174   kbcos= -0.015889

KBgen: Total number of Kleinman-Bylander projectors:   16
atom: -------------------------------------------------------------------------

atom: SANKEY-TYPE ORBITALS:
atom: Selected multiple-zeta basis: split     

SPLIT: Orbitals with angular momentum L= 0

SPLIT: Basis orbitals for state 3s

SPLIT: PAO cut-off radius determined from an
SPLIT: energy shift=  0.002000 Ry

   izeta = 1
                 lambda =    1.000000
                     rc =    6.429618
                 energy =   -0.792283
                kinetic =    0.525293
    potential(screened) =   -1.317576
       potential(ionic) =   -3.744923

   izeta = 2
                 rmatch =    3.998416
              splitnorm =    0.280000
                 energy =   -0.583081
                kinetic =    1.069570
    potential(screened) =   -1.652651
       potential(ionic) =   -4.235185

SPLIT: Orbitals with angular momentum L= 1

SPLIT: Basis orbitals for state 3p

SPLIT: PAO cut-off radius determined from an
SPLIT: energy shift=  0.002000 Ry

   izeta = 1
                 lambda =    1.000000
                     rc =    8.464845
                 energy =   -0.298236
                kinetic =    0.785360
    potential(screened) =   -1.083596
       potential(ionic) =   -3.273779

   izeta = 2
                 rmatch =    4.587816
              splitnorm =    0.280000
                 energy =   -0.131871
                kinetic =    1.403687
    potential(screened) =   -1.535557
       potential(ionic) =   -4.015310

POLgen: Perturbative polarization orbital with L=  2

POLgen: Polarization orbital for state 3p

   izeta = 1
                     rc =    8.464845
                 energy =    0.321949
                kinetic =    1.055677
    potential(screened) =   -0.733728
       potential(ionic) =   -2.672950
atom: Total number of Sankey-type orbitals: 13

atm_pop: Valence configuration (for local Pseudopot. screening):
 3s( 2.00)                                                            
 3p( 2.00)                                                            
Vna: chval, zval:    4.00000   4.00000

Vna:  Cut-off radius for the neutral-atom potential:   8.464845

atom: _________________________________________________________________________

<basis_specs>
===============================================================================
O                    Z=   8    Mass=  16.000        Charge= 0.17977+309
Lmxo=1 Lmxkb= 3    BasisType=split      Semic=F
L=0  Nsemic=0  Cnfigmx=2
          i=1  nzeta=2  polorb=0  (2s)
            splnorm:   0.28000    
               vcte:    0.0000    
               rinn:    0.0000    
               qcoe:    0.0000    
               qyuk:    0.0000    
               qwid:   0.10000E-01
                rcs:    0.0000      0.0000    
            lambdas:    1.0000      1.0000    
L=1  Nsemic=0  Cnfigmx=2
          i=1  nzeta=2  polorb=1  (2p)
            splnorm:   0.28000    
               vcte:    0.0000    
               rinn:    0.0000    
               qcoe:    0.0000    
               qyuk:    0.0000    
               qwid:   0.10000E-01
                rcs:    0.0000      0.0000    
            lambdas:    1.0000      1.0000    
-------------------------------------------------------------------------------
L=0  Nkbl=1  erefs: 0.17977+309
L=1  Nkbl=1  erefs: 0.17977+309
L=2  Nkbl=1  erefs: 0.17977+309
L=3  Nkbl=1  erefs: 0.17977+309
===============================================================================
</basis_specs>

atom: Called for O                     (Z =   8)

read_vps: Pseudopotential generation method:
read_vps: ATM4.2.7  Troullier-Martins                       
Valence charge for ps generation:    6.00000

xc_check: Exchange-correlation functional:
xc_check: GGA Perdew, Burke & Ernzerhof 1996
V l=0 = -2*Zval/r beyond r=  1.1000
V l=1 = -2*Zval/r beyond r=  1.1000
V l=2 = -2*Zval/r beyond r=  2.2154
V l=3 = -2*Zval/r beyond r=  1.1000
All V_l potentials equal beyond r=  2.2154
This should be close to max(r_c) in ps generation
All pots = -2*Zval/r beyond r=  2.2154

VLOCAL1: 99.0% of the norm of Vloc inside      8.845 Ry
VLOCAL1: 99.9% of the norm of Vloc inside     20.157 Ry
atom: Maximum radius for 4*pi*r*r*local-pseudopot. charge    2.67231
atom: Maximum radius for r*vlocal+2*Zval:    2.32897
GHOST: No ghost state for L =  0
GHOST: No ghost state for L =  1
GHOST: No ghost state for L =  2
GHOST: No ghost state for L =  3

KBgen: Kleinman-Bylander projectors: 
   l= 0   rc=  2.243238   el= -1.759686   Ekb=**********   kbcos= -0.171774
   l= 1   rc=  2.328968   el= -0.663873   Ekb=-14.506792   kbcos= -0.519897
   l= 2   rc=  2.573941   el=  0.002031   Ekb= -1.137373   kbcos= -0.019581
   l= 3   rc=  2.606321   el=  0.003153   Ekb= -1.013546   kbcos= -0.003122

KBgen: Total number of Kleinman-Bylander projectors:   16
atom: -------------------------------------------------------------------------

atom: SANKEY-TYPE ORBITALS:
atom: Selected multiple-zeta basis: split     

SPLIT: Orbitals with angular momentum L= 0

SPLIT: Basis orbitals for state 2s

SPLIT: PAO cut-off radius determined from an
SPLIT: energy shift=  0.002000 Ry

   izeta = 1
                 lambda =    1.000000
                     rc =    4.243912
                 energy =   -1.758270
                kinetic =    3.286084
    potential(screened) =   -5.044353
       potential(ionic) =  -12.921184

   izeta = 2
                 rmatch =    2.187845
              splitnorm =    0.280000
                 energy =   -0.885018
                kinetic =    8.134434
    potential(screened) =   -9.019452
       potential(ionic) =  -17.710645

SPLIT: Orbitals with angular momentum L= 1

SPLIT: Basis orbitals for state 2p

SPLIT: PAO cut-off radius determined from an
SPLIT: energy shift=  0.002000 Ry

   izeta = 1
                 lambda =    1.000000
                     rc =    5.314825
                 energy =   -0.661986
                kinetic =    4.917472
    potential(screened) =   -5.579458
       potential(ionic) =  -13.236259

   izeta = 2
                 rmatch =    2.160663
              splitnorm =    0.280000
                 energy =   -0.068760
                kinetic =    9.183374
    potential(screened) =   -9.252135
       potential(ionic) =  -18.274251

POLgen: Perturbative polarization orbital with L=  2

POLgen: Polarization orbital for state 2p

   izeta = 1
                     rc =    5.314825
                 energy =    1.970580
                kinetic =    3.886128
    potential(screened) =   -1.915547
       potential(ionic) =   -7.749584
atom: Total number of Sankey-type orbitals: 13

atm_pop: Valence configuration (for local Pseudopot. screening):
 2s( 2.00)                                                            
 2p( 4.00)                                                            
Vna: chval, zval:    6.00000   6.00000

Vna:  Cut-off radius for the neutral-atom potential:   5.314825

atom: _________________________________________________________________________

prinput: Basis input ----------------------------------------------------------

PAO.BasisType split     

%block ChemicalSpeciesLabel
    1    1 H                       # Species index, atomic number, species label
    2    7 N                       # Species index, atomic number, species label
    3   14 Si                      # Species index, atomic number, species label
    4    8 O                       # Species index, atomic number, species label
%endblock ChemicalSpeciesLabel

%block PAO.Basis                 # Define Basis set
H                     1                    # Species label, number of l-shells
 n=1   0   2 P   1                   # n, l, Nzeta, Polarization, NzetaPol
   6.518      2.141   
   1.000      1.000   
N                     2                    # Species label, number of l-shells
 n=2   0   2                         # n, l, Nzeta 
   4.730      2.532   
   1.000      1.000   
 n=2   1   2 P   1                   # n, l, Nzeta, Polarization, NzetaPol
   5.924      2.532   
   1.000      1.000   
Si                    2                    # Species label, number of l-shells
 n=3   0   2                         # n, l, Nzeta 
   6.430      3.998   
   1.000      1.000   
 n=3   1   2 P   1                   # n, l, Nzeta, Polarization, NzetaPol
   8.465      4.588   
   1.000      1.000   
O                     2                    # Species label, number of l-shells
 n=2   0   2                         # n, l, Nzeta 
   4.244      2.188   
   1.000      1.000   
 n=2   1   2 P   1                   # n, l, Nzeta, Polarization, NzetaPol
   5.315      2.161   
   1.000      1.000   
%endblock PAO.Basis

prinput: ----------------------------------------------------------------------

Dumping basis to NetCDF file H.ion.nc
Dumping basis to NetCDF file N.ion.nc
Dumping basis to NetCDF file Si.ion.nc
Dumping basis to NetCDF file O.ion.nc
coor:   Atomic-coordinates input format  =     Cartesian coordinates
coor:                                          (in Angstroms)

siesta: Atomic coordinates (Bohr) and species
siesta:      1.68417   7.20096   0.00000  1        1
siesta:      0.34910   5.70801   0.00000  2        2
siesta:     -2.92067   6.54207   0.00000  3        3
siesta:     -3.21505   9.35774   0.00000  1        4
siesta:     -5.79933   3.59616   0.00000  3        5
siesta:     -8.60215   4.05504   0.00000  1        6
siesta:     -3.53470  -0.01941   0.00000  3        7
siesta:     -4.98228  -2.91583   0.00000  2        8
siesta:     -3.86687  -4.72470   0.00000  1        9
siesta:     -6.96955  -3.06788   0.00000  1       10
siesta:     -0.29155   0.08485   0.00000  2       11
siesta:      1.73995   2.59883   0.00000  3       12
siesta:      4.77990   2.56328   0.00000  4       13
siesta:     10.61355 -14.07759   0.00000  1       14
siesta:      8.65886 -13.66658   0.00000  2       15
siesta:      6.22979 -16.04876   0.00000  3       16
siesta:      7.18318 -18.71532  -0.00000  1       17
siesta:      3.13570 -15.14356   0.00000  2       18
siesta:      3.17659 -11.72506  -0.00000  3       19
siesta:      1.03072  -8.10005   0.00000  3       20
siesta:     -1.95457  -7.45403   0.00000  4       21
siesta:      3.27352  -5.43711   0.00000  2       22
siesta:      2.28576  -3.64645  -0.00000  1       23
siesta:      6.63017  -5.24735   0.00000  3       24
siesta:      7.81751  -2.22872   0.00000  2       25
siesta:      6.69523  -0.49602   0.00000  1       26
siesta:      9.79567  -1.98858  -0.00000  1       27
siesta:      8.75489  -7.70105  -0.00000  2       28
siesta:      7.16982 -10.55666   0.00000  3       29

siesta: System type = molecule  

initatomlists: Number of atoms, orbitals, and projectors:     29   297   394

siesta: ******************** Simulation parameters ****************************
siesta:
siesta: The following are some of the parameters of the simulation.
siesta: A complete list of the parameters used, including default values,
siesta: can be found in file out.fdf
siesta:
redata: Spin configuration                          = spin-orbit
redata: Number of spin components                   = 8
redata: Time-Reversal Symmetry                      = F
redata: Spin spiral                                 = F
############################################################
This spin-orbit implementation uses a local approximation.
From 4.2 and onwards the full non-local approximation is implemented
You are strongly advised to use >=4.2 versions!
############################################################
redata: Long output                                 =   F
redata: Number of Atomic Species                    =        4
redata: Charge density info will appear in .RHO file
redata: Write Mulliken Pop.                         = NO
redata: Matel table size (NRTAB)                    =     1024
redata: Mesh Cutoff                                 =   340.0000 Ry
redata: Net charge of the system                    =     0.0000 |e|
redata: Min. number of SCF Iter                     =        1
redata: Max. number of SCF Iter                     =      200
redata: SCF mix quantity                            = Hamiltonian
redata: Mix DM or H after convergence               =   F
redata: Recompute H after scf cycle                 =   F
redata: Mix DM in first SCF step                    =   T
redata: Write Pulay info on disk                    =   F
redata: New DM Occupancy tolerance                  = 0.000000000001
redata: No kicks to SCF
redata: DM Mixing Weight for Kicks                  =     0.5000
redata: Require Harris convergence for SCF          =   F
redata: Harris energy tolerance for SCF             =     0.000100 eV
redata: Require DM convergence for SCF              =   T
redata: DM tolerance for SCF                        =     0.000008
redata: Require EDM convergence for SCF             =   F
redata: EDM tolerance for SCF                       =     0.001000 eV
redata: Require H convergence for SCF               =   T
redata: Hamiltonian tolerance for SCF               =     0.000001 eV
redata: Require (free) Energy convergence for SCF   =   F
redata: (free) Energy tolerance for SCF             =     0.000100 eV
redata: Using Saved Data (generic)                  =   F
redata: Use continuation files for DM               =   T
redata: Neglect nonoverlap interactions             =   F
redata: Method of Calculation                       = Diagonalization
redata: Electronic Temperature                      =   299.9978 K
redata: Fix the spin of the system                  =   F
redata: Dynamics option                             = Verlet MD run
redata: Initial MD time step                        =        1
redata:   Final MD time step                        =        1
redata: Length of MD time step                      =     0.5000 fs
redata: Initial Temperature of MD run               =     0.0000 K
redata: Perform a MD quench                         =   F
mix.SCF: Pulay mixing                            = Pulay
mix.SCF:    Variant                              = stable
mix.SCF:    History steps                        = 6
mix.SCF:    Linear mixing weight                 =     0.250000
mix.SCF:    Mixing weight                        =     0.250000
mix.SCF:    SVD condition                        = 0.1000E-07
mix.SCF:    Restart steps                        = 24
mix.SCF:    Restart save steps                   = 3
mix.SCF: Spin-component mixing                   all
redata: Save all siesta data in one NC              =   F
redata: ***********************************************************************

%block SCF.Mixers
  Pulay
%endblock SCF.Mixers

%block SCF.Mixer.Pulay
  # Mixing method
  method pulay
  variant stable

  # Mixing options
  weight 0.2500
  weight.linear 0.2500
  history 6
  restart 24
  restart.save 3
%endblock SCF.Mixer.Pulay

Size of DM history Fstack: 3
Total number of electrons:    98.000000
Total ionic charge:    98.000000

* ProcessorY, Blocksize:    2  24


* Orbital distribution balance (max,min):    48    24


Time-reversal symmetry not used.

siesta: k-grid: Number of k-points =     1
siesta: k-grid: Cutoff (effective) =     5.000 Ang
siesta: k-grid: Supercell and displacements
siesta: k-grid:    1   0   0      0.000
siesta: k-grid:    0   1   0      0.000
siesta: k-grid:    0   0   1      0.000

diag: Algorithm                                     = ELPA-1stage
diag: Parallel over k                               =   F
diag: Use parallel 2D distribution                  =   T
diag: Parallel block-size                           = 24
diag: Parallel distribution                         =     2 x     4
diag: Used triangular part                          = Lower
diag: Absolute tolerance                            =  0.100E-15
diag: Orthogonalization factor                      =  0.100E-05
diag: Memory factor                                 =  1.0000


ts: **************************************************************
ts: Save H and S matrices                           =    F
ts: Save DM and EDM matrices                        =    F
ts: Only save the overlap matrix S                  =    F
ts: **************************************************************

************************ Begin: TS CHECKS AND WARNINGS ************************
************************ End: TS CHECKS AND WARNINGS **************************


                     ====================================
                        Begin MD step =      1
                     ====================================

outcoor: Atomic coordinates (Ang):                          
    0.89122412    3.81058262    0.00000000   1       1  H
    0.18473739    3.02054644    0.00000000   2       2  N
   -1.54554952    3.46191035    0.00000000   3       3  Si
   -1.70132920    4.95190261    0.00000000   1       4  H
   -3.06887114    1.90300283    0.00000000   3       5  Si
   -4.55205877    2.14583319    0.00000000   1       6  H
   -1.87048028   -0.01027333    0.00000000   3       7  Si
   -2.63650574   -1.54299007    0.00000000   2       8  N
   -2.04625919   -2.50020310    0.00000000   1       9  H
   -3.68812806   -1.62345030    0.00000000   1      10  H
   -0.15428022    0.04490098    0.00000000   2      11  N
    0.92074240    1.37523982    0.00000000   3      12  Si
    2.52941572    1.35642956    0.00000000   4      13  O
    5.61644830   -7.44953905    0.00000000   1      14  H
    4.58206954   -7.23203760    0.00000000   2      15  N
    3.29666389   -8.49263600    0.00000000   3      16  Si
    3.80117524   -9.90371886    0.00000000   1      17  H
    1.65934232   -8.01362137    0.00000000   2      18  N
    1.68097912   -6.20463398    0.00000000   3      19  Si
    0.54543521   -4.28636135    0.00000000   3      20  Si
   -1.03431493   -3.94450034    0.00000000   4      21  O
    1.73226934   -2.87719605    0.00000000   2      22  N
    1.20957366   -1.92961761    0.00000000   1      23  H
    3.50853448   -2.77677601    0.00000000   3      24  Si
    4.13684451   -1.17938608    0.00000000   2      25  N
    3.54296161   -0.26248101    0.00000000   1      26  H
    5.18364407   -1.05231197    0.00000000   1      27  H
    4.63288658   -4.07521596    0.00000000   2      28  N
    3.79410501   -5.58634043    0.00000000   3      29  Si

outcell: Unit cell vectors (Ang):
       30.000000    0.000000    0.000000
        0.000000   45.000000    0.000000
        0.000000    0.000000   10.000000

outcell: Cell vector modules (Ang)   :   30.000000   45.000000   10.000000
outcell: Cell angles (23,13,12) (deg):     90.0000     90.0000     90.0000
outcell: Cell volume (Ang**3)        :  13500.0000
<dSpData1D:S at geom step 1
  <sparsity:sparsity for geom step 1
    nrows_g=297 nrows=48 sparsity=.1309 nnzs=11543, refcount: 8>
  <dData1D:(new from dSpData1D) n=11543, refcount: 1>
refcount: 1>
new_DM -- step:     1
Initializing Density Matrix...

Attempting to read DM from file... Failed...
DM filled with atomic data:
<dSpData2D:DM initialized from atoms
  <sparsity:sparsity for geom step 1
    nrows_g=297 nrows=48 sparsity=.1309 nnzs=11543, refcount: 9>
  <dData2D:DM n=11543 m=8, refcount: 1>
refcount: 1>
     spin moment: S , {S} =   56.00000   0.00000   0.00000  56.00000
No. of atoms with KB's overlaping orbs in proc 0. Max # of overlaps:      27     194

Initializing spin-orbit part of the Hamiltonian
  Adding spin-orbit effects for H 
  Adding spin-orbit effects for N 
  Adding spin-orbit effects for Si
  Adding spin-orbit effects for O 


New grid distribution:   1
           1       1:  180    1:  125    1:   15
           2       1:  180    1:  125   16:   30
           3       1:  180    1:  125   31:   45
           4       1:  180    1:  125   46:   60
           5       1:  180  126:  250    1:   15
           6       1:  180  126:  250   16:   30
           7       1:  180  126:  250   31:   45
           8       1:  180  126:  250   46:   60

InitMesh: MESH =   360 x   500 x   120 =    21600000
InitMesh: (bp) =   180 x   250 x    60 =     2700000
InitMesh: Mesh cutoff (required, used) =   340.000   341.206 Ry
ExtMesh (bp) on 0 =   288 x   225 x   123 =     7970400
New grid distribution:   2
           1      27:  180   17:  217    1:   60
           2      27:  180    1:   16    1:   60
           3       1:   26  194:  217    1:   60
           4       1:   23  235:  250    1:   60
           5       1:   26    1:  193    1:   60
           6      24:  180  218:  236    1:   60
           7      24:  180  237:  250    1:   60
           8       1:   23  218:  234    1:   60
New grid distribution:   3
           1      42:  180   20:  202    1:   60
           2      36:  180  232:  250    1:   60
           3      42:  180    1:   19    1:   60
           4       1:   35  227:  250    1:   60
           5       1:   41   31:  202    1:   60
           6      36:  180  203:  231    1:   60
           7       1:   41    1:   30    1:   60
           8       1:   35  203:  226    1:   60
Setting up quadratic distribution...
ExtMesh (bp) on 0 =   262 x   301 x   168 =    13248816
PhiOnMesh: Number of (b)points on node 0 =              1857240
PhiOnMesh: nlist on node 0 =              1796235

stepf: Fermi-Dirac step function

siesta: Program's energy decomposition (eV):
siesta: Ebs     =      -589.241800
siesta: Eions   =      3585.165840
siesta: Ena     =       381.503306
siesta: Ekin    =      3360.691808
siesta: Enl     =     -3290.458507
siesta: Eso     =        -0.003442
siesta: Edftu   =         0.000000
siesta: DEna    =       153.854022
siesta: DUscf   =        77.965291
siesta: DUext   =         0.000000
siesta: Exc     =     -1202.752908
siesta: eta*DQ  =         0.000000
siesta: Emadel  =         0.000000
siesta: Emeta   =         0.000000
siesta: Emolmec =         0.000000
siesta: Ekinion =         0.000000
siesta: Eharris =     -4029.912244
siesta: Etot    =     -4104.366269
siesta: FreeEng =     -4104.367285

        iscf     Eharris(eV)        E_KS(eV)     FreeEng(eV)     dDmax    Ef(eV) dHmax(eV)
   scf:    1    -4029.912244    -4104.366269    -4104.367285  0.957885 -4.905375 20.546719
     spin moment: S , {S} =    2.00569   0.00000  -0.00000   2.00569
timer: Routine,Calls,Time,% = IterSCF        1      11.326  30.50
   scf:    2    -4148.768080    -4138.139177    -4138.140428  0.467039 -4.128441 11.614346
     spin moment: S , {S} =    1.99354  -0.00000   0.00000   1.99354
   scf:    3    -4108.586045    -4135.050278    -4135.068936  0.436213 -4.276561 12.370568
     spin moment: S , {S} =    2.00152   0.00000  -0.00000   2.00152
   scf:    4    -4151.589370    -4146.539565    -4146.539566  0.312232 -3.812912  6.039140
     spin moment: S , {S} =    0.00009  -0.00000  -0.00000   0.00009
   scf:    5    -4147.738527    -4147.232541    -4147.232541  0.039198 -3.580135  4.295416
     spin moment: S , {S} =    0.00006   0.00000   0.00000   0.00006
   scf:    6    -4147.977274    -4147.608443    -4147.608443  0.024058 -3.470819  2.174473
     spin moment: S , {S} =    0.00003  -0.00000  -0.00000   0.00003
   scf:    7    -4147.965287    -4147.785529    -4147.785529  0.021358 -3.590051  0.916994
     spin moment: S , {S} =    0.00001   0.00000  -0.00000   0.00001
   scf:    8    -4147.907325    -4147.844922    -4147.844922  0.012442 -3.608699  0.509146
     spin moment: S , {S} =    0.00000  -0.00000   0.00000   0.00000
   scf:    9    -4147.885870    -4147.864790    -4147.864790  0.007152 -3.640047  0.346752
     spin moment: S , {S} =    0.00000   0.00000   0.00000   0.00000
   scf:   10    -4147.914796    -4147.885676    -4147.885676  0.018097 -3.676101  0.157558
     spin moment: S , {S} =    0.00000   0.00000  -0.00000  -0.00000
   scf:   11    -4147.888662    -4147.887118    -4147.887118  0.004751 -3.667600  0.049093
     spin moment: S , {S} =    0.00000  -0.00000   0.00000  -0.00000
   scf:   12    -4147.887895    -4147.887511    -4147.887511  0.001819 -3.662274  0.029685
     spin moment: S , {S} =    0.00000  -0.00000  -0.00000   0.00000
   scf:   13    -4147.887959    -4147.887724    -4147.887724  0.001713 -3.660818  0.022903
     spin moment: S , {S} =    0.00000  -0.00000  -0.00000   0.00000
   scf:   14    -4147.888083    -4147.887889    -4147.887889  0.001873 -3.659825  0.017053
     spin moment: S , {S} =    0.00000   0.00000   0.00000   0.00000
   scf:   15    -4147.888166    -4147.888008    -4147.888008  0.002103 -3.659471  0.010681
     spin moment: S , {S} =    0.00000  -0.00000   0.00000   0.00000
   scf:   16    -4147.888141    -4147.888061    -4147.888061  0.001769 -3.659582  0.005032
     spin moment: S , {S} =    0.00000   0.00000  -0.00000   0.00000
   scf:   17    -4147.888084    -4147.888070    -4147.888070  0.000733 -3.659805  0.002799
     spin moment: S , {S} =    0.00000   0.00000  -0.00000   0.00000
   scf:   18    -4147.888076    -4147.888073    -4147.888073  0.000373 -3.659912  0.001121
     spin moment: S , {S} =    0.00000   0.00000  -0.00000   0.00000
   scf:   19    -4147.888074    -4147.888073    -4147.888073  0.000143 -3.659934  0.000521
     spin moment: S , {S} =    0.00000   0.00000  -0.00000  -0.00000
   scf:   20    -4147.888074    -4147.888073    -4147.888073  0.000041 -3.659902  0.000332
     spin moment: S , {S} =    0.00000   0.00000  -0.00000  -0.00000
   scf:   21    -4147.888074    -4147.888074    -4147.888074  0.000049 -3.659871  0.000200
     spin moment: S , {S} =    0.00000   0.00000  -0.00000  -0.00000
   scf:   22    -4147.888074    -4147.888074    -4147.888074  0.000016 -3.659850  0.000089
     spin moment: S , {S} =    0.00000   0.00000  -0.00000  -0.00000
   scf:   23    -4147.888074    -4147.888074    -4147.888074  0.000005 -3.659849  0.000056
     spin moment: S , {S} =    0.00000   0.00000  -0.00000  -0.00000
   scf:   24    -4147.888074    -4147.888074    -4147.888074  0.000004 -3.659845  0.000032
     spin moment: S , {S} =    0.00000   0.00000  -0.00000  -0.00000
mix: Pulay -- resetting history
   scf:   25    -4147.888074    -4147.888074    -4147.888074  0.000003 -3.659841  0.000014
     spin moment: S , {S} =    0.00000   0.00000  -0.00000  -0.00000
   scf:   26    -4147.888074    -4147.888074    -4147.888074  0.000001 -3.659839  0.000009
     spin moment: S , {S} =    0.00000   0.00000  -0.00000  -0.00000
   scf:   27    -4147.888074    -4147.888074    -4147.888074  0.000001 -3.659837  0.000004
     spin moment: S , {S} =    0.00000   0.00000  -0.00000   0.00000
   scf:   28    -4147.888074    -4147.888074    -4147.888074  0.000000 -3.659837  0.000003
     spin moment: S , {S} =    0.00000   0.00000  -0.00000   0.00000
   scf:   29    -4147.888074    -4147.888074    -4147.888074  0.000000 -3.659837  0.000002
     spin moment: S , {S} =    0.00000   0.00000  -0.00000   0.00000
   scf:   30    -4147.888074    -4147.888074    -4147.888074  0.000000 -3.659837  0.000001
     spin moment: S , {S} =    0.00000   0.00000  -0.00000   0.00000

SCF Convergence by DM+H criterion
max |DM_out - DM_in|         :     0.0000003737
max |H_out - H_in|      (eV) :     0.0000009818
SCF cycle converged after 30 iterations

Using DM_out to compute the final energy and forces
No. of atoms with KB's overlaping orbs in proc 0. Max # of overlaps:      27     194

siesta: E_KS(eV) =            -4147.8881

siesta: E_KS - E_eggbox =     -4147.8881
     spin moment: S , {S} =    0.00000   0.00000  -0.00000   0.00000

siesta: Atomic forces (eV/Ang):
     1    0.052335   -0.041432   -0.000000
     2   -0.096141    0.087987    0.000000
     3    0.116118   -0.023708   -0.000000
     4    0.000855    0.114694    0.000000
     5   -0.058258   -0.050737   -0.000000
     6   -0.001141    0.074465   -0.000000
     7    0.365118    0.199040    0.000000
     8    0.462305   -0.994114   -0.000000
     9   -0.357358    0.453204    0.000000
    10    0.172093   -0.096169    0.000000
    11   -0.181259   -0.133012   -0.000000
    12    0.302106   -0.113650   -0.000000
    13   -0.937897   -2.061367    0.000000
    14   -0.019327   -0.007503    0.000000
    15    0.025165    0.014294    0.000000
    16   -0.006896   -0.012399    0.000000
    17   -0.007499    0.043032    0.000000
    18   -0.038523    0.015185   -0.000000
    19    0.066012   -0.000823    0.000000
    20   -0.369028   -0.009532    0.000000
    21    0.583236   -3.486004   -0.000000
    22    0.007315    0.258957    0.000000
    23    0.094095   -0.227968   -0.000000
    24   -0.111296   -0.208519    0.000000
    25   -0.292887    0.676331   -0.000000
    26    0.241445   -0.315346    0.000000
    27   -0.116916   -0.021189   -0.000000
    28    0.008280    0.187030   -0.000000
    29   -0.087420   -0.104273   -0.000000
----------------------------------------
   Tot   -0.185369   -5.783524   -0.000000
----------------------------------------
   Max    3.486004
   Res    0.487560    sqrt( Sum f_i^2 / 3N )
----------------------------------------
   Max    3.486004    constrained

Stress tensor Voigt[x,y,z,yz,xz,xy] (kbar):        0.45        0.22       -0.04       -0.00        0.00       -0.30
(Free)E + p*V (eV/cell)    -4149.6588
Target enthalpy (eV/cell)    -4147.8881

siesta: Stress tensor (static) (eV/Ang**3):
         0.000281   -0.000186   -0.000000
        -0.000186    0.000138    0.000000
         0.000000   -0.000000   -0.000025

siesta: Pressure (static):         -0.21014646  kBar

siesta: Stress tensor (total) (eV/Ang**3):
         0.000281   -0.000186   -0.000000
        -0.000186    0.000138    0.000000
         0.000000   -0.000000   -0.000025

siesta: Pressure (total):         -0.21014646  kBar

siesta: Temp_ion =       0.000 K

siesta: Eigenvalues (eV):
ik =     1
  -22.4327  -22.4327  -21.9987  -21.9987  -21.2711  -21.2711  -21.0974  -21.0974  -20.9656  -20.9656
  -20.8082  -20.8082  -20.2772  -20.2772  -19.4826  -19.4826  -19.4308  -19.4308  -19.2048  -19.2048
  -14.7031  -14.7031  -13.6641  -13.6641  -13.1593  -13.1593  -12.9199  -12.9199  -12.8130  -12.8130
  -12.5898  -12.5898  -12.4405  -12.4405  -12.0215  -12.0215  -11.7401  -11.7401  -11.6333  -11.6333
  -10.9550  -10.9550  -10.7288  -10.7288  -10.5015  -10.5015  -10.3314  -10.3314  -10.0834  -10.0834
   -9.5701   -9.5701   -8.9624   -8.9624   -8.8094   -8.8094   -8.6734   -8.6734   -8.5049   -8.5049
   -8.4472   -8.4472   -8.2817   -8.2817   -8.2042   -8.2042   -7.8697   -7.8697   -7.6931   -7.6931
   -7.5231   -7.5231   -7.2216   -7.2216   -7.0409   -7.0409   -6.9350   -6.9350   -6.7374   -6.7374
   -6.4499   -6.4499   -6.4267   -6.4267   -6.2624   -6.2624   -6.2306   -6.2306   -6.1478   -6.1478
   -6.0657   -6.0657   -5.7944   -5.7944   -5.4846   -5.4846   -4.1641   -4.1641   -3.1556   -3.1556
   -2.2495   -2.2495   -2.1915   -2.1915   -2.0766   -2.0766   -1.7779   -1.7779   -1.7731   -1.7731
   -1.6943   -1.6943   -1.5707   -1.5707   -1.5391   -1.5391   -1.1192   -1.1192   -1.1006   -1.1006
   -0.8199   -0.8199   -0.4735   -0.4735   -0.3147   -0.3147   -0.1942   -0.1942    0.4681    0.4681
    0.5891    0.5891    0.6753    0.6753    0.7438    0.7438    1.1189    1.1189    1.2394    1.2394
    1.4790    1.4790    1.4821    1.4821    1.4982    1.4982    1.6731    1.6731    2.0704    2.0704
    2.1570    2.1570    2.6857    2.6857    2.7759    2.7759    2.8453    2.8453    2.9383    2.9383
    2.9621    2.9621    2.9888    2.9888    3.1501    3.1501    3.5654    3.5654    3.5881    3.5881
    3.9004    3.9004    4.1120    4.1120    4.2331    4.2331    4.2506    4.2506    4.4298    4.4298
    4.6598    4.6598    4.6948    4.6948    4.8603    4.8603    5.1532    5.1532    5.1640    5.1640
    5.3261    5.3261    5.4428    5.4428    5.7558    5.7558    5.8118    5.8118    6.0359    6.0359
    6.0422    6.0422    6.1007    6.1007    6.4526    6.4526    6.5247    6.5247    6.6374    6.6374
    6.7069    6.7069    6.7476    6.7476    6.9462    6.9462    7.0626    7.0626    7.1806    7.1806
    7.3805    7.3805    7.6716    7.6716    7.7848    7.7848    7.9050    7.9050    8.1207    8.1207
    8.1447    8.1447    8.2701    8.2701    8.4396    8.4396    8.5998    8.5998    8.8129    8.8129
    8.9195    8.9195    8.9888    8.9888    9.1321    9.1321    9.1987    9.1987    9.4616    9.4616
    9.5930    9.5930    9.9598    9.9598   10.0252   10.0252   10.0736   10.0736   10.2454   10.2454
   10.3764   10.3764   10.6449   10.6449   10.8684   10.8684   11.2712   11.2712   11.3422   11.3422
   11.3910   11.3910   11.6513   11.6513   12.3147   12.3147   12.3203   12.3203   12.4035   12.4035
   12.4930   12.4930   12.5880   12.5880   12.6462   12.6462   13.0723   13.0723   13.2083   13.2083
   13.5364   13.5364   13.5653   13.5653   13.6463   13.6463   13.9953   13.9953   14.0563   14.0563
   14.3035   14.3035   14.4102   14.4102   14.8990   14.8990   15.0232   15.0232   15.0390   15.0390
   15.4882   15.4882   16.0585   16.0585   16.5256   16.5256   16.7683   16.7683   16.9006   16.9006
   17.2650   17.2650   17.5853   17.5853   17.9083   17.9083   18.7483   18.7483   19.0073   19.0073
   19.3058   19.3058   19.9127   19.9127   20.3379   20.3379   20.4437   20.4437   20.7007   20.7007
   21.3372   21.3372   22.1210   22.1210   22.4021   22.4021   22.6630   22.6630   23.4019   23.4019
   23.5928   23.5928   24.0326   24.0326   24.1495   24.1495   24.5116   24.5116   25.3300   25.3300
   25.5531   25.5531   26.0934   26.0934   26.5078   26.5078   27.5995   27.5995   28.8418   28.8418
   29.4475   29.4475   29.7752   29.7752   30.1021   30.1021   30.4077   30.4077   30.5578   30.5578
   30.9632   30.9632   31.1171   31.1171   31.1379   31.1379   31.5786   31.5786   31.7370   31.7370
   32.0077   32.0077   32.2579   32.2579   33.4483   33.4483   33.9624   33.9624   34.1676   34.1676
   34.6171   34.6171   35.1410   35.1410   35.2956   35.2956   35.6136   35.6136   35.8693   35.8693
   36.3511   36.3511   36.3602   36.3602   36.7349   36.7349   37.1955   37.1955   38.0973   38.0973
   38.5953   38.5953   38.8994   38.8994   39.1908   39.1908   39.5358   39.5358   39.7092   39.7092
   39.9059   39.9059   40.1604   40.1604   40.8230   40.8230   41.1955   41.1955   41.4413   41.4413
   41.8652   41.8652   42.1389   42.1389   42.1846   42.1846   42.6290   42.6290   43.3696   43.3696
   43.5267   43.5267   43.8293   43.8293   44.0077   44.0077   44.3963   44.3963   44.5601   44.5601
   45.0123   45.0123   45.2705   45.2705   45.3888   45.3888   45.8190   45.8190   46.1290   46.1290
   46.4156   46.4156   47.1221   47.1221   47.7645   47.7645   47.8898   47.8898   49.1209   49.1209
   49.2318   49.2318   50.3642   50.3642   50.3770   50.3770   50.4779   50.4779   50.5897   50.5897
   50.9201   50.9201   51.3817   51.3817   52.0135   52.0135   52.6783   52.6783   53.4712   53.4712
   53.9137   53.9137   54.0051   54.0051   55.1244   55.1244   55.7561   55.7561   56.0013   56.0013
   56.0107   56.0107   56.3594   56.3594   57.2717   57.2717   58.0635   58.0635   58.1674   58.1674
   59.4665   59.4665   59.5352   59.5352   60.0504   60.0504   60.2764   60.2764   61.4623   61.4623
   61.9254   61.9254   62.1150   62.1150   62.4668   62.4668   62.5222   62.5222   65.8346   65.8346
   66.3300   66.3300   66.8066   66.8066   66.9187   66.9187   67.6596   67.6596   68.0259   68.0259
   68.3049   68.3049   70.2465   70.2465   70.9656   70.9656   74.8960   74.8960   80.2094   80.2094
   82.6751   82.6751   87.5339   87.5339   92.6833   92.6833   93.4420   93.4420   94.2179   94.2179
   99.0019   99.0019   99.4656   99.4656  101.9051  101.9051  103.8967  103.8967  104.9896  104.9896
  114.1217  114.1217  116.6836  116.6836  124.9695  124.9695  127.8574  127.8574  136.4110  136.4110
  143.1849  143.1849  145.2831  145.2831
siesta: Fermi energy =      -3.659837 eV

siesta: Program's energy decomposition (eV):
siesta: Ebs     =     -1121.507342
siesta: Eions   =      3585.165840
siesta: Ena     =       381.503306
siesta: Ekin    =      2905.936806
siesta: Enl     =     -2790.644945
siesta: Eso     =        -0.004302
siesta: Edftu   =         0.000000
siesta: DEna    =        47.719617
siesta: DUscf   =        13.731813
siesta: DUext   =         0.000000
siesta: Exc     =     -1120.964529
siesta: eta*DQ  =         0.000000
siesta: Emadel  =         0.000000
siesta: Emeta   =         0.000000
siesta: Emolmec =         0.000000
siesta: Ekinion =         0.000000
siesta: Eharris =     -4147.888074
siesta: Etot    =     -4147.888074
siesta: FreeEng =     -4147.888074

siesta: Final energy (eV):
siesta:  Band Struct. =   -1121.507342
siesta:       Kinetic =    2905.936806
siesta:       Hartree =   15746.981960
siesta:       Edftu   =       0.000000
siesta:       Eso     =      -0.004302
siesta:    Ext. field =       0.000000
siesta:   Exch.-corr. =   -1120.964529
siesta:  Ion-electron =  -34066.171477
siesta:       Ion-ion =   12386.333467
siesta:       Ekinion =       0.000000
siesta:         Total =   -4147.888074
siesta:         Fermi =      -3.659837

siesta: Atomic forces (eV/Ang):
siesta:      1    0.052335   -0.041432   -0.000000
siesta:      2   -0.096141    0.087987    0.000000
siesta:      3    0.116118   -0.023708   -0.000000
siesta:      4    0.000855    0.114694    0.000000
siesta:      5   -0.058258   -0.050737   -0.000000
siesta:      6   -0.001141    0.074465   -0.000000
siesta:      7    0.365118    0.199040    0.000000
siesta:      8    0.462305   -0.994114   -0.000000
siesta:      9   -0.357358    0.453204    0.000000
siesta:     10    0.172093   -0.096169    0.000000
siesta:     11   -0.181259   -0.133012   -0.000000
siesta:     12    0.302106   -0.113650   -0.000000
siesta:     13   -0.937897   -2.061367    0.000000
siesta:     14   -0.019327   -0.007503    0.000000
siesta:     15    0.025165    0.014294    0.000000
siesta:     16   -0.006896   -0.012399    0.000000
siesta:     17   -0.007499    0.043032    0.000000
siesta:     18   -0.038523    0.015185   -0.000000
siesta:     19    0.066012   -0.000823    0.000000
siesta:     20   -0.369028   -0.009532    0.000000
siesta:     21    0.583236   -3.486004   -0.000000
siesta:     22    0.007315    0.258957    0.000000
siesta:     23    0.094095   -0.227968   -0.000000
siesta:     24   -0.111296   -0.208519    0.000000
siesta:     25   -0.292887    0.676331   -0.000000
siesta:     26    0.241445   -0.315346    0.000000
siesta:     27   -0.116916   -0.021189   -0.000000
siesta:     28    0.008280    0.187030   -0.000000
siesta:     29   -0.087420   -0.104273   -0.000000
siesta: ----------------------------------------
siesta:    Tot   -0.185369   -5.783524   -0.000000

siesta: Stress tensor (static) (eV/Ang**3):
siesta:     0.000281   -0.000186   -0.000000
siesta:    -0.000186    0.000138    0.000000
siesta:     0.000000   -0.000000   -0.000025

siesta: Cell volume =      13500.000000 Ang**3

siesta: Pressure (static):
siesta:                Solid            Molecule  Units
siesta:          -0.00000143          0.00000038  Ry/Bohr**3
siesta:          -0.00013116          0.00003530  eV/Ang**3
siesta:          -0.21014646          0.05655127  kBar
(Free)E+ p_basis*V_orbitals  =       -4128.037656
(Free)Eharris+ p_basis*V_orbitals  =       -4128.037656
     spin moment: S , {S} =    0.00000   0.00000  -0.00000   0.00000

siesta: Electric dipole (a.u.)  =   -0.036765    1.477021    0.000000
siesta: Electric dipole (Debye) =   -0.093447    3.754214    0.000000

cite: Please see "GC.bib" for an exhaustive BiBTeX file.
cite: Please clearly indicate Siesta version in published work: v4.1.5-1-g384057250
cite: This calculation has made use of the following articles
cite: which are encouraged to be cited in a published work.
        Primary SIESTA paper
          DOI: www.doi.org/10.1088/0953-8984/14/11/302
        Spin-orbit coupling (on-site approximation)
          DOI: www.doi.org/10.1088/0953-8984/19/19/489001


WARNING: alloc-realloc-dealloc name mismatch
         Name: atomlist isa
         Size:              -116. Bytes
         Node:     0
         Subsequent mismatches will not be reported
>> End of run:   1-FEB-2024  21:37:07
Job completed
