Siesta Version  : v4.1.5-1-g384057250
Architecture    : gcc
Compiler version: GNU Fortran (Debian 10.2.1-6) 10.2.1 20210110
Compiler flags  : mpifort -O2 -fPIC -ftree-vectorize -fallow-argument-mismatch
PP flags        : -DFC_HAVE_ABORT -DMPI -DSIESTA__FLOOK -DSIESTA__METIS -DSIESTA__MUMPS -DCDF -DNCDF -DNCDF_4 -DNCDF_PARALLEL -DSIESTA__MRRR -DSIESTA__ELPA
Libraries       : libncdf.a libfdict.a  -lflookall -ldl -lnetcdff -lnetcdf -lhdf5_hl -lhdf5 -lhdf5_fortran -lz -lscalapack-openmpi -lopenblas -lmetis -lzmumps -lcmumps -ldmumps -lmumps_common -lpord -lsmumps -lesmumps -lscotch -lscotcherr -fopenmp -lelpa
PARALLEL version
NetCDF support
NetCDF-4 support
NetCDF-4 MPI-IO support
METIS ordering support
Lua support

* Running on 6 nodes in parallel
>> Start of run:  16-OCT-2023  18:18:50

                           ***********************       
                           *  WELCOME TO SIESTA  *       
                           ***********************       

reinit: Reading from standard input
reinit: Dumped input in INPUT_TMP.86318
************************** Dump of input data file ****************************
# mpirun -np 4 siesta-4.1.5 < GC.fdf > GC.out &
SystemLabel      GC
NumberOfAtoms    29
NumberOfSpecies  4
%block ChemicalSpeciesLabel
    1    1  H
    2    7  N
    3   14  Si
    4    8  O
%endblock ChemicalSpeciesLabel
############################################
# This overrides Defaults.fdf configuration
############################################
MD.TypeOfRun                CG # CG, Verlet
MD.Steps                    0
MaxSCFIterations            600
AtomicCoordinatesFormat NotScaledCartesianAng
%block AtomicCoordinatesAndAtomicSpecies
    0.9326947269991192 3.748861911429858 0.0  1  1  H
    0.22620799699911923 2.958825731429858 0.0  2  2  N
    -1.5040789130008807 3.400189641429858 0.0  3  3  Si
    -1.6598585930008807 4.890181901429858 0.0  1  4  H
    -3.027400533000881 1.841282121429858 0.0  3  5  Si
    -4.5105881630008815 2.084112481429858 0.0  1  6  H
    -1.8290096730008807 -0.07199403857014197 0.0  3  7  Si
    -2.5950351330008807 -1.604710778570142 0.0  2  8  N
    -2.004788583000881 -2.561923808570142 0.0  1  9  H
    -3.6466574530008806 -1.685171008570142 0.0  1  10  H
    -0.11280961300088077 -0.016819728570141995 0.0  2  11  N
    0.9622130069991192 1.313519111429858 0.0  3  12  Si
    2.570886326999119 1.2947088514298581 0.0  4  13  O
    5.6164483 -7.44953905 0.0  1  14  H
    4.58206954 -7.2320376 0.0  2  15  N
    3.29666389 -8.492636 0.0  3  16  Si
    3.80117524 -9.90371886 -0.0  1  17  H
    1.65934232 -8.01362137 0.0  2  18  N
    1.68097912 -6.20463398 -0.0  3  19  Si
    0.54543521 -4.28636135 0.0  3  20  Si
    -1.03431493 -3.94450034 0.0  4  21  O
    1.73226934 -2.87719605 0.0  2  22  N
    1.20957366 -1.92961761 -0.0  1  23  H
    3.50853448 -2.77677601 0.0  3  24  Si
    4.13684451 -1.17938608 0.0  2  25  N
    3.54296161 -0.26248101 0.0  1  26  H
    5.18364407 -1.05231197 -0.0  1  27  H
    4.63288658 -4.07521596 -0.0  2  28  N
    3.79410501 -5.58634043 0.0  3  29  Si
%endblock AtomicCoordinatesAndAtomicSpecies
%include ../../../../Defaults.fdf
************************** End of input data file *****************************

reinit: -----------------------------------------------------------------------
reinit: System Name: 
reinit: -----------------------------------------------------------------------
reinit: System Label: GC
reinit: -----------------------------------------------------------------------

initatom: Reading input for the pseudopotentials and atomic orbitals ----------
Species number:   1 Atomic number:    1 Label: H
Species number:   2 Atomic number:    7 Label: N
Species number:   3 Atomic number:   14 Label: Si
Species number:   4 Atomic number:    8 Label: O

Ground state valence configuration:   1s01
Reading pseudopotential information in formatted form from H.psf

Pseudopotential generated from a relativistic atomic calculation

Valence configuration for pseudopotential generation:
1s( 1.00) rc: 0.01
2p( 0.00) rc: 0.60
3d( 0.00) rc: 1.99
4f( 0.00) rc: 2.49
Ground state valence configuration:   2s02  2p03
Reading pseudopotential information in formatted form from N.psf

Pseudopotential generated from a relativistic atomic calculation

Valence configuration for pseudopotential generation:
2s( 2.00) rc: 0.94
2p( 3.00) rc: 0.59
3d( 0.00) rc: 3.46
4f( 0.00) rc: 2.47
Ground state valence configuration:   3s02  3p02
Reading pseudopotential information in formatted form from Si.psf

Pseudopotential generated from a relativistic atomic calculation

Valence configuration for pseudopotential generation:
3s( 2.00) rc: 1.67
3p( 2.00) rc: 2.04
3d( 0.00) rc: 2.89
4f( 0.00) rc: 2.49
Ground state valence configuration:   2s02  2p04
Reading pseudopotential information in formatted form from O.psf

Pseudopotential generated from a relativistic atomic calculation

Valence configuration for pseudopotential generation:
2s( 2.00) rc: 0.45
2p( 4.00) rc: 0.92
3d( 0.00) rc: 2.24
4f( 0.00) rc: 0.25
For H, standard SIESTA heuristics set lmxkb to 2
 (one more than the basis l, including polarization orbitals).
Use PS.lmax or PS.KBprojectors blocks to override.
For N, standard SIESTA heuristics set lmxkb to 3
 (one more than the basis l, including polarization orbitals).
Use PS.lmax or PS.KBprojectors blocks to override.
For Si, standard SIESTA heuristics set lmxkb to 3
 (one more than the basis l, including polarization orbitals).
Use PS.lmax or PS.KBprojectors blocks to override.
For O, standard SIESTA heuristics set lmxkb to 3
 (one more than the basis l, including polarization orbitals).
Use PS.lmax or PS.KBprojectors blocks to override.

<basis_specs>
===============================================================================
H                    Z=   1    Mass=  1.0100        Charge= 0.17977+309
Lmxo=0 Lmxkb= 2    BasisType=split      Semic=F
L=0  Nsemic=0  Cnfigmx=1
          i=1  nzeta=2  polorb=1  (1s)
            splnorm:   0.62000    
               vcte:    0.0000    
               rinn:    0.0000    
               qcoe:    0.0000    
               qyuk:    0.0000    
               qwid:   0.10000E-01
                rcs:    0.0000      0.0000    
            lambdas:    1.0000      1.0000    
-------------------------------------------------------------------------------
L=0  Nkbl=1  erefs: 0.17977+309
L=1  Nkbl=1  erefs: 0.17977+309
L=2  Nkbl=1  erefs: 0.17977+309
===============================================================================
</basis_specs>

atom: Called for H                     (Z =   1)

read_vps: Pseudopotential generation method:
read_vps: ATM4.2.7  Troullier-Martins                       
Valence charge for ps generation:    1.00000

xc_check: Exchange-correlation functional:
xc_check: GGA Perdew, Burke & Ernzerhof 1996
V l=0 = -2*Zval/r beyond r=  0.0098
V l=1 = -2*Zval/r beyond r=  0.5817
V l=2 = -2*Zval/r beyond r=  1.9372
All V_l potentials equal beyond r=  1.9372
This should be close to max(r_c) in ps generation
All pots = -2*Zval/r beyond r=  1.9372

VLOCAL1: 99.0% of the norm of Vloc inside     11.567 Ry
VLOCAL1: 99.9% of the norm of Vloc inside     26.362 Ry
atom: Maximum radius for 4*pi*r*r*local-pseudopot. charge    2.25106
atom: Maximum radius for r*vlocal+2*Zval:    1.91306
GHOST: No ghost state for L =  0
GHOST: No ghost state for L =  1
GHOST: No ghost state for L =  2

KBgen: Kleinman-Bylander projectors: 
   l= 0   rc=  2.036604   el= -0.477180   Ekb= -6.081590   kbcos= -0.277285
   l= 1   rc=  2.195416   el=  0.001076   Ekb= -0.926943   kbcos= -0.034643
   l= 2   rc=  2.251056   el=  0.002010   Ekb= -0.130941   kbcos= -0.009788

KBgen: Total number of Kleinman-Bylander projectors:    9
atom: -------------------------------------------------------------------------

atom: SANKEY-TYPE ORBITALS:
atom: Selected multiple-zeta basis: split     

SPLIT: Orbitals with angular momentum L= 0

SPLIT: Basis orbitals for state 1s

SPLIT: PAO cut-off radius determined from an
SPLIT: energy shift=  0.002000 Ry

   izeta = 1
                 lambda =    1.000000
                     rc =    6.518340
                 energy =   -0.475305
                kinetic =    0.912139
    potential(screened) =   -1.387444
       potential(ionic) =   -1.907295

   izeta = 2
                 rmatch =    2.141150
              splitnorm =    0.620000
                 energy =    0.566467
                kinetic =    3.772856
    potential(screened) =   -3.206389
       potential(ionic) =   -3.759093

POLgen: Perturbative polarization orbital with L=  1

POLgen: Polarization orbital for state 1s

   izeta = 1
                     rc =    6.518340
                 energy =    0.533861
                kinetic =    1.121086
    potential(screened) =   -0.587225
       potential(ionic) =   -1.053027
atom: Total number of Sankey-type orbitals:  5

atm_pop: Valence configuration (for local Pseudopot. screening):
 1s( 1.00)                                                            
Vna: chval, zval:    1.00000   1.00000

Vna:  Cut-off radius for the neutral-atom potential:   6.518340

atom: _________________________________________________________________________

<basis_specs>
===============================================================================
N                    Z=   7    Mass=  14.010        Charge= 0.17977+309
Lmxo=1 Lmxkb= 3    BasisType=split      Semic=F
L=0  Nsemic=0  Cnfigmx=2
          i=1  nzeta=2  polorb=0  (2s)
            splnorm:   0.28000    
               vcte:    0.0000    
               rinn:    0.0000    
               qcoe:    0.0000    
               qyuk:    0.0000    
               qwid:   0.10000E-01
                rcs:    0.0000      0.0000    
            lambdas:    1.0000      1.0000    
L=1  Nsemic=0  Cnfigmx=2
          i=1  nzeta=2  polorb=1  (2p)
            splnorm:   0.28000    
               vcte:    0.0000    
               rinn:    0.0000    
               qcoe:    0.0000    
               qyuk:    0.0000    
               qwid:   0.10000E-01
                rcs:    0.0000      0.0000    
            lambdas:    1.0000      1.0000    
-------------------------------------------------------------------------------
L=0  Nkbl=1  erefs: 0.17977+309
L=1  Nkbl=1  erefs: 0.17977+309
L=2  Nkbl=1  erefs: 0.17977+309
L=3  Nkbl=1  erefs: 0.17977+309
===============================================================================
</basis_specs>

atom: Called for N                     (Z =   7)

read_vps: Pseudopotential generation method:
read_vps: ATM4.2.7  Troullier-Martins                       
Valence charge for ps generation:    5.00000

xc_check: Exchange-correlation functional:
xc_check: GGA Perdew, Burke & Ernzerhof 1996
V l=0 = -2*Zval/r beyond r=  1.2889
V l=1 = -2*Zval/r beyond r=  1.2889
V l=2 = -2*Zval/r beyond r=  3.4178
V l=3 = -2*Zval/r beyond r=  2.4084
All V_l potentials equal beyond r=  3.3753
This should be close to max(r_c) in ps generation
All pots = -2*Zval/r beyond r=  3.4178

VLOCAL1: 99.0% of the norm of Vloc inside      3.810 Ry
VLOCAL1: 99.9% of the norm of Vloc inside      8.683 Ry
atom: Maximum radius for 4*pi*r*r*local-pseudopot. charge    4.02088
atom: Maximum radius for r*vlocal+2*Zval:    3.54838
GHOST: No ghost state for L =  0
GHOST: No ghost state for L =  1
GHOST: No ghost state for L =  2
GHOST: No ghost state for L =  3

KBgen: Kleinman-Bylander projectors: 
   l= 0   rc=  3.417763   el= -1.365098   Ekb= -4.433130   kbcos= -0.707855
   l= 1   rc=  3.375302   el= -0.521201   Ekb=-13.264039   kbcos= -0.535594
   l= 2   rc=  3.872880   el=  0.001991   Ekb= -0.641094   kbcos= -0.062456
   l= 3   rc=  3.970931   el=  0.003093   Ekb= -0.474517   kbcos= -0.018236

KBgen: Total number of Kleinman-Bylander projectors:   16
atom: -------------------------------------------------------------------------

atom: SANKEY-TYPE ORBITALS:
atom: Selected multiple-zeta basis: split     

SPLIT: Orbitals with angular momentum L= 0

SPLIT: Basis orbitals for state 2s

SPLIT: PAO cut-off radius determined from an
SPLIT: energy shift=  0.002000 Ry

   izeta = 1
                 lambda =    1.000000
                     rc =    4.730425
                 energy =   -1.363399
                kinetic =    1.245246
    potential(screened) =   -2.608645
       potential(ionic) =   -8.121105

   izeta = 2
                 rmatch =    2.531849
              splitnorm =    0.280000
                 energy =   -0.959908
                kinetic =    2.409435
    potential(screened) =   -3.369343
       potential(ionic) =   -9.427975

SPLIT: Orbitals with angular momentum L= 1

SPLIT: Basis orbitals for state 2p

SPLIT: PAO cut-off radius determined from an
SPLIT: energy shift=  0.002000 Ry

   izeta = 1
                 lambda =    1.000000
                     rc =    5.924108
                 energy =   -0.519262
                kinetic =    3.672940
    potential(screened) =   -4.192202
       potential(ionic) =   -9.518354

   izeta = 2
                 rmatch =    2.531849
              splitnorm =    0.280000
                 energy =   -0.104258
                kinetic =    6.807538
    potential(screened) =   -6.911796
       potential(ionic) =  -13.149920

POLgen: Perturbative polarization orbital with L=  2

POLgen: Polarization orbital for state 2p

   izeta = 1
                     rc =    5.924108
                 energy =    1.427508
                kinetic =    2.872379
    potential(screened) =   -1.444871
       potential(ionic) =   -5.563644
atom: Total number of Sankey-type orbitals: 13

atm_pop: Valence configuration (for local Pseudopot. screening):
 2s( 2.00)                                                            
 2p( 3.00)                                                            
Vna: chval, zval:    5.00000   5.00000

Vna:  Cut-off radius for the neutral-atom potential:   5.924108

atom: _________________________________________________________________________

<basis_specs>
===============================================================================
Si                   Z=  14    Mass=  28.090        Charge= 0.17977+309
Lmxo=1 Lmxkb= 3    BasisType=split      Semic=F
L=0  Nsemic=0  Cnfigmx=3
          i=1  nzeta=2  polorb=0  (3s)
            splnorm:   0.28000    
               vcte:    0.0000    
               rinn:    0.0000    
               qcoe:    0.0000    
               qyuk:    0.0000    
               qwid:   0.10000E-01
                rcs:    0.0000      0.0000    
            lambdas:    1.0000      1.0000    
L=1  Nsemic=0  Cnfigmx=3
          i=1  nzeta=2  polorb=1  (3p)
            splnorm:   0.28000    
               vcte:    0.0000    
               rinn:    0.0000    
               qcoe:    0.0000    
               qyuk:    0.0000    
               qwid:   0.10000E-01
                rcs:    0.0000      0.0000    
            lambdas:    1.0000      1.0000    
-------------------------------------------------------------------------------
L=0  Nkbl=1  erefs: 0.17977+309
L=1  Nkbl=1  erefs: 0.17977+309
L=2  Nkbl=1  erefs: 0.17977+309
L=3  Nkbl=1  erefs: 0.17977+309
===============================================================================
</basis_specs>

atom: Called for Si                    (Z =  14)

read_vps: Pseudopotential generation method:
read_vps: ATM4.2.7  Troullier-Martins                       
Valence charge for ps generation:    4.00000

xc_check: Exchange-correlation functional:
xc_check: GGA Perdew, Burke & Ernzerhof 1996
V l=0 = -2*Zval/r beyond r=  2.7826
V l=1 = -2*Zval/r beyond r=  2.7826
V l=2 = -2*Zval/r beyond r=  2.9253
V l=3 = -2*Zval/r beyond r=  2.7826
All V_l potentials equal beyond r=  2.8530
This should be close to max(r_c) in ps generation
All pots = -2*Zval/r beyond r=  2.9253

VLOCAL1: 99.0% of the norm of Vloc inside      5.333 Ry
VLOCAL1: 99.9% of the norm of Vloc inside     12.154 Ry
atom: Maximum radius for 4*pi*r*r*local-pseudopot. charge    3.39869
atom: Maximum radius for r*vlocal+2*Zval:    2.96205
GHOST: No ghost state for L =  0
GHOST: No ghost state for L =  1
GHOST: No ghost state for L =  2
GHOST: No ghost state for L =  3

KBgen: Kleinman-Bylander projectors: 
   l= 0   rc=  3.075247   el= -0.794092   Ekb=  5.879390   kbcos=  0.167461
   l= 1   rc=  3.153101   el= -0.300068   Ekb=  2.642817   kbcos=  0.058301
   l= 2   rc=  3.273594   el=  0.001958   Ekb= -1.185135   kbcos= -0.104411
   l= 3   rc=  3.232927   el=  0.003046   Ekb= -0.497174   kbcos= -0.015889

KBgen: Total number of Kleinman-Bylander projectors:   16
atom: -------------------------------------------------------------------------

atom: SANKEY-TYPE ORBITALS:
atom: Selected multiple-zeta basis: split     

SPLIT: Orbitals with angular momentum L= 0

SPLIT: Basis orbitals for state 3s

SPLIT: PAO cut-off radius determined from an
SPLIT: energy shift=  0.002000 Ry

   izeta = 1
                 lambda =    1.000000
                     rc =    6.429618
                 energy =   -0.792283
                kinetic =    0.525293
    potential(screened) =   -1.317576
       potential(ionic) =   -3.744923

   izeta = 2
                 rmatch =    3.998416
              splitnorm =    0.280000
                 energy =   -0.583081
                kinetic =    1.069570
    potential(screened) =   -1.652651
       potential(ionic) =   -4.235185

SPLIT: Orbitals with angular momentum L= 1

SPLIT: Basis orbitals for state 3p

SPLIT: PAO cut-off radius determined from an
SPLIT: energy shift=  0.002000 Ry

   izeta = 1
                 lambda =    1.000000
                     rc =    8.464845
                 energy =   -0.298236
                kinetic =    0.785360
    potential(screened) =   -1.083596
       potential(ionic) =   -3.273779

   izeta = 2
                 rmatch =    4.587816
              splitnorm =    0.280000
                 energy =   -0.131871
                kinetic =    1.403687
    potential(screened) =   -1.535557
       potential(ionic) =   -4.015310

POLgen: Perturbative polarization orbital with L=  2

POLgen: Polarization orbital for state 3p

   izeta = 1
                     rc =    8.464845
                 energy =    0.321949
                kinetic =    1.055677
    potential(screened) =   -0.733728
       potential(ionic) =   -2.672950
atom: Total number of Sankey-type orbitals: 13

atm_pop: Valence configuration (for local Pseudopot. screening):
 3s( 2.00)                                                            
 3p( 2.00)                                                            
Vna: chval, zval:    4.00000   4.00000

Vna:  Cut-off radius for the neutral-atom potential:   8.464845

atom: _________________________________________________________________________

<basis_specs>
===============================================================================
O                    Z=   8    Mass=  16.000        Charge= 0.17977+309
Lmxo=1 Lmxkb= 3    BasisType=split      Semic=F
L=0  Nsemic=0  Cnfigmx=2
          i=1  nzeta=2  polorb=0  (2s)
            splnorm:   0.28000    
               vcte:    0.0000    
               rinn:    0.0000    
               qcoe:    0.0000    
               qyuk:    0.0000    
               qwid:   0.10000E-01
                rcs:    0.0000      0.0000    
            lambdas:    1.0000      1.0000    
L=1  Nsemic=0  Cnfigmx=2
          i=1  nzeta=2  polorb=1  (2p)
            splnorm:   0.28000    
               vcte:    0.0000    
               rinn:    0.0000    
               qcoe:    0.0000    
               qyuk:    0.0000    
               qwid:   0.10000E-01
                rcs:    0.0000      0.0000    
            lambdas:    1.0000      1.0000    
-------------------------------------------------------------------------------
L=0  Nkbl=1  erefs: 0.17977+309
L=1  Nkbl=1  erefs: 0.17977+309
L=2  Nkbl=1  erefs: 0.17977+309
L=3  Nkbl=1  erefs: 0.17977+309
===============================================================================
</basis_specs>

atom: Called for O                     (Z =   8)

read_vps: Pseudopotential generation method:
read_vps: ATM4.2.7  Troullier-Martins                       
Valence charge for ps generation:    6.00000

xc_check: Exchange-correlation functional:
xc_check: GGA Perdew, Burke & Ernzerhof 1996
V l=0 = -2*Zval/r beyond r=  1.1000
V l=1 = -2*Zval/r beyond r=  1.1000
V l=2 = -2*Zval/r beyond r=  2.2154
V l=3 = -2*Zval/r beyond r=  1.1000
All V_l potentials equal beyond r=  2.2154
This should be close to max(r_c) in ps generation
All pots = -2*Zval/r beyond r=  2.2154

VLOCAL1: 99.0% of the norm of Vloc inside      8.845 Ry
VLOCAL1: 99.9% of the norm of Vloc inside     20.157 Ry
atom: Maximum radius for 4*pi*r*r*local-pseudopot. charge    2.67231
atom: Maximum radius for r*vlocal+2*Zval:    2.32897
GHOST: No ghost state for L =  0
GHOST: No ghost state for L =  1
GHOST: No ghost state for L =  2
GHOST: No ghost state for L =  3

KBgen: Kleinman-Bylander projectors: 
   l= 0   rc=  2.243238   el= -1.759686   Ekb=**********   kbcos= -0.171774
   l= 1   rc=  2.328968   el= -0.663873   Ekb=-14.506792   kbcos= -0.519897
   l= 2   rc=  2.573941   el=  0.002031   Ekb= -1.137373   kbcos= -0.019581
   l= 3   rc=  2.606321   el=  0.003153   Ekb= -1.013546   kbcos= -0.003122

KBgen: Total number of Kleinman-Bylander projectors:   16
atom: -------------------------------------------------------------------------

atom: SANKEY-TYPE ORBITALS:
atom: Selected multiple-zeta basis: split     

SPLIT: Orbitals with angular momentum L= 0

SPLIT: Basis orbitals for state 2s

SPLIT: PAO cut-off radius determined from an
SPLIT: energy shift=  0.002000 Ry

   izeta = 1
                 lambda =    1.000000
                     rc =    4.243912
                 energy =   -1.758270
                kinetic =    3.286084
    potential(screened) =   -5.044353
       potential(ionic) =  -12.921184

   izeta = 2
                 rmatch =    2.187845
              splitnorm =    0.280000
                 energy =   -0.885018
                kinetic =    8.134434
    potential(screened) =   -9.019452
       potential(ionic) =  -17.710645

SPLIT: Orbitals with angular momentum L= 1

SPLIT: Basis orbitals for state 2p

SPLIT: PAO cut-off radius determined from an
SPLIT: energy shift=  0.002000 Ry

   izeta = 1
                 lambda =    1.000000
                     rc =    5.314825
                 energy =   -0.661986
                kinetic =    4.917472
    potential(screened) =   -5.579458
       potential(ionic) =  -13.236259

   izeta = 2
                 rmatch =    2.160663
              splitnorm =    0.280000
                 energy =   -0.068760
                kinetic =    9.183374
    potential(screened) =   -9.252135
       potential(ionic) =  -18.274251

POLgen: Perturbative polarization orbital with L=  2

POLgen: Polarization orbital for state 2p

   izeta = 1
                     rc =    5.314825
                 energy =    1.970580
                kinetic =    3.886128
    potential(screened) =   -1.915547
       potential(ionic) =   -7.749584
atom: Total number of Sankey-type orbitals: 13

atm_pop: Valence configuration (for local Pseudopot. screening):
 2s( 2.00)                                                            
 2p( 4.00)                                                            
Vna: chval, zval:    6.00000   6.00000

Vna:  Cut-off radius for the neutral-atom potential:   5.314825

atom: _________________________________________________________________________

prinput: Basis input ----------------------------------------------------------

PAO.BasisType split     

%block ChemicalSpeciesLabel
    1    1 H                       # Species index, atomic number, species label
    2    7 N                       # Species index, atomic number, species label
    3   14 Si                      # Species index, atomic number, species label
    4    8 O                       # Species index, atomic number, species label
%endblock ChemicalSpeciesLabel

%block PAO.Basis                 # Define Basis set
H                     1                    # Species label, number of l-shells
 n=1   0   2 P   1                   # n, l, Nzeta, Polarization, NzetaPol
   6.518      2.141   
   1.000      1.000   
N                     2                    # Species label, number of l-shells
 n=2   0   2                         # n, l, Nzeta 
   4.730      2.532   
   1.000      1.000   
 n=2   1   2 P   1                   # n, l, Nzeta, Polarization, NzetaPol
   5.924      2.532   
   1.000      1.000   
Si                    2                    # Species label, number of l-shells
 n=3   0   2                         # n, l, Nzeta 
   6.430      3.998   
   1.000      1.000   
 n=3   1   2 P   1                   # n, l, Nzeta, Polarization, NzetaPol
   8.465      4.588   
   1.000      1.000   
O                     2                    # Species label, number of l-shells
 n=2   0   2                         # n, l, Nzeta 
   4.244      2.188   
   1.000      1.000   
 n=2   1   2 P   1                   # n, l, Nzeta, Polarization, NzetaPol
   5.315      2.161   
   1.000      1.000   
%endblock PAO.Basis

prinput: ----------------------------------------------------------------------

Dumping basis to NetCDF file H.ion.nc
Dumping basis to NetCDF file N.ion.nc
Dumping basis to NetCDF file Si.ion.nc
Dumping basis to NetCDF file O.ion.nc
coor:   Atomic-coordinates input format  =     Cartesian coordinates
coor:                                          (in Angstroms)

siesta: Atomic coordinates (Bohr) and species
siesta:      1.76254   7.08433   0.00000  1        1
siesta:      0.42747   5.59137   0.00000  2        2
siesta:     -2.84230   6.42543   0.00000  3        3
siesta:     -3.13668   9.24111   0.00000  1        4
siesta:     -5.72096   3.47952   0.00000  3        5
siesta:     -8.52378   3.93840   0.00000  1        6
siesta:     -3.45633  -0.13605   0.00000  3        7
siesta:     -4.90391  -3.03247   0.00000  2        8
siesta:     -3.78850  -4.84134   0.00000  1        9
siesta:     -6.89119  -3.18451   0.00000  1       10
siesta:     -0.21318  -0.03178   0.00000  2       11
siesta:      1.81832   2.48219   0.00000  3       12
siesta:      4.85827   2.44665   0.00000  4       13
siesta:     10.61355 -14.07759   0.00000  1       14
siesta:      8.65886 -13.66658   0.00000  2       15
siesta:      6.22979 -16.04876   0.00000  3       16
siesta:      7.18318 -18.71532  -0.00000  1       17
siesta:      3.13570 -15.14356   0.00000  2       18
siesta:      3.17659 -11.72506  -0.00000  3       19
siesta:      1.03072  -8.10005   0.00000  3       20
siesta:     -1.95457  -7.45403   0.00000  4       21
siesta:      3.27352  -5.43711   0.00000  2       22
siesta:      2.28576  -3.64645  -0.00000  1       23
siesta:      6.63017  -5.24735   0.00000  3       24
siesta:      7.81751  -2.22872   0.00000  2       25
siesta:      6.69523  -0.49602   0.00000  1       26
siesta:      9.79567  -1.98858  -0.00000  1       27
siesta:      8.75489  -7.70105  -0.00000  2       28
siesta:      7.16982 -10.55666   0.00000  3       29

siesta: Automatic unit cell vectors (Ang):
siesta:   18.728323    0.000000    0.000000
siesta:    0.000000   23.861874    0.000000
siesta:    0.000000    0.000000    9.854683

siesta: System type = molecule  

initatomlists: Number of atoms, orbitals, and projectors:     29   297   394

siesta: ******************** Simulation parameters ****************************
siesta:
siesta: The following are some of the parameters of the simulation.
siesta: A complete list of the parameters used, including default values,
siesta: can be found in file out.fdf
siesta:
redata: Spin configuration                          = spin-orbit
redata: Number of spin components                   = 8
redata: Time-Reversal Symmetry                      = F
redata: Spin spiral                                 = F
############################################################
This spin-orbit implementation uses a local approximation.
From 4.2 and onwards the full non-local approximation is implemented
You are strongly advised to use >=4.2 versions!
############################################################
redata: Long output                                 =   F
redata: Number of Atomic Species                    =        4
redata: Charge density info will appear in .RHO file
redata: Write Mulliken Pop.                         = NO
redata: Matel table size (NRTAB)                    =     1024
redata: Mesh Cutoff                                 =   340.0000 Ry
redata: Net charge of the system                    =     0.0000 |e|
redata: Min. number of SCF Iter                     =        1
redata: Max. number of SCF Iter                     =      600
redata: SCF convergence failure will abort job
redata: SCF mix quantity                            = Hamiltonian
redata: Mix DM or H after convergence               =   F
redata: Recompute H after scf cycle                 =   F
redata: Mix DM in first SCF step                    =   T
redata: Write Pulay info on disk                    =   F
redata: New DM Occupancy tolerance                  = 0.000000000001
redata: No kicks to SCF
redata: DM Mixing Weight for Kicks                  =     0.5000
redata: Require Harris convergence for SCF          =   F
redata: Harris energy tolerance for SCF             =     0.000100 eV
redata: Require DM convergence for SCF              =   T
redata: DM tolerance for SCF                        =     0.000008
redata: Require EDM convergence for SCF             =   F
redata: EDM tolerance for SCF                       =     0.001000 eV
redata: Require H convergence for SCF               =   T
redata: Hamiltonian tolerance for SCF               =     0.000001 eV
redata: Require (free) Energy convergence for SCF   =   F
redata: (free) Energy tolerance for SCF             =     0.000100 eV
redata: Using Saved Data (generic)                  =   F
redata: Use continuation files for DM               =   T
redata: Neglect nonoverlap interactions             =   F
redata: Method of Calculation                       = Diagonalization
redata: Electronic Temperature                      =   299.9978 K
redata: Fix the spin of the system                  =   F
redata: Dynamics option                             = Single-point calculation
mix.SCF: Pulay mixing                            = Pulay
mix.SCF:    Variant                              = stable
mix.SCF:    History steps                        = 6
mix.SCF:    Linear mixing weight                 =     0.250000
mix.SCF:    Mixing weight                        =     0.250000
mix.SCF:    SVD condition                        = 0.1000E-07
mix.SCF:    Restart steps                        = 24
mix.SCF:    Restart save steps                   = 3
mix.SCF: Spin-component mixing                   all
redata: Save all siesta data in one NC              =   F
redata: ***********************************************************************

%block SCF.Mixers
  Pulay
%endblock SCF.Mixers

%block SCF.Mixer.Pulay
  # Mixing method
  method pulay
  variant stable

  # Mixing options
  weight 0.2500
  weight.linear 0.2500
  history 6
  restart 24
  restart.save 3
%endblock SCF.Mixer.Pulay

DM_history_depth set to one: no extrapolation allowed by default for geometry relaxation
Size of DM history Fstack: 1
Total number of electrons:    98.000000
Total ionic charge:    98.000000

* ProcessorY, Blocksize:    2  24


* Orbital distribution balance (max,min):    57    48


Time-reversal symmetry not used.

siesta: k-grid: Number of k-points =     1
siesta: k-grid: Cutoff (effective) =     4.927 Ang
siesta: k-grid: Supercell and displacements
siesta: k-grid:    1   0   0      0.000
siesta: k-grid:    0   1   0      0.000
siesta: k-grid:    0   0   1      0.000

diag: Algorithm                                     = ELPA-1stage
diag: Parallel over k                               =   F
diag: Use parallel 2D distribution                  =   T
diag: Parallel block-size                           = 24
diag: Parallel distribution                         =     2 x     3
diag: Used triangular part                          = Lower
diag: Absolute tolerance                            =  0.100E-15
diag: Orthogonalization factor                      =  0.100E-05
diag: Memory factor                                 =  1.0000


ts: **************************************************************
ts: Save H and S matrices                           =    F
ts: Save DM and EDM matrices                        =    F
ts: Only save the overlap matrix S                  =    F
ts: **************************************************************

************************ Begin: TS CHECKS AND WARNINGS ************************
************************ End: TS CHECKS AND WARNINGS **************************


                     ====================================
                        Single-point calculation
                     ====================================

outcoor: Atomic coordinates (Ang):                          
    0.93269473    3.74886191    0.00000000   1       1  H
    0.22620800    2.95882573    0.00000000   2       2  N
   -1.50407891    3.40018964    0.00000000   3       3  Si
   -1.65985859    4.89018190    0.00000000   1       4  H
   -3.02740053    1.84128212    0.00000000   3       5  Si
   -4.51058816    2.08411248    0.00000000   1       6  H
   -1.82900967   -0.07199404    0.00000000   3       7  Si
   -2.59503513   -1.60471078    0.00000000   2       8  N
   -2.00478858   -2.56192381    0.00000000   1       9  H
   -3.64665745   -1.68517101    0.00000000   1      10  H
   -0.11280961   -0.01681973    0.00000000   2      11  N
    0.96221301    1.31351911    0.00000000   3      12  Si
    2.57088633    1.29470885    0.00000000   4      13  O
    5.61644830   -7.44953905    0.00000000   1      14  H
    4.58206954   -7.23203760    0.00000000   2      15  N
    3.29666389   -8.49263600    0.00000000   3      16  Si
    3.80117524   -9.90371886    0.00000000   1      17  H
    1.65934232   -8.01362137    0.00000000   2      18  N
    1.68097912   -6.20463398    0.00000000   3      19  Si
    0.54543521   -4.28636135    0.00000000   3      20  Si
   -1.03431493   -3.94450034    0.00000000   4      21  O
    1.73226934   -2.87719605    0.00000000   2      22  N
    1.20957366   -1.92961761    0.00000000   1      23  H
    3.50853448   -2.77677601    0.00000000   3      24  Si
    4.13684451   -1.17938608    0.00000000   2      25  N
    3.54296161   -0.26248101    0.00000000   1      26  H
    5.18364407   -1.05231197    0.00000000   1      27  H
    4.63288658   -4.07521596    0.00000000   2      28  N
    3.79410501   -5.58634043    0.00000000   3      29  Si

outcell: Unit cell vectors (Ang):
       18.728323    0.000000    0.000000
        0.000000   23.861874    0.000000
        0.000000    0.000000    9.854683

outcell: Cell vector modules (Ang)   :   18.728323   23.861874    9.854683
outcell: Cell angles (23,13,12) (deg):     90.0000     90.0000     90.0000
outcell: Cell volume (Ang**3)        :   4403.9877
<dSpData1D:S at geom step 0
  <sparsity:sparsity for geom step 0
    nrows_g=297 nrows=57 sparsity=.1310 nnzs=11552, refcount: 8>
  <dData1D:(new from dSpData1D) n=11552, refcount: 1>
refcount: 1>
new_DM -- step:     1
Initializing Density Matrix...

Attempting to read DM from file... Failed...
DM filled with atomic data:
<dSpData2D:DM initialized from atoms
  <sparsity:sparsity for geom step 0
    nrows_g=297 nrows=57 sparsity=.1310 nnzs=11552, refcount: 9>
  <dData2D:DM n=11552 m=8, refcount: 1>
refcount: 1>
     spin moment: S , {S} =   56.00000   0.00000   0.00000  56.00000
No. of atoms with KB's overlaping orbs in proc 0. Max # of overlaps:      28     202

Initializing spin-orbit part of the Hamiltonian
  Adding spin-orbit effects for H 
  Adding spin-orbit effects for N 
  Adding spin-orbit effects for Si
  Adding spin-orbit effects for O 


New grid distribution:   1
           1       1:  108    1:   68    1:   20
           2       1:  108    1:   68   21:   40
           3       1:  108    1:   68   41:   60
           4       1:  108   69:  135    1:   20
           5       1:  108   69:  135   21:   40
           6       1:  108   69:  135   41:   60

InitMesh: MESH =   216 x   270 x   120 =     6998400
InitMesh: (bp) =   108 x   135 x    60 =      874800
InitMesh: Mesh cutoff (required, used) =   340.000   353.851 Ry
ExtMesh (bp) on 0 =   212 x   172 x   132 =     4813248
New grid distribution:   2
           1      16:  108   22:  102    1:   60
           2      16:  108  121:  135    1:   60
           3       1:   15  103:  135    1:   60
           4      16:  108  103:  120    1:   60
           5      16:  108    1:   21    1:   60
           6       1:   15    1:  102    1:   60
New grid distribution:   3
           1      22:  108   22:   87    1:   60
           2       1:   21    1:   87    1:   60
           3       1:   22   88:  135    1:   60
           4      23:  108  116:  135    1:   60
           5      23:  108   88:  115    1:   60
           6      22:  108    1:   21    1:   60
Setting up quadratic distribution...
ExtMesh (bp) on 0 =   197 x   185 x   172 =     6268540
PhiOnMesh: Number of (b)points on node 0 =               451980
PhiOnMesh: nlist on node 0 =              2161267

stepf: Fermi-Dirac step function

siesta: Program's energy decomposition (eV):
siesta: Ebs     =      -617.739298
siesta: Eions   =      3585.165840
siesta: Ena     =       381.473071
siesta: Ekin    =      3360.489070
siesta: Enl     =     -3290.324845
siesta: Eso     =        -0.003445
siesta: Edftu   =         0.000000
siesta: DEna    =       154.036996
siesta: DUscf   =        77.748237
siesta: DUext   =         0.000000
siesta: Exc     =     -1202.783738
siesta: eta*DQ  =         0.000000
siesta: Emadel  =         0.000000
siesta: Emeta   =         0.000000
siesta: Emolmec =         0.000000
siesta: Ekinion =         0.000000
siesta: Eharris =     -4030.125168
siesta: Etot    =     -4104.530493
siesta: FreeEng =     -4104.531511

        iscf     Eharris(eV)        E_KS(eV)     FreeEng(eV)     dDmax    Ef(eV) dHmax(eV)
   scf:    1    -4030.125168    -4104.530493    -4104.531511  0.957557 -4.905659 20.063032
     spin moment: S , {S} =    2.00569   0.00000  -0.00000   2.00569
timer: Routine,Calls,Time,% = IterSCF        1       5.665  22.35
   scf:    2    -4150.234716    -4138.575300    -4138.577781  0.465357 -4.194002 10.919184
     spin moment: S , {S} =    1.98540   0.00000  -0.00000   1.98540
   scf:    3    -4111.853493    -4135.810810    -4135.822483  0.431105 -4.282238 11.322875
     spin moment: S , {S} =    2.00011   0.00000  -0.00000   2.00011
   scf:    4    -4151.331428    -4146.561058    -4146.561059  0.332029 -3.893696  6.034347
     spin moment: S , {S} =    0.00009  -0.00000  -0.00000   0.00009
   scf:    5    -4147.694684    -4147.222463    -4147.222463  0.036866 -3.696897  4.365050
     spin moment: S , {S} =    0.00006  -0.00000  -0.00000   0.00006
   scf:    6    -4148.003307    -4147.616948    -4147.616948  0.025076 -3.596319  2.146454
     spin moment: S , {S} =    0.00003  -0.00000  -0.00000   0.00003
   scf:    7    -4147.981433    -4147.798493    -4147.798493  0.021787 -3.691412  0.839333
     spin moment: S , {S} =    0.00001  -0.00000   0.00000   0.00001
   scf:    8    -4147.912333    -4147.854026    -4147.854026  0.011933 -3.709185  0.459749
     spin moment: S , {S} =    0.00000  -0.00000   0.00000   0.00000
   scf:    9    -4147.894812    -4147.873768    -4147.873768  0.007126 -3.778799  0.303184
     spin moment: S , {S} =    0.00000  -0.00000   0.00000   0.00000
   scf:   10    -4147.920304    -4147.893549    -4147.893549  0.016729 -3.795908  0.140022
     spin moment: S , {S} =    0.00000  -0.00000  -0.00000  -0.00000
   scf:   11    -4147.896888    -4147.895123    -4147.895123  0.004976 -3.789229  0.051890
     spin moment: S , {S} =    0.00000  -0.00000  -0.00000   0.00000
   scf:   12    -4147.895960    -4147.895538    -4147.895538  0.001983 -3.785564  0.032376
     spin moment: S , {S} =    0.00000  -0.00000  -0.00000   0.00000
   scf:   13    -4147.896119    -4147.895812    -4147.895812  0.001974 -3.784372  0.024849
     spin moment: S , {S} =    0.00000  -0.00000  -0.00000   0.00000
   scf:   14    -4147.896283    -4147.896025    -4147.896025  0.002224 -3.782353  0.017508
     spin moment: S , {S} =    0.00000  -0.00000  -0.00000   0.00000
   scf:   15    -4147.896369    -4147.896169    -4147.896169  0.002471 -3.782430  0.009768
     spin moment: S , {S} =    0.00000  -0.00000  -0.00000   0.00000
   scf:   16    -4147.896292    -4147.896216    -4147.896216  0.001780 -3.782439  0.004060
     spin moment: S , {S} =    0.00000   0.00000  -0.00000   0.00000
   scf:   17    -4147.896232    -4147.896223    -4147.896223  0.000608 -3.782668  0.002054
     spin moment: S , {S} =    0.00000   0.00000  -0.00000   0.00000
   scf:   18    -4147.896227    -4147.896224    -4147.896224  0.000265 -3.782773  0.000970
     spin moment: S , {S} =    0.00000   0.00000  -0.00000  -0.00000
   scf:   19    -4147.896225    -4147.896225    -4147.896225  0.000087 -3.782745  0.000662
     spin moment: S , {S} =    0.00000   0.00000  -0.00000  -0.00000
   scf:   20    -4147.896225    -4147.896225    -4147.896225  0.000055 -3.782684  0.000383
     spin moment: S , {S} =    0.00000   0.00000  -0.00000  -0.00000
   scf:   21    -4147.896225    -4147.896225    -4147.896225  0.000073 -3.782626  0.000183
     spin moment: S , {S} =    0.00000   0.00000  -0.00000  -0.00000
   scf:   22    -4147.896225    -4147.896225    -4147.896225  0.000013 -3.782607  0.000070
     spin moment: S , {S} =    0.00000   0.00000  -0.00000  -0.00000
   scf:   23    -4147.896225    -4147.896225    -4147.896225  0.000005 -3.782605  0.000038
     spin moment: S , {S} =    0.00000   0.00000  -0.00000  -0.00000
   scf:   24    -4147.896225    -4147.896225    -4147.896225  0.000002 -3.782602  0.000020
     spin moment: S , {S} =    0.00000   0.00000  -0.00000  -0.00000
mix: Pulay -- resetting history
   scf:   25    -4147.896225    -4147.896225    -4147.896225  0.000002 -3.782599  0.000009
     spin moment: S , {S} =    0.00000   0.00000  -0.00000  -0.00000
   scf:   26    -4147.896225    -4147.896225    -4147.896225  0.000000 -3.782598  0.000005
     spin moment: S , {S} =    0.00000   0.00000  -0.00000  -0.00000
   scf:   27    -4147.896225    -4147.896225    -4147.896225  0.000000 -3.782597  0.000003
     spin moment: S , {S} =    0.00000   0.00000  -0.00000  -0.00000
   scf:   28    -4147.896225    -4147.896225    -4147.896225  0.000000 -3.782597  0.000002
     spin moment: S , {S} =    0.00000   0.00000  -0.00000  -0.00000
   scf:   29    -4147.896225    -4147.896225    -4147.896225  0.000000 -3.782597  0.000001
     spin moment: S , {S} =    0.00000   0.00000  -0.00000  -0.00000
   scf:   30    -4147.896225    -4147.896225    -4147.896225  0.000000 -3.782597  0.000001
     spin moment: S , {S} =    0.00000   0.00000  -0.00000  -0.00000

SCF Convergence by DM+H criterion
max |DM_out - DM_in|         :     0.0000000917
max |H_out - H_in|      (eV) :     0.0000006076
SCF cycle converged after 30 iterations

Using DM_out to compute the final energy and forces
No. of atoms with KB's overlaping orbs in proc 0. Max # of overlaps:      28     202

siesta: E_KS(eV) =            -4147.8962

siesta: E_KS - E_eggbox =     -4147.8962
     spin moment: S , {S} =    0.00000   0.00000  -0.00000  -0.00000

siesta: Atomic forces (eV/Ang):
     1    0.049562   -0.024801   -0.000000
     2   -0.059321    0.054907   -0.000000
     3    0.084010   -0.010331    0.000000
     4    0.005511    0.059329    0.000000
     5   -0.043122   -0.040843    0.000000
     6    0.040811    0.069188   -0.000000
     7    0.270219    0.163958    0.000000
     8    0.381644   -0.825754    0.000000
     9   -0.139275    0.347155    0.000000
    10    0.177783    0.040737    0.000000
    11   -0.114324   -0.125013   -0.000000
    12    0.215265   -0.083853   -0.000000
    13    3.025502    2.817661   -0.000000
    14    0.047659    0.077870    0.000000
    15   -0.001813    0.030496   -0.000000
    16    0.002987   -0.002410    0.000000
    17    0.066529    0.077463   -0.000000
    18   -0.002527    0.009772    0.000000
    19    0.051841    0.001378   -0.000000
    20   -0.276957    0.006951    0.000000
    21   -1.138591   -1.508779   -0.000000
    22    0.010527    0.182634   -0.000000
    23    0.097949   -0.307864    0.000000
    24   -0.087371   -0.147732    0.000000
    25   -0.237520    0.518332   -0.000000
    26    0.286032   -0.229282   -0.000000
    27    0.015490   -0.031306   -0.000000
    28    0.006745    0.133316   -0.000000
    29   -0.061301   -0.073906    0.000000
----------------------------------------
   Tot    2.673941    1.179273   -0.000000
----------------------------------------
   Max    3.025502
   Res    0.510048    sqrt( Sum f_i^2 / 3N )
----------------------------------------
   Max    3.025502    constrained

Stress tensor Voigt[x,y,z,yz,xz,xy] (kbar):        1.07        0.80       -0.10        0.00        0.00       -0.69
(Free)E + p*V (eV/cell)    -4149.5245
Target enthalpy (eV/cell)    -4147.8962

siesta: Eigenvalues (eV):
ik =     1
  -22.5712  -22.5712  -22.2154  -22.2154  -21.3819  -21.3819  -21.2484  -21.2484  -21.0742  -21.0742
  -20.8566  -20.8566  -20.3844  -20.3844  -19.6015  -19.6015  -19.5619  -19.5619  -19.3719  -19.3719
  -14.7901  -14.7901  -13.8216  -13.8216  -13.2512  -13.2512  -13.0819  -13.0819  -12.9260  -12.9260
  -12.7052  -12.7052  -12.5974  -12.5974  -12.1115  -12.1115  -11.8460  -11.8460  -11.7293  -11.7293
  -11.0856  -11.0856  -10.8305  -10.8305  -10.6510  -10.6510  -10.4601  -10.4601  -10.1825  -10.1825
   -9.6703   -9.6703   -9.1132   -9.1132   -8.9590   -8.9590   -8.8371   -8.8371   -8.6199   -8.6199
   -8.5420   -8.5420   -8.4301   -8.4301   -8.3526   -8.3526   -8.0110   -8.0110   -7.8575   -7.8575
   -7.6149   -7.6149   -7.3792   -7.3792   -7.2006   -7.2006   -7.0703   -7.0703   -6.8749   -6.8749
   -6.6108   -6.6108   -6.5981   -6.5981   -6.4087   -6.4087   -6.3542   -6.3542   -6.3373   -6.3373
   -6.1808   -6.1808   -5.9602   -5.9602   -5.5728   -5.5728   -4.3259   -4.3259   -3.2397   -3.2397
   -2.3613   -2.3613   -2.3446   -2.3446   -2.2247   -2.2247   -1.8820   -1.8820   -1.8792   -1.8792
   -1.8496   -1.8496   -1.7013   -1.7013   -1.6301   -1.6301   -1.2489   -1.2489   -1.2055   -1.2055
   -0.9779   -0.9779   -0.6141   -0.6141   -0.4280   -0.4280   -0.3536   -0.3536    0.3758    0.3758
    0.4333    0.4333    0.5425    0.5425    0.6413    0.6413    0.9839    0.9839    1.1327    1.1327
    1.3599    1.3599    1.4011    1.4011    1.4132    1.4132    1.5246    1.5246    1.9391    1.9391
    2.0769    2.0769    2.6072    2.6072    2.6854    2.6854    2.7025    2.7025    2.8375    2.8375
    2.8497    2.8497    2.8984    2.8984    3.0919    3.0919    3.4113    3.4113    3.4666    3.4666
    3.7509    3.7509    4.0081    4.0081    4.1052    4.1052    4.1215    4.1215    4.3376    4.3376
    4.5564    4.5564    4.5787    4.5787    4.7213    4.7213    5.0546    5.0546    5.1104    5.1104
    5.2281    5.2281    5.2861    5.2861    5.6694    5.6694    5.6755    5.6755    5.8980    5.8980
    5.9731    5.9731    6.0937    6.0937    6.3818    6.3818    6.4116    6.4116    6.5356    6.5356
    6.6300    6.6300    6.6394    6.6394    6.8716    6.8716    7.0026    7.0026    7.0690    7.0690
    7.2249    7.2249    7.6428    7.6428    7.6561    7.6561    7.8096    7.8096    8.0182    8.0182
    8.0497    8.0497    8.2059    8.2059    8.3560    8.3560    8.4764    8.4764    8.6680    8.6680
    8.7795    8.7795    8.8563    8.8563    9.0265    9.0265    9.0706    9.0706    9.3244    9.3244
    9.4557    9.4557    9.8653    9.8653    9.9336    9.9336    9.9463    9.9463   10.1480   10.1480
   10.2585   10.2585   10.5395   10.5395   10.7396   10.7396   11.1625   11.1625   11.2108   11.2108
   11.2890   11.2890   11.5877   11.5877   12.2357   12.2357   12.2412   12.2412   12.3067   12.3067
   12.4104   12.4104   12.5008   12.5008   12.5158   12.5158   12.9523   12.9523   13.1608   13.1608
   13.4863   13.4863   13.5151   13.5151   13.5646   13.5646   13.9069   13.9069   13.9989   13.9989
   14.2195   14.2195   14.3212   14.3213   14.8105   14.8105   14.9031   14.9031   14.9101   14.9101
   15.3989   15.3989   16.0321   16.0321   16.4419   16.4419   16.6974   16.6974   16.7667   16.7667
   17.1504   17.1504   17.4872   17.4872   17.8730   17.8730   18.5740   18.5740   18.8994   18.8994
   19.2052   19.2052   19.8541   19.8541   20.2636   20.2636   20.3451   20.3451   20.5858   20.5858
   21.2623   21.2623   21.9995   21.9995   22.3018   22.3018   22.5700   22.5700   23.3703   23.3703
   23.4990   23.4990   23.9580   23.9580   24.0310   24.0310   24.4671   24.4671   25.2145   25.2145
   25.5362   25.5362   26.0169   26.0169   26.4631   26.4631   27.5102   27.5102   28.7665   28.7665
   29.3747   29.3747   29.6855   29.6855   30.0017   30.0017   30.2769   30.2769   30.5148   30.5148
   30.8531   30.8531   30.9486   30.9486   31.1160   31.1160   31.5028   31.5028   31.6561   31.6561
   32.0932   32.0932   32.3758   32.3758   33.4335   33.4335   33.8447   33.8447   34.0325   34.0325
   34.8211   34.8211   35.1674   35.1674   35.2761   35.2761   35.5869   35.5869   35.8871   35.8871
   36.4053   36.4053   36.4850   36.4850   36.9708   36.9708   37.0409   37.0409   38.1514   38.1514
   38.5732   38.5732   38.8525   38.8525   39.3202   39.3202   39.5357   39.5357   39.8892   39.8892
   40.0549   40.0549   40.1342   40.1342   40.7478   40.7478   41.1652   41.1652   41.3442   41.3442
   41.8601   41.8601   42.1702   42.1702   42.2488   42.2488   42.9875   42.9875   43.3423   43.3423
   43.5454   43.5454   43.7746   43.7746   43.9580   43.9580   44.3210   44.3210   44.4984   44.4984
   44.8926   44.8926   45.2048   45.2048   45.3417   45.3417   45.8392   45.8392   46.1950   46.1950
   46.4803   46.4803   47.1545   47.1545   47.7502   47.7502   47.8808   47.8808   49.2403   49.2403
   49.4241   49.4241   50.2861   50.2861   50.3433   50.3433   50.5156   50.5156   50.5989   50.5989
   50.8703   50.8703   51.2877   51.2877   52.0181   52.0181   52.6223   52.6223   53.6544   53.6544
   53.9175   53.9175   53.9454   53.9454   55.0564   55.0564   55.6607   55.6607   55.9513   55.9513
   55.9786   55.9786   56.3640   56.3640   57.6365   57.6365   58.0440   58.0440   58.1917   58.1917
   59.6118   59.6118   59.7063   59.7063   60.2008   60.2008   60.5136   60.5136   61.3844   61.3844
   62.0289   62.0289   62.1042   62.1042   62.4705   62.4705   62.6102   62.6102   65.7988   65.7988
   66.4068   66.4068   67.1101   67.1101   67.5179   67.5179   67.6230   67.6230   68.4262   68.4262
   68.8588   68.8588   70.3096   70.3096   70.9670   70.9670   74.8889   74.8889   82.5926   82.5926
   85.3580   85.3580   88.0153   88.0153   92.8310   92.8310   93.8390   93.8390   94.2532   94.2532
   99.0412   99.0412   99.6345   99.6345  101.9491  101.9491  103.8358  103.8358  104.9309  104.9309
  114.2911  114.2911  116.8958  116.8958  124.8790  124.8791  127.8968  127.8968  136.8933  136.8933
  143.6305  143.6305  145.6331  145.6331
siesta: Fermi energy =      -3.782597 eV

siesta: Program's energy decomposition (eV):
siesta: Ebs     =     -1134.437889
siesta: Eions   =      3585.165840
siesta: Ena     =       381.473071
siesta: Ekin    =      2906.710140
siesta: Enl     =     -2791.209514
siesta: Eso     =        -0.004305
siesta: Edftu   =         0.000000
siesta: DEna    =        47.793194
siesta: DUscf   =        13.710306
siesta: DUext   =         0.000000
siesta: Exc     =     -1121.203277
siesta: eta*DQ  =         0.000000
siesta: Emadel  =         0.000000
siesta: Emeta   =         0.000000
siesta: Emolmec =         0.000000
siesta: Ekinion =         0.000000
siesta: Eharris =     -4147.896225
siesta: Etot    =     -4147.896225
siesta: FreeEng =     -4147.896225

siesta: Final energy (eV):
siesta:  Band Struct. =   -1134.437889
siesta:       Kinetic =    2906.710140
siesta:       Hartree =    8907.863516
siesta:       Edftu   =       0.000000
siesta:       Eso     =      -0.004305
siesta:    Ext. field =       0.000000
siesta:   Exch.-corr. =   -1121.203277
siesta:  Ion-electron =  -20401.295421
siesta:       Ion-ion =    5560.033122
siesta:       Ekinion =       0.000000
siesta:         Total =   -4147.896225
siesta:         Fermi =      -3.782597

siesta: Atomic forces (eV/Ang):
siesta:      1    0.049562   -0.024801   -0.000000
siesta:      2   -0.059321    0.054907   -0.000000
siesta:      3    0.084010   -0.010331    0.000000
siesta:      4    0.005511    0.059329    0.000000
siesta:      5   -0.043122   -0.040843    0.000000
siesta:      6    0.040811    0.069188   -0.000000
siesta:      7    0.270219    0.163958    0.000000
siesta:      8    0.381644   -0.825754    0.000000
siesta:      9   -0.139275    0.347155    0.000000
siesta:     10    0.177783    0.040737    0.000000
siesta:     11   -0.114324   -0.125013   -0.000000
siesta:     12    0.215265   -0.083853   -0.000000
siesta:     13    3.025502    2.817661   -0.000000
siesta:     14    0.047659    0.077870    0.000000
siesta:     15   -0.001813    0.030496   -0.000000
siesta:     16    0.002987   -0.002410    0.000000
siesta:     17    0.066529    0.077463   -0.000000
siesta:     18   -0.002527    0.009772    0.000000
siesta:     19    0.051841    0.001378   -0.000000
siesta:     20   -0.276957    0.006951    0.000000
siesta:     21   -1.138591   -1.508779   -0.000000
siesta:     22    0.010527    0.182634   -0.000000
siesta:     23    0.097949   -0.307864    0.000000
siesta:     24   -0.087371   -0.147732    0.000000
siesta:     25   -0.237520    0.518332   -0.000000
siesta:     26    0.286032   -0.229282   -0.000000
siesta:     27    0.015490   -0.031306   -0.000000
siesta:     28    0.006745    0.133316   -0.000000
siesta:     29   -0.061301   -0.073906    0.000000
siesta: ----------------------------------------
siesta:    Tot    2.673941    1.179273   -0.000000

siesta: Stress tensor (static) (eV/Ang**3):
siesta:     0.000667   -0.000432    0.000000
siesta:    -0.000432    0.000502   -0.000000
siesta:     0.000000    0.000000   -0.000060

siesta: Cell volume =       4403.987738 Ang**3

siesta: Pressure (static):
siesta:                Solid            Molecule  Units
siesta:          -0.00000403         -0.00001662  Ry/Bohr**3
siesta:          -0.00036974         -0.00152557  eV/Ang**3
siesta:          -0.59238841         -2.44426414  kBar
(Free)E+ p_basis*V_orbitals  =       -4128.045808
(Free)Eharris+ p_basis*V_orbitals  =       -4128.045808
     spin moment: S , {S} =    0.00000   0.00000  -0.00000  -0.00000

siesta: Electric dipole (a.u.)  =   -0.069769    1.575749   -0.000000
siesta: Electric dipole (Debye) =   -0.177335    4.005156   -0.000000

cite: Please see "GC.bib" for an exhaustive BiBTeX file.
cite: Please clearly indicate Siesta version in published work: v4.1.5-1-g384057250
cite: This calculation has made use of the following articles
cite: which are encouraged to be cited in a published work.
        Primary SIESTA paper
          DOI: www.doi.org/10.1088/0953-8984/14/11/302
        Spin-orbit coupling (on-site approximation)
          DOI: www.doi.org/10.1088/0953-8984/19/19/489001


WARNING: alloc-realloc-dealloc name mismatch
         Name: atomlist isa
         Size:              -116. Bytes
         Node:     0
         Subsequent mismatches will not be reported
>> End of run:  16-OCT-2023  18:20:47
Job completed
