Siesta Version  : v4.1.5-1-g384057250
Architecture    : gcc
Compiler version: GNU Fortran (Ubuntu 11.4.0-1ubuntu1~22.04) 11.4.0
Compiler flags  : mpifort -O2 -fPIC -ftree-vectorize -fallow-argument-mismatch
PP flags        : -DFC_HAVE_ABORT -DMPI -DSIESTA__FLOOK -DSIESTA__METIS -DSIESTA__MUMPS -DCDF -DNCDF -DNCDF_4 -DNCDF_PARALLEL -DSIESTA__MRRR -DSIESTA__ELPA
Libraries       : libncdf.a libfdict.a  -lflookall -ldl -lnetcdff -lnetcdf -lhdf5_hl -lhdf5 -lhdf5_fortran -lz -lscalapack-openmpi -lopenblas -lmetis -lzmumps -lcmumps -ldmumps -lmumps_common -lpord -lsmumps -lesmumps -lscotch -lscotcherr -fopenmp -lelpa
PARALLEL version
NetCDF support
NetCDF-4 support
NetCDF-4 MPI-IO support
METIS ordering support
Lua support

* Running on 8 nodes in parallel
>> Start of run:   1-FEB-2024  21:09:45

                           ***********************       
                           *  WELCOME TO SIESTA  *       
                           ***********************       

reinit: Reading from standard input
reinit: Dumped input in INPUT_TMP.56473
************************** Dump of input data file ****************************
# mpirun -np 4 siesta-4.1.5 < GC.fdf > GC.out &
SystemLabel      GC
NumberOfAtoms    29
NumberOfSpecies  4
%block ChemicalSpeciesLabel
    1    1  H
    2    7  N
    3   14  Si
    4    8  O
%endblock ChemicalSpeciesLabel
############################################
# This overrides Defaults.fdf configuration
############################################
MD.TypeOfRun                Verlet # CG, Verlet
MD.Steps                    0
MaxSCFIterations            200
SCF.MustConverge            F
AtomicCoordinatesFormat NotScaledCartesianAng
%block AtomicCoordinatesAndAtomicSpecies
    1.2177254654384249 3.3246506315674482 -0.0  1  1  H
    0.5112387354384249 2.5346144515674487 -0.0  2  2  N
    -1.219048174561575 2.9759783615674484 0.0  3  3  Si
    -1.374827854561575 4.465970621567449 0.0  1  4  H
    -2.7423697945615753 1.4170708415674482 -0.0  3  5  Si
    -4.2255574245615755 1.6599012015674484 -0.0  1  6  H
    -1.543978934561575 -0.4962053184325517 -0.0  3  7  Si
    -2.310004394561575 -2.028922058432552 -0.0  2  8  N
    -1.719757844561575 -2.986135088432552 0.0  1  9  H
    -3.361626714561575 -2.1093822884325517 -0.0  1  10  H
    0.17222112543842488 -0.4410310084325517 0.0  2  11  N
    1.2472437454384249 0.8893078315674483 -0.0  3  12  Si
    2.8559170654384247 0.8704975715674483 -0.0  4  13  O
    5.6164483 -7.44953905 0.0  1  14  H
    4.58206954 -7.2320376 0.0  2  15  N
    3.29666389 -8.492636 0.0  3  16  Si
    3.80117524 -9.90371886 -0.0  1  17  H
    1.65934232 -8.01362137 0.0  2  18  N
    1.68097912 -6.20463398 -0.0  3  19  Si
    0.54543521 -4.28636135 0.0  3  20  Si
    -1.03431493 -3.94450034 0.0  4  21  O
    1.73226934 -2.87719605 0.0  2  22  N
    1.20957366 -1.92961761 -0.0  1  23  H
    3.50853448 -2.77677601 0.0  3  24  Si
    4.13684451 -1.17938608 0.0  2  25  N
    3.54296161 -0.26248101 0.0  1  26  H
    5.18364407 -1.05231197 -0.0  1  27  H
    4.63288658 -4.07521596 -0.0  2  28  N
    3.79410501 -5.58634043 0.0  3  29  Si
%endblock AtomicCoordinatesAndAtomicSpecies
#############
# Unit Cell
#############
LatticeConstant 1.0 Ang
%block LatticeVectors
    30.00000    0.000000    0.000000
    0.000000    45.00000    0.000000
    0.000000    0.000000    10.00000
%endblock LatticeVectors
%include ../../../../Defaults.fdf
************************** End of input data file *****************************

reinit: -----------------------------------------------------------------------
reinit: System Name: 
reinit: -----------------------------------------------------------------------
reinit: System Label: GC
reinit: -----------------------------------------------------------------------

initatom: Reading input for the pseudopotentials and atomic orbitals ----------
Species number:   1 Atomic number:    1 Label: H
Species number:   2 Atomic number:    7 Label: N
Species number:   3 Atomic number:   14 Label: Si
Species number:   4 Atomic number:    8 Label: O

Ground state valence configuration:   1s01
Reading pseudopotential information in formatted form from H.psf

Pseudopotential generated from a relativistic atomic calculation

Valence configuration for pseudopotential generation:
1s( 1.00) rc: 0.01
2p( 0.00) rc: 0.60
3d( 0.00) rc: 1.99
4f( 0.00) rc: 2.49
Ground state valence configuration:   2s02  2p03
Reading pseudopotential information in formatted form from N.psf

Pseudopotential generated from a relativistic atomic calculation

Valence configuration for pseudopotential generation:
2s( 2.00) rc: 0.94
2p( 3.00) rc: 0.59
3d( 0.00) rc: 3.46
4f( 0.00) rc: 2.47
Ground state valence configuration:   3s02  3p02
Reading pseudopotential information in formatted form from Si.psf

Pseudopotential generated from a relativistic atomic calculation

Valence configuration for pseudopotential generation:
3s( 2.00) rc: 1.67
3p( 2.00) rc: 2.04
3d( 0.00) rc: 2.89
4f( 0.00) rc: 2.49
Ground state valence configuration:   2s02  2p04
Reading pseudopotential information in formatted form from O.psf

Pseudopotential generated from a relativistic atomic calculation

Valence configuration for pseudopotential generation:
2s( 2.00) rc: 0.45
2p( 4.00) rc: 0.92
3d( 0.00) rc: 2.24
4f( 0.00) rc: 0.25
For H, standard SIESTA heuristics set lmxkb to 2
 (one more than the basis l, including polarization orbitals).
Use PS.lmax or PS.KBprojectors blocks to override.
For N, standard SIESTA heuristics set lmxkb to 3
 (one more than the basis l, including polarization orbitals).
Use PS.lmax or PS.KBprojectors blocks to override.
For Si, standard SIESTA heuristics set lmxkb to 3
 (one more than the basis l, including polarization orbitals).
Use PS.lmax or PS.KBprojectors blocks to override.
For O, standard SIESTA heuristics set lmxkb to 3
 (one more than the basis l, including polarization orbitals).
Use PS.lmax or PS.KBprojectors blocks to override.

<basis_specs>
===============================================================================
H                    Z=   1    Mass=  1.0100        Charge= 0.17977+309
Lmxo=0 Lmxkb= 2    BasisType=split      Semic=F
L=0  Nsemic=0  Cnfigmx=1
          i=1  nzeta=2  polorb=1  (1s)
            splnorm:   0.62000    
               vcte:    0.0000    
               rinn:    0.0000    
               qcoe:    0.0000    
               qyuk:    0.0000    
               qwid:   0.10000E-01
                rcs:    0.0000      0.0000    
            lambdas:    1.0000      1.0000    
-------------------------------------------------------------------------------
L=0  Nkbl=1  erefs: 0.17977+309
L=1  Nkbl=1  erefs: 0.17977+309
L=2  Nkbl=1  erefs: 0.17977+309
===============================================================================
</basis_specs>

atom: Called for H                     (Z =   1)

read_vps: Pseudopotential generation method:
read_vps: ATM4.2.7  Troullier-Martins                       
Valence charge for ps generation:    1.00000

xc_check: Exchange-correlation functional:
xc_check: GGA Perdew, Burke & Ernzerhof 1996
V l=0 = -2*Zval/r beyond r=  0.0098
V l=1 = -2*Zval/r beyond r=  0.5817
V l=2 = -2*Zval/r beyond r=  1.9372
All V_l potentials equal beyond r=  1.9372
This should be close to max(r_c) in ps generation
All pots = -2*Zval/r beyond r=  1.9372

VLOCAL1: 99.0% of the norm of Vloc inside     11.567 Ry
VLOCAL1: 99.9% of the norm of Vloc inside     26.362 Ry
atom: Maximum radius for 4*pi*r*r*local-pseudopot. charge    2.25106
atom: Maximum radius for r*vlocal+2*Zval:    1.91306
GHOST: No ghost state for L =  0
GHOST: No ghost state for L =  1
GHOST: No ghost state for L =  2

KBgen: Kleinman-Bylander projectors: 
   l= 0   rc=  2.036604   el= -0.477180   Ekb= -6.081590   kbcos= -0.277285
   l= 1   rc=  2.195416   el=  0.001076   Ekb= -0.926943   kbcos= -0.034643
   l= 2   rc=  2.251056   el=  0.002010   Ekb= -0.130941   kbcos= -0.009788

KBgen: Total number of Kleinman-Bylander projectors:    9
atom: -------------------------------------------------------------------------

atom: SANKEY-TYPE ORBITALS:
atom: Selected multiple-zeta basis: split     

SPLIT: Orbitals with angular momentum L= 0

SPLIT: Basis orbitals for state 1s

SPLIT: PAO cut-off radius determined from an
SPLIT: energy shift=  0.002000 Ry

   izeta = 1
                 lambda =    1.000000
                     rc =    6.518340
                 energy =   -0.475305
                kinetic =    0.912139
    potential(screened) =   -1.387444
       potential(ionic) =   -1.907295

   izeta = 2
                 rmatch =    2.141150
              splitnorm =    0.620000
                 energy =    0.566467
                kinetic =    3.772856
    potential(screened) =   -3.206389
       potential(ionic) =   -3.759093

POLgen: Perturbative polarization orbital with L=  1

POLgen: Polarization orbital for state 1s

   izeta = 1
                     rc =    6.518340
                 energy =    0.533861
                kinetic =    1.121086
    potential(screened) =   -0.587225
       potential(ionic) =   -1.053027
atom: Total number of Sankey-type orbitals:  5

atm_pop: Valence configuration (for local Pseudopot. screening):
 1s( 1.00)                                                            
Vna: chval, zval:    1.00000   1.00000

Vna:  Cut-off radius for the neutral-atom potential:   6.518340

atom: _________________________________________________________________________

<basis_specs>
===============================================================================
N                    Z=   7    Mass=  14.010        Charge= 0.17977+309
Lmxo=1 Lmxkb= 3    BasisType=split      Semic=F
L=0  Nsemic=0  Cnfigmx=2
          i=1  nzeta=2  polorb=0  (2s)
            splnorm:   0.28000    
               vcte:    0.0000    
               rinn:    0.0000    
               qcoe:    0.0000    
               qyuk:    0.0000    
               qwid:   0.10000E-01
                rcs:    0.0000      0.0000    
            lambdas:    1.0000      1.0000    
L=1  Nsemic=0  Cnfigmx=2
          i=1  nzeta=2  polorb=1  (2p)
            splnorm:   0.28000    
               vcte:    0.0000    
               rinn:    0.0000    
               qcoe:    0.0000    
               qyuk:    0.0000    
               qwid:   0.10000E-01
                rcs:    0.0000      0.0000    
            lambdas:    1.0000      1.0000    
-------------------------------------------------------------------------------
L=0  Nkbl=1  erefs: 0.17977+309
L=1  Nkbl=1  erefs: 0.17977+309
L=2  Nkbl=1  erefs: 0.17977+309
L=3  Nkbl=1  erefs: 0.17977+309
===============================================================================
</basis_specs>

atom: Called for N                     (Z =   7)

read_vps: Pseudopotential generation method:
read_vps: ATM4.2.7  Troullier-Martins                       
Valence charge for ps generation:    5.00000

xc_check: Exchange-correlation functional:
xc_check: GGA Perdew, Burke & Ernzerhof 1996
V l=0 = -2*Zval/r beyond r=  1.2889
V l=1 = -2*Zval/r beyond r=  1.2889
V l=2 = -2*Zval/r beyond r=  3.4178
V l=3 = -2*Zval/r beyond r=  2.4084
All V_l potentials equal beyond r=  3.3753
This should be close to max(r_c) in ps generation
All pots = -2*Zval/r beyond r=  3.4178

VLOCAL1: 99.0% of the norm of Vloc inside      3.810 Ry
VLOCAL1: 99.9% of the norm of Vloc inside      8.683 Ry
atom: Maximum radius for 4*pi*r*r*local-pseudopot. charge    4.02088
atom: Maximum radius for r*vlocal+2*Zval:    3.54838
GHOST: No ghost state for L =  0
GHOST: No ghost state for L =  1
GHOST: No ghost state for L =  2
GHOST: No ghost state for L =  3

KBgen: Kleinman-Bylander projectors: 
   l= 0   rc=  3.417763   el= -1.365098   Ekb= -4.433130   kbcos= -0.707855
   l= 1   rc=  3.375302   el= -0.521201   Ekb=-13.264039   kbcos= -0.535594
   l= 2   rc=  3.872880   el=  0.001991   Ekb= -0.641094   kbcos= -0.062456
   l= 3   rc=  3.970931   el=  0.003093   Ekb= -0.474517   kbcos= -0.018236

KBgen: Total number of Kleinman-Bylander projectors:   16
atom: -------------------------------------------------------------------------

atom: SANKEY-TYPE ORBITALS:
atom: Selected multiple-zeta basis: split     

SPLIT: Orbitals with angular momentum L= 0

SPLIT: Basis orbitals for state 2s

SPLIT: PAO cut-off radius determined from an
SPLIT: energy shift=  0.002000 Ry

   izeta = 1
                 lambda =    1.000000
                     rc =    4.730425
                 energy =   -1.363399
                kinetic =    1.245246
    potential(screened) =   -2.608645
       potential(ionic) =   -8.121105

   izeta = 2
                 rmatch =    2.531849
              splitnorm =    0.280000
                 energy =   -0.959908
                kinetic =    2.409435
    potential(screened) =   -3.369343
       potential(ionic) =   -9.427975

SPLIT: Orbitals with angular momentum L= 1

SPLIT: Basis orbitals for state 2p

SPLIT: PAO cut-off radius determined from an
SPLIT: energy shift=  0.002000 Ry

   izeta = 1
                 lambda =    1.000000
                     rc =    5.924108
                 energy =   -0.519262
                kinetic =    3.672940
    potential(screened) =   -4.192202
       potential(ionic) =   -9.518354

   izeta = 2
                 rmatch =    2.531849
              splitnorm =    0.280000
                 energy =   -0.104258
                kinetic =    6.807538
    potential(screened) =   -6.911796
       potential(ionic) =  -13.149920

POLgen: Perturbative polarization orbital with L=  2

POLgen: Polarization orbital for state 2p

   izeta = 1
                     rc =    5.924108
                 energy =    1.427508
                kinetic =    2.872379
    potential(screened) =   -1.444871
       potential(ionic) =   -5.563644
atom: Total number of Sankey-type orbitals: 13

atm_pop: Valence configuration (for local Pseudopot. screening):
 2s( 2.00)                                                            
 2p( 3.00)                                                            
Vna: chval, zval:    5.00000   5.00000

Vna:  Cut-off radius for the neutral-atom potential:   5.924108

atom: _________________________________________________________________________

<basis_specs>
===============================================================================
Si                   Z=  14    Mass=  28.090        Charge= 0.17977+309
Lmxo=1 Lmxkb= 3    BasisType=split      Semic=F
L=0  Nsemic=0  Cnfigmx=3
          i=1  nzeta=2  polorb=0  (3s)
            splnorm:   0.28000    
               vcte:    0.0000    
               rinn:    0.0000    
               qcoe:    0.0000    
               qyuk:    0.0000    
               qwid:   0.10000E-01
                rcs:    0.0000      0.0000    
            lambdas:    1.0000      1.0000    
L=1  Nsemic=0  Cnfigmx=3
          i=1  nzeta=2  polorb=1  (3p)
            splnorm:   0.28000    
               vcte:    0.0000    
               rinn:    0.0000    
               qcoe:    0.0000    
               qyuk:    0.0000    
               qwid:   0.10000E-01
                rcs:    0.0000      0.0000    
            lambdas:    1.0000      1.0000    
-------------------------------------------------------------------------------
L=0  Nkbl=1  erefs: 0.17977+309
L=1  Nkbl=1  erefs: 0.17977+309
L=2  Nkbl=1  erefs: 0.17977+309
L=3  Nkbl=1  erefs: 0.17977+309
===============================================================================
</basis_specs>

atom: Called for Si                    (Z =  14)

read_vps: Pseudopotential generation method:
read_vps: ATM4.2.7  Troullier-Martins                       
Valence charge for ps generation:    4.00000

xc_check: Exchange-correlation functional:
xc_check: GGA Perdew, Burke & Ernzerhof 1996
V l=0 = -2*Zval/r beyond r=  2.7826
V l=1 = -2*Zval/r beyond r=  2.7826
V l=2 = -2*Zval/r beyond r=  2.9253
V l=3 = -2*Zval/r beyond r=  2.7826
All V_l potentials equal beyond r=  2.8530
This should be close to max(r_c) in ps generation
All pots = -2*Zval/r beyond r=  2.9253

VLOCAL1: 99.0% of the norm of Vloc inside      5.333 Ry
VLOCAL1: 99.9% of the norm of Vloc inside     12.154 Ry
atom: Maximum radius for 4*pi*r*r*local-pseudopot. charge    3.39869
atom: Maximum radius for r*vlocal+2*Zval:    2.96205
GHOST: No ghost state for L =  0
GHOST: No ghost state for L =  1
GHOST: No ghost state for L =  2
GHOST: No ghost state for L =  3

KBgen: Kleinman-Bylander projectors: 
   l= 0   rc=  3.075247   el= -0.794092   Ekb=  5.879390   kbcos=  0.167461
   l= 1   rc=  3.153101   el= -0.300068   Ekb=  2.642817   kbcos=  0.058301
   l= 2   rc=  3.273594   el=  0.001958   Ekb= -1.185135   kbcos= -0.104411
   l= 3   rc=  3.232927   el=  0.003046   Ekb= -0.497174   kbcos= -0.015889

KBgen: Total number of Kleinman-Bylander projectors:   16
atom: -------------------------------------------------------------------------

atom: SANKEY-TYPE ORBITALS:
atom: Selected multiple-zeta basis: split     

SPLIT: Orbitals with angular momentum L= 0

SPLIT: Basis orbitals for state 3s

SPLIT: PAO cut-off radius determined from an
SPLIT: energy shift=  0.002000 Ry

   izeta = 1
                 lambda =    1.000000
                     rc =    6.429618
                 energy =   -0.792283
                kinetic =    0.525293
    potential(screened) =   -1.317576
       potential(ionic) =   -3.744923

   izeta = 2
                 rmatch =    3.998416
              splitnorm =    0.280000
                 energy =   -0.583081
                kinetic =    1.069570
    potential(screened) =   -1.652651
       potential(ionic) =   -4.235185

SPLIT: Orbitals with angular momentum L= 1

SPLIT: Basis orbitals for state 3p

SPLIT: PAO cut-off radius determined from an
SPLIT: energy shift=  0.002000 Ry

   izeta = 1
                 lambda =    1.000000
                     rc =    8.464845
                 energy =   -0.298236
                kinetic =    0.785360
    potential(screened) =   -1.083596
       potential(ionic) =   -3.273779

   izeta = 2
                 rmatch =    4.587816
              splitnorm =    0.280000
                 energy =   -0.131871
                kinetic =    1.403687
    potential(screened) =   -1.535557
       potential(ionic) =   -4.015310

POLgen: Perturbative polarization orbital with L=  2

POLgen: Polarization orbital for state 3p

   izeta = 1
                     rc =    8.464845
                 energy =    0.321949
                kinetic =    1.055677
    potential(screened) =   -0.733728
       potential(ionic) =   -2.672950
atom: Total number of Sankey-type orbitals: 13

atm_pop: Valence configuration (for local Pseudopot. screening):
 3s( 2.00)                                                            
 3p( 2.00)                                                            
Vna: chval, zval:    4.00000   4.00000

Vna:  Cut-off radius for the neutral-atom potential:   8.464845

atom: _________________________________________________________________________

<basis_specs>
===============================================================================
O                    Z=   8    Mass=  16.000        Charge= 0.17977+309
Lmxo=1 Lmxkb= 3    BasisType=split      Semic=F
L=0  Nsemic=0  Cnfigmx=2
          i=1  nzeta=2  polorb=0  (2s)
            splnorm:   0.28000    
               vcte:    0.0000    
               rinn:    0.0000    
               qcoe:    0.0000    
               qyuk:    0.0000    
               qwid:   0.10000E-01
                rcs:    0.0000      0.0000    
            lambdas:    1.0000      1.0000    
L=1  Nsemic=0  Cnfigmx=2
          i=1  nzeta=2  polorb=1  (2p)
            splnorm:   0.28000    
               vcte:    0.0000    
               rinn:    0.0000    
               qcoe:    0.0000    
               qyuk:    0.0000    
               qwid:   0.10000E-01
                rcs:    0.0000      0.0000    
            lambdas:    1.0000      1.0000    
-------------------------------------------------------------------------------
L=0  Nkbl=1  erefs: 0.17977+309
L=1  Nkbl=1  erefs: 0.17977+309
L=2  Nkbl=1  erefs: 0.17977+309
L=3  Nkbl=1  erefs: 0.17977+309
===============================================================================
</basis_specs>

atom: Called for O                     (Z =   8)

read_vps: Pseudopotential generation method:
read_vps: ATM4.2.7  Troullier-Martins                       
Valence charge for ps generation:    6.00000

xc_check: Exchange-correlation functional:
xc_check: GGA Perdew, Burke & Ernzerhof 1996
V l=0 = -2*Zval/r beyond r=  1.1000
V l=1 = -2*Zval/r beyond r=  1.1000
V l=2 = -2*Zval/r beyond r=  2.2154
V l=3 = -2*Zval/r beyond r=  1.1000
All V_l potentials equal beyond r=  2.2154
This should be close to max(r_c) in ps generation
All pots = -2*Zval/r beyond r=  2.2154

VLOCAL1: 99.0% of the norm of Vloc inside      8.845 Ry
VLOCAL1: 99.9% of the norm of Vloc inside     20.157 Ry
atom: Maximum radius for 4*pi*r*r*local-pseudopot. charge    2.67231
atom: Maximum radius for r*vlocal+2*Zval:    2.32897
GHOST: No ghost state for L =  0
GHOST: No ghost state for L =  1
GHOST: No ghost state for L =  2
GHOST: No ghost state for L =  3

KBgen: Kleinman-Bylander projectors: 
   l= 0   rc=  2.243238   el= -1.759686   Ekb=**********   kbcos= -0.171774
   l= 1   rc=  2.328968   el= -0.663873   Ekb=-14.506792   kbcos= -0.519897
   l= 2   rc=  2.573941   el=  0.002031   Ekb= -1.137373   kbcos= -0.019581
   l= 3   rc=  2.606321   el=  0.003153   Ekb= -1.013546   kbcos= -0.003122

KBgen: Total number of Kleinman-Bylander projectors:   16
atom: -------------------------------------------------------------------------

atom: SANKEY-TYPE ORBITALS:
atom: Selected multiple-zeta basis: split     

SPLIT: Orbitals with angular momentum L= 0

SPLIT: Basis orbitals for state 2s

SPLIT: PAO cut-off radius determined from an
SPLIT: energy shift=  0.002000 Ry

   izeta = 1
                 lambda =    1.000000
                     rc =    4.243912
                 energy =   -1.758270
                kinetic =    3.286084
    potential(screened) =   -5.044353
       potential(ionic) =  -12.921184

   izeta = 2
                 rmatch =    2.187845
              splitnorm =    0.280000
                 energy =   -0.885018
                kinetic =    8.134434
    potential(screened) =   -9.019452
       potential(ionic) =  -17.710645

SPLIT: Orbitals with angular momentum L= 1

SPLIT: Basis orbitals for state 2p

SPLIT: PAO cut-off radius determined from an
SPLIT: energy shift=  0.002000 Ry

   izeta = 1
                 lambda =    1.000000
                     rc =    5.314825
                 energy =   -0.661986
                kinetic =    4.917472
    potential(screened) =   -5.579458
       potential(ionic) =  -13.236259

   izeta = 2
                 rmatch =    2.160663
              splitnorm =    0.280000
                 energy =   -0.068760
                kinetic =    9.183374
    potential(screened) =   -9.252135
       potential(ionic) =  -18.274251

POLgen: Perturbative polarization orbital with L=  2

POLgen: Polarization orbital for state 2p

   izeta = 1
                     rc =    5.314825
                 energy =    1.970580
                kinetic =    3.886128
    potential(screened) =   -1.915547
       potential(ionic) =   -7.749584
atom: Total number of Sankey-type orbitals: 13

atm_pop: Valence configuration (for local Pseudopot. screening):
 2s( 2.00)                                                            
 2p( 4.00)                                                            
Vna: chval, zval:    6.00000   6.00000

Vna:  Cut-off radius for the neutral-atom potential:   5.314825

atom: _________________________________________________________________________

prinput: Basis input ----------------------------------------------------------

PAO.BasisType split     

%block ChemicalSpeciesLabel
    1    1 H                       # Species index, atomic number, species label
    2    7 N                       # Species index, atomic number, species label
    3   14 Si                      # Species index, atomic number, species label
    4    8 O                       # Species index, atomic number, species label
%endblock ChemicalSpeciesLabel

%block PAO.Basis                 # Define Basis set
H                     1                    # Species label, number of l-shells
 n=1   0   2 P   1                   # n, l, Nzeta, Polarization, NzetaPol
   6.518      2.141   
   1.000      1.000   
N                     2                    # Species label, number of l-shells
 n=2   0   2                         # n, l, Nzeta 
   4.730      2.532   
   1.000      1.000   
 n=2   1   2 P   1                   # n, l, Nzeta, Polarization, NzetaPol
   5.924      2.532   
   1.000      1.000   
Si                    2                    # Species label, number of l-shells
 n=3   0   2                         # n, l, Nzeta 
   6.430      3.998   
   1.000      1.000   
 n=3   1   2 P   1                   # n, l, Nzeta, Polarization, NzetaPol
   8.465      4.588   
   1.000      1.000   
O                     2                    # Species label, number of l-shells
 n=2   0   2                         # n, l, Nzeta 
   4.244      2.188   
   1.000      1.000   
 n=2   1   2 P   1                   # n, l, Nzeta, Polarization, NzetaPol
   5.315      2.161   
   1.000      1.000   
%endblock PAO.Basis

prinput: ----------------------------------------------------------------------

Dumping basis to NetCDF file H.ion.nc
Dumping basis to NetCDF file N.ion.nc
Dumping basis to NetCDF file Si.ion.nc
Dumping basis to NetCDF file O.ion.nc
coor:   Atomic-coordinates input format  =     Cartesian coordinates
coor:                                          (in Angstroms)

siesta: Atomic coordinates (Bohr) and species
siesta:      2.30117   6.28268  -0.00000  1        1
siesta:      0.96610   4.78973  -0.00000  2        2
siesta:     -2.30367   5.62379   0.00000  3        3
siesta:     -2.59805   8.43946   0.00000  1        4
siesta:     -5.18233   2.67788  -0.00000  3        5
siesta:     -7.98515   3.13676  -0.00000  1        6
siesta:     -2.91770  -0.93769  -0.00000  3        7
siesta:     -4.36528  -3.83411  -0.00000  2        8
siesta:     -3.24987  -5.64298   0.00000  1        9
siesta:     -6.35256  -3.98616  -0.00000  1       10
siesta:      0.32545  -0.83343   0.00000  2       11
siesta:      2.35695   1.68055  -0.00000  3       12
siesta:      5.39690   1.64500  -0.00000  4       13
siesta:     10.61355 -14.07759   0.00000  1       14
siesta:      8.65886 -13.66658   0.00000  2       15
siesta:      6.22979 -16.04876   0.00000  3       16
siesta:      7.18318 -18.71532  -0.00000  1       17
siesta:      3.13570 -15.14356   0.00000  2       18
siesta:      3.17659 -11.72506  -0.00000  3       19
siesta:      1.03072  -8.10005   0.00000  3       20
siesta:     -1.95457  -7.45403   0.00000  4       21
siesta:      3.27352  -5.43711   0.00000  2       22
siesta:      2.28576  -3.64645  -0.00000  1       23
siesta:      6.63017  -5.24735   0.00000  3       24
siesta:      7.81751  -2.22872   0.00000  2       25
siesta:      6.69523  -0.49602   0.00000  1       26
siesta:      9.79567  -1.98858  -0.00000  1       27
siesta:      8.75489  -7.70105  -0.00000  2       28
siesta:      7.16982 -10.55666   0.00000  3       29

siesta: System type = molecule  

initatomlists: Number of atoms, orbitals, and projectors:     29   297   394

siesta: ******************** Simulation parameters ****************************
siesta:
siesta: The following are some of the parameters of the simulation.
siesta: A complete list of the parameters used, including default values,
siesta: can be found in file out.fdf
siesta:
redata: Spin configuration                          = spin-orbit
redata: Number of spin components                   = 8
redata: Time-Reversal Symmetry                      = F
redata: Spin spiral                                 = F
############################################################
This spin-orbit implementation uses a local approximation.
From 4.2 and onwards the full non-local approximation is implemented
You are strongly advised to use >=4.2 versions!
############################################################
redata: Long output                                 =   F
redata: Number of Atomic Species                    =        4
redata: Charge density info will appear in .RHO file
redata: Write Mulliken Pop.                         = NO
redata: Matel table size (NRTAB)                    =     1024
redata: Mesh Cutoff                                 =   340.0000 Ry
redata: Net charge of the system                    =     0.0000 |e|
redata: Min. number of SCF Iter                     =        1
redata: Max. number of SCF Iter                     =      200
redata: SCF mix quantity                            = Hamiltonian
redata: Mix DM or H after convergence               =   F
redata: Recompute H after scf cycle                 =   F
redata: Mix DM in first SCF step                    =   T
redata: Write Pulay info on disk                    =   F
redata: New DM Occupancy tolerance                  = 0.000000000001
redata: No kicks to SCF
redata: DM Mixing Weight for Kicks                  =     0.5000
redata: Require Harris convergence for SCF          =   F
redata: Harris energy tolerance for SCF             =     0.000100 eV
redata: Require DM convergence for SCF              =   T
redata: DM tolerance for SCF                        =     0.000008
redata: Require EDM convergence for SCF             =   F
redata: EDM tolerance for SCF                       =     0.001000 eV
redata: Require H convergence for SCF               =   T
redata: Hamiltonian tolerance for SCF               =     0.000001 eV
redata: Require (free) Energy convergence for SCF   =   F
redata: (free) Energy tolerance for SCF             =     0.000100 eV
redata: Using Saved Data (generic)                  =   F
redata: Use continuation files for DM               =   T
redata: Neglect nonoverlap interactions             =   F
redata: Method of Calculation                       = Diagonalization
redata: Electronic Temperature                      =   299.9978 K
redata: Fix the spin of the system                  =   F
redata: Dynamics option                             = Verlet MD run
redata: Initial MD time step                        =        1
redata:   Final MD time step                        =        1
redata: Length of MD time step                      =     0.5000 fs
redata: Initial Temperature of MD run               =     0.0000 K
redata: Perform a MD quench                         =   F
mix.SCF: Pulay mixing                            = Pulay
mix.SCF:    Variant                              = stable
mix.SCF:    History steps                        = 6
mix.SCF:    Linear mixing weight                 =     0.250000
mix.SCF:    Mixing weight                        =     0.250000
mix.SCF:    SVD condition                        = 0.1000E-07
mix.SCF:    Restart steps                        = 24
mix.SCF:    Restart save steps                   = 3
mix.SCF: Spin-component mixing                   all
redata: Save all siesta data in one NC              =   F
redata: ***********************************************************************

%block SCF.Mixers
  Pulay
%endblock SCF.Mixers

%block SCF.Mixer.Pulay
  # Mixing method
  method pulay
  variant stable

  # Mixing options
  weight 0.2500
  weight.linear 0.2500
  history 6
  restart 24
  restart.save 3
%endblock SCF.Mixer.Pulay

Size of DM history Fstack: 3
Total number of electrons:    98.000000
Total ionic charge:    98.000000

* ProcessorY, Blocksize:    2  24


* Orbital distribution balance (max,min):    48    24


Time-reversal symmetry not used.

siesta: k-grid: Number of k-points =     1
siesta: k-grid: Cutoff (effective) =     5.000 Ang
siesta: k-grid: Supercell and displacements
siesta: k-grid:    1   0   0      0.000
siesta: k-grid:    0   1   0      0.000
siesta: k-grid:    0   0   1      0.000

diag: Algorithm                                     = ELPA-1stage
diag: Parallel over k                               =   F
diag: Use parallel 2D distribution                  =   T
diag: Parallel block-size                           = 24
diag: Parallel distribution                         =     2 x     4
diag: Used triangular part                          = Lower
diag: Absolute tolerance                            =  0.100E-15
diag: Orthogonalization factor                      =  0.100E-05
diag: Memory factor                                 =  1.0000


ts: **************************************************************
ts: Save H and S matrices                           =    F
ts: Save DM and EDM matrices                        =    F
ts: Only save the overlap matrix S                  =    F
ts: **************************************************************

************************ Begin: TS CHECKS AND WARNINGS ************************
************************ End: TS CHECKS AND WARNINGS **************************


                     ====================================
                        Begin MD step =      1
                     ====================================

outcoor: Atomic coordinates (Ang):                          
    1.21772547    3.32465063    0.00000000   1       1  H
    0.51123874    2.53461445    0.00000000   2       2  N
   -1.21904817    2.97597836    0.00000000   3       3  Si
   -1.37482785    4.46597062    0.00000000   1       4  H
   -2.74236979    1.41707084    0.00000000   3       5  Si
   -4.22555742    1.65990120    0.00000000   1       6  H
   -1.54397893   -0.49620532    0.00000000   3       7  Si
   -2.31000439   -2.02892206    0.00000000   2       8  N
   -1.71975784   -2.98613509    0.00000000   1       9  H
   -3.36162671   -2.10938229    0.00000000   1      10  H
    0.17222113   -0.44103101    0.00000000   2      11  N
    1.24724375    0.88930783    0.00000000   3      12  Si
    2.85591707    0.87049757    0.00000000   4      13  O
    5.61644830   -7.44953905    0.00000000   1      14  H
    4.58206954   -7.23203760    0.00000000   2      15  N
    3.29666389   -8.49263600    0.00000000   3      16  Si
    3.80117524   -9.90371886    0.00000000   1      17  H
    1.65934232   -8.01362137    0.00000000   2      18  N
    1.68097912   -6.20463398    0.00000000   3      19  Si
    0.54543521   -4.28636135    0.00000000   3      20  Si
   -1.03431493   -3.94450034    0.00000000   4      21  O
    1.73226934   -2.87719605    0.00000000   2      22  N
    1.20957366   -1.92961761    0.00000000   1      23  H
    3.50853448   -2.77677601    0.00000000   3      24  Si
    4.13684451   -1.17938608    0.00000000   2      25  N
    3.54296161   -0.26248101    0.00000000   1      26  H
    5.18364407   -1.05231197    0.00000000   1      27  H
    4.63288658   -4.07521596    0.00000000   2      28  N
    3.79410501   -5.58634043    0.00000000   3      29  Si

outcell: Unit cell vectors (Ang):
       30.000000    0.000000    0.000000
        0.000000   45.000000    0.000000
        0.000000    0.000000   10.000000

outcell: Cell vector modules (Ang)   :   30.000000   45.000000   10.000000
outcell: Cell angles (23,13,12) (deg):     90.0000     90.0000     90.0000
outcell: Cell volume (Ang**3)        :  13500.0000
<dSpData1D:S at geom step 1
  <sparsity:sparsity for geom step 1
    nrows_g=297 nrows=48 sparsity=.1406 nnzs=12398, refcount: 8>
  <dData1D:(new from dSpData1D) n=12398, refcount: 1>
refcount: 1>
new_DM -- step:     1
Initializing Density Matrix...

Attempting to read DM from file... Failed...
DM filled with atomic data:
<dSpData2D:DM initialized from atoms
  <sparsity:sparsity for geom step 1
    nrows_g=297 nrows=48 sparsity=.1406 nnzs=12398, refcount: 9>
  <dData2D:DM n=12398 m=8, refcount: 1>
refcount: 1>
     spin moment: S , {S} =   56.00000   0.00000   0.00000  56.00000
No. of atoms with KB's overlaping orbs in proc 0. Max # of overlaps:      27     223

Initializing spin-orbit part of the Hamiltonian
  Adding spin-orbit effects for H 
  Adding spin-orbit effects for N 
  Adding spin-orbit effects for Si
  Adding spin-orbit effects for O 


New grid distribution:   1
           1       1:  180    1:  125    1:   15
           2       1:  180    1:  125   16:   30
           3       1:  180    1:  125   31:   45
           4       1:  180    1:  125   46:   60
           5       1:  180  126:  250    1:   15
           6       1:  180  126:  250   16:   30
           7       1:  180  126:  250   31:   45
           8       1:  180  126:  250   46:   60

InitMesh: MESH =   360 x   500 x   120 =    21600000
InitMesh: (bp) =   180 x   250 x    60 =     2700000
InitMesh: Mesh cutoff (required, used) =   340.000   341.206 Ry
ExtMesh (bp) on 0 =   288 x   225 x   123 =     7970400
New grid distribution:   2
           1      24:  180   20:  221    1:   60
           2      24:  180    1:   19    1:   60
           3       1:   23  197:  221    1:   60
           4       1:   23  237:  250    1:   60
           5       1:   23    1:  196    1:   60
           6      24:  180  222:  237    1:   60
           7      24:  180  238:  250    1:   60
           8       1:   23  222:  236    1:   60
New grid distribution:   3
           1      37:  180   19:  204    1:   60
           2      36:  180  232:  250    1:   60
           3      37:  180    1:   18    1:   60
           4       1:   35  228:  250    1:   60
           5       1:   36   32:  204    1:   60
           6      36:  180  205:  231    1:   60
           7       1:   36    1:   31    1:   60
           8       1:   35  205:  227    1:   60
Setting up quadratic distribution...
ExtMesh (bp) on 0 =   265 x   302 x   168 =    13445040
PhiOnMesh: Number of (b)points on node 0 =              1902840
PhiOnMesh: nlist on node 0 =              1819712

stepf: Fermi-Dirac step function

siesta: Program's energy decomposition (eV):
siesta: Ebs     =      -581.246351
siesta: Eions   =      3585.165840
siesta: Ena     =       382.938369
siesta: Ekin    =      3376.270923
siesta: Enl     =     -3305.785422
siesta: Eso     =        -0.003471
siesta: Edftu   =         0.000000
siesta: DEna    =       156.493017
siesta: DUscf   =        78.895692
siesta: DUext   =         0.000000
siesta: Exc     =     -1206.880675
siesta: eta*DQ  =         0.000000
siesta: Emadel  =         0.000000
siesta: Emeta   =         0.000000
siesta: Emolmec =         0.000000
siesta: Ekinion =         0.000000
siesta: Eharris =     -4021.435904
siesta: Etot    =     -4103.237407
siesta: FreeEng =     -4103.238493

        iscf     Eharris(eV)        E_KS(eV)     FreeEng(eV)     dDmax    Ef(eV) dHmax(eV)
   scf:    1    -4021.435904    -4103.237407    -4103.238493  0.953195 -4.909579 20.603560
     spin moment: S , {S} =    2.00597  -0.00000  -0.00000   2.00597
timer: Routine,Calls,Time,% = IterSCF        1      19.123  26.86
   scf:    2    -4149.117142    -4137.643185    -4137.644537  0.477861 -4.112034 11.389015
     spin moment: S , {S} =    1.99352   0.00000  -0.00000   1.99352
   scf:    3    -4109.403883    -4134.719514    -4134.745582  0.440370 -4.242985 12.176454
     spin moment: S , {S} =    2.00279  -0.00000   0.00000   2.00279
   scf:    4    -4150.779851    -4145.747269    -4145.747272  0.288591 -3.782846  5.723896
     spin moment: S , {S} =    0.00010   0.00000   0.00000   0.00010
   scf:    5    -4146.962667    -4146.455874    -4146.455874  0.038201 -3.561578  4.591256
     spin moment: S , {S} =    0.00006   0.00000  -0.00000   0.00006
   scf:    6    -4147.299003    -4146.880381    -4146.880381  0.026736 -3.442430  2.252199
     spin moment: S , {S} =    0.00003   0.00000   0.00000   0.00003
   scf:    7    -4147.244703    -4147.064667    -4147.064667  0.020560 -3.488999  0.864148
     spin moment: S , {S} =    0.00001   0.00000  -0.00000   0.00001
   scf:    8    -4147.195717    -4147.128339    -4147.128339  0.013186 -3.593157  0.421205
     spin moment: S , {S} =    0.00000   0.00000   0.00000   0.00000
   scf:    9    -4147.163194    -4147.145404    -4147.145404  0.006824 -3.627581  0.290177
     spin moment: S , {S} =    0.00000   0.00000  -0.00000   0.00000
   scf:   10    -4147.187591    -4147.164157    -4147.164157  0.013710 -3.657834  0.133084
     spin moment: S , {S} =    0.00000  -0.00000  -0.00000  -0.00000
   scf:   11    -4147.169134    -4147.166479    -4147.166479  0.005112 -3.650579  0.061944
     spin moment: S , {S} =    0.00000   0.00000   0.00000   0.00000
   scf:   12    -4147.168215    -4147.167305    -4147.167305  0.003086 -3.644984  0.036374
     spin moment: S , {S} =    0.00000   0.00000  -0.00000   0.00000
   scf:   13    -4147.168226    -4147.167737    -4147.167737  0.002266 -3.645143  0.030745
     spin moment: S , {S} =    0.00000   0.00000  -0.00000   0.00000
   scf:   14    -4147.168754    -4147.168174    -4147.168174  0.003625 -3.642759  0.017775
     spin moment: S , {S} =    0.00000   0.00000   0.00000   0.00000
   scf:   15    -4147.168554    -4147.168328    -4147.168328  0.002665 -3.644421  0.009452
     spin moment: S , {S} =    0.00000   0.00000  -0.00000   0.00000
   scf:   16    -4147.168402    -4147.168359    -4147.168359  0.001174 -3.644683  0.005882
     spin moment: S , {S} =    0.00000   0.00000   0.00000   0.00000
   scf:   17    -4147.168380    -4147.168368    -4147.168368  0.000638 -3.643684  0.003295
     spin moment: S , {S} =    0.00000   0.00000  -0.00000  -0.00000
   scf:   18    -4147.168376    -4147.168371    -4147.168371  0.000332 -3.643769  0.001765
     spin moment: S , {S} =    0.00000   0.00000  -0.00000  -0.00000
   scf:   19    -4147.168376    -4147.168373    -4147.168373  0.000247 -3.643774  0.000918
     spin moment: S , {S} =    0.00000  -0.00000  -0.00000  -0.00000
   scf:   20    -4147.168375    -4147.168374    -4147.168374  0.000133 -3.645013  0.000461
     spin moment: S , {S} =    0.00000  -0.00000  -0.00000  -0.00000
   scf:   21    -4147.168374    -4147.168374    -4147.168374  0.000113 -3.644955  0.000274
     spin moment: S , {S} =    0.00000  -0.00000  -0.00000  -0.00000
   scf:   22    -4147.168374    -4147.168374    -4147.168374  0.000020 -3.644930  0.000138
     spin moment: S , {S} =    0.00000  -0.00000  -0.00000  -0.00000
   scf:   23    -4147.168374    -4147.168374    -4147.168374  0.000011 -3.644924  0.000074
     spin moment: S , {S} =    0.00000  -0.00000  -0.00000  -0.00000
   scf:   24    -4147.168374    -4147.168374    -4147.168374  0.000014 -3.644919  0.000029
     spin moment: S , {S} =    0.00000  -0.00000  -0.00000  -0.00000
mix: Pulay -- resetting history
   scf:   25    -4147.168374    -4147.168374    -4147.168374  0.000004 -3.644919  0.000021
     spin moment: S , {S} =    0.00000  -0.00000  -0.00000   0.00000
   scf:   26    -4147.168374    -4147.168374    -4147.168374  0.000001 -3.644919  0.000015
     spin moment: S , {S} =    0.00000  -0.00000  -0.00000   0.00000
   scf:   27    -4147.168374    -4147.168374    -4147.168374  0.000001 -3.644919  0.000008
     spin moment: S , {S} =    0.00000  -0.00000  -0.00000  -0.00000
   scf:   28    -4147.168374    -4147.168374    -4147.168374  0.000001 -3.644919  0.000003
     spin moment: S , {S} =    0.00000  -0.00000  -0.00000  -0.00000
   scf:   29    -4147.168374    -4147.168374    -4147.168374  0.000000 -3.644919  0.000002
     spin moment: S , {S} =    0.00000  -0.00000  -0.00000  -0.00000
   scf:   30    -4147.168374    -4147.168374    -4147.168374  0.000000 -3.644919  0.000001
     spin moment: S , {S} =    0.00000  -0.00000  -0.00000  -0.00000

SCF Convergence by DM+H criterion
max |DM_out - DM_in|         :     0.0000003936
max |H_out - H_in|      (eV) :     0.0000009053
SCF cycle converged after 30 iterations

Using DM_out to compute the final energy and forces
No. of atoms with KB's overlaping orbs in proc 0. Max # of overlaps:      27     223

siesta: E_KS(eV) =            -4147.1684

siesta: E_KS - E_eggbox =     -4147.1684
     spin moment: S , {S} =    0.00000  -0.00000  -0.00000  -0.00000

siesta: Atomic forces (eV/Ang):
     1    0.057333    0.012288   -0.000000
     2    0.259059   -0.111102   -0.000000
     3   -0.204760    0.028250    0.000000
     4    0.036282    0.160763    0.000000
     5    0.119955    0.101947   -0.000000
     6    0.028155    0.014129    0.000000
     7   -0.674208   -0.309630   -0.000000
     8   -1.603633    2.942218    0.000000
     9    0.123693   -0.104762    0.000000
    10   -0.067103    0.234205    0.000000
    11    0.311173    0.402716   -0.000000
    12   -0.532278    0.276485    0.000000
    13   -3.925412    4.977581    0.000000
    14   -0.021232    0.012029    0.000000
    15   -0.045594   -0.018452    0.000000
    16   -0.021020    0.001649    0.000000
    17   -0.011950    0.037846   -0.000000
    18   -0.036597   -0.009684   -0.000000
    19   -0.131079   -0.015931   -0.000000
    20    0.772576   -0.104401   -0.000000
    21    2.302733   -6.558027    0.000000
    22    0.046620   -0.707221    0.000000
    23   -0.179535    0.134059   -0.000000
    24    0.242441    0.292295   -0.000000
    25    0.960687   -1.899309    0.000000
    26   -0.071053    0.200908   -0.000000
    27   -0.012783   -0.246195    0.000000
    28    0.004490   -0.348488   -0.000000
    29    0.140071    0.158966    0.000000
----------------------------------------
   Tot   -2.132970   -0.444867   -0.000000
----------------------------------------
   Max    6.558027
   Res    1.110495    sqrt( Sum f_i^2 / 3N )
----------------------------------------
   Max    6.558027    constrained

Stress tensor Voigt[x,y,z,yz,xz,xy] (kbar):       -0.38       -1.29       -0.03       -0.00       -0.00        1.00
(Free)E + p*V (eV/cell)    -4142.4017
Target enthalpy (eV/cell)    -4147.1684

siesta: Stress tensor (static) (eV/Ang**3):
        -0.000235    0.000624   -0.000000
         0.000624   -0.000803    0.000000
        -0.000000   -0.000000   -0.000021

siesta: Pressure (static):          0.56570829  kBar

siesta: Stress tensor (total) (eV/Ang**3):
        -0.000235    0.000624   -0.000000
         0.000624   -0.000803    0.000000
        -0.000000   -0.000000   -0.000021

siesta: Pressure (total):          0.56570829  kBar

siesta: Temp_ion =       0.000 K

siesta: Eigenvalues (eV):
ik =     1
  -23.3696  -23.3696  -23.2750  -23.2750  -21.4524  -21.4524  -21.0868  -21.0868  -20.6263  -20.6263
  -20.2815  -20.2815  -19.8971  -19.8971  -19.5107  -19.5107  -19.2569  -19.2569  -19.1868  -19.1868
  -14.6806  -14.6806  -13.7805  -13.7805  -13.2198  -13.2198  -13.1221  -13.1221  -12.9424  -12.9424
  -12.7493  -12.7493  -12.3251  -12.3251  -12.0157  -12.0157  -11.9169  -11.9169  -11.7958  -11.7958
  -10.8447  -10.8447  -10.6655  -10.6655  -10.4592  -10.4592  -10.1213  -10.1213  -10.0433  -10.0433
   -9.6697   -9.6697   -9.0494   -9.0494   -8.8330   -8.8330   -8.7184   -8.7184   -8.6982   -8.6982
   -8.3355   -8.3355   -8.2496   -8.2496   -8.2453   -8.2453   -7.8737   -7.8737   -7.7164   -7.7164
   -7.4964   -7.4964   -7.4574   -7.4574   -7.2672   -7.2672   -7.1777   -7.1777   -6.8336   -6.8336
   -6.6894   -6.6894   -6.5475   -6.5475   -6.3283   -6.3283   -6.2977   -6.2977   -6.0629   -6.0629
   -5.7681   -5.7681   -5.7111   -5.7111   -5.4099   -5.4099   -4.1927   -4.1927   -3.0952   -3.0952
   -2.2588   -2.2588   -2.2330   -2.2330   -2.0667   -2.0667   -1.8503   -1.8503   -1.7797   -1.7797
   -1.7324   -1.7324   -1.5215   -1.5215   -1.4597   -1.4597   -1.1695   -1.1695   -0.9261   -0.9261
   -0.8584   -0.8584   -0.4623   -0.4623   -0.3361   -0.3361   -0.1931   -0.1931    0.5770    0.5770
    0.5870    0.5870    0.6676    0.6676    0.7801    0.7801    1.0686    1.0686    1.2518    1.2518
    1.5198    1.5198    1.5612    1.5612    1.6538    1.6538    1.7364    1.7364    2.1895    2.1895
    2.3702    2.3702    2.7326    2.7326    2.7999    2.7999    2.8899    2.8899    3.0061    3.0061
    3.1794    3.1794    3.4346    3.4346    3.5296    3.5296    3.6233    3.6233    3.7767    3.7767
    4.0510    4.0510    4.1922    4.1922    4.2166    4.2166    4.3747    4.3747    4.6006    4.6006
    4.6117    4.6117    4.9019    4.9019    5.0710    5.0710    5.1763    5.1763    5.3742    5.3742
    5.4671    5.4671    5.6425    5.6425    5.8295    5.8295    5.9761    5.9761    6.0586    6.0586
    6.2811    6.2811    6.4837    6.4837    6.5647    6.5647    6.7033    6.7033    6.7810    6.7810
    7.1420    7.1420    7.2118    7.2118    7.3790    7.3790    7.4469    7.4469    7.5226    7.5226
    7.7070    7.7070    7.8548    7.8548    7.8878    7.8878    8.1745    8.1745    8.2721    8.2721
    8.4324    8.4324    8.7447    8.7447    8.8077    8.8077    8.9082    8.9082    8.9620    8.9620
    9.1005    9.1006    9.2518    9.2518    9.6087    9.6087    9.6300    9.6300   10.0118   10.0118
   10.0783   10.0783   10.1754   10.1754   10.1927   10.1927   10.4593   10.4593   10.6143   10.6143
   10.9028   10.9028   11.0379   11.0379   11.4323   11.4323   11.4841   11.4841   11.5476   11.5476
   11.6444   11.6444   12.1407   12.1407   12.5213   12.5213   12.6602   12.6602   12.6902   12.6902
   12.7409   12.7409   12.9459   12.9459   13.4638   13.4638   13.6365   13.6365   13.7630   13.7630
   13.9772   13.9772   14.0681   14.0681   14.4630   14.4630   14.5090   14.5090   14.5903   14.5903
   14.9716   14.9716   15.2547   15.2547   15.3429   15.3429   15.5881   15.5881   15.6504   15.6504
   15.8967   15.8967   16.8047   16.8047   16.8299   16.8299   17.0628   17.0628   17.4059   17.4059
   17.6881   17.6881   18.0141   18.0141   18.7255   18.7255   19.0147   19.0147   19.4065   19.4065
   19.6716   19.6716   20.3990   20.3990   20.5944   20.5944   20.9514   20.9514   21.2065   21.2065
   21.4718   21.4718   22.3165   22.3165   22.4411   22.4411   23.0157   23.0157   23.8682   23.8682
   24.0094   24.0094   24.3206   24.3206   24.5202   24.5202   25.1964   25.1964   25.4540   25.4540
   26.3663   26.3663   26.8490   26.8490   27.3371   27.3371   28.1058   28.1058   28.9718   28.9718
   29.8106   29.8106   30.0607   30.0607   30.3058   30.3058   30.6023   30.6023   30.9142   30.9142
   31.0756   31.0756   31.1330   31.1330   31.6475   31.6475   31.8832   31.8832   32.0387   32.0387
   33.7044   33.7044   33.7790   33.7790   34.2100   34.2100   34.5717   34.5717   35.4056   35.4056
   35.4455   35.4455   35.6641   35.6641   36.1924   36.1924   36.4775   36.4775   36.8593   36.8593
   37.2225   37.2225   37.7333   37.7333   38.2409   38.2409   39.0320   39.0320   39.4108   39.4108
   39.6338   39.6338   39.9909   39.9909   40.3049   40.3049   40.4482   40.4482   40.6505   40.6505
   40.9681   40.9681   41.3032   41.3032   42.0642   42.0642   42.4516   42.4516   42.6614   42.6614
   42.9352   42.9352   43.3622   43.3622   43.6808   43.6808   43.6888   43.6888   44.3571   44.3571
   44.7327   44.7327   45.0285   45.0285   45.2688   45.2688   45.5952   45.5952   45.6076   45.6076
   45.6997   45.6997   46.4400   46.4400   47.0815   47.0815   47.1561   47.1561   47.4202   47.4202
   48.1843   48.1843   48.5952   48.5952   49.9124   49.9124   50.2595   50.2595   50.5251   50.5251
   50.7894   50.7894   50.8187   50.8187   51.3021   51.3021   51.9980   51.9980   52.1677   52.1677
   53.1740   53.1740   53.5863   53.5863   54.4528   54.4528   54.9372   54.9372   54.9479   54.9479
   55.0337   55.0337   55.9897   55.9897   56.1796   56.1796   56.5868   56.5868   57.3100   57.3100
   57.8621   57.8621   57.9533   57.9533   58.5893   58.5893   59.4190   59.4190   60.5142   60.5142
   60.7474   60.7474   61.5886   61.5886   61.7516   61.7516   62.8077   62.8077   63.6796   63.6796
   64.4018   64.4018   65.6917   65.6917   65.9601   65.9601   66.9492   66.9492   67.3720   67.3720
   68.2167   68.2167   69.2829   69.2829   71.1801   71.1801   72.8394   72.8395   75.3413   75.3413
   76.7405   76.7405   76.7517   76.7517   79.3690   79.3690   80.5028   80.5028   91.2836   91.2836
   92.3687   92.3687   92.7982   92.7982   95.5680   95.5680   99.0213   99.0213   99.2493   99.2493
  102.4628  102.4628  104.3646  104.3646  104.6339  104.6339  109.6349  109.6349  111.1522  111.1522
  119.3405  119.3405  120.9400  120.9400  126.1271  126.1271  129.6666  129.6666  141.4710  141.4710
  145.6196  145.6196  148.7308  148.7308
siesta: Fermi energy =      -3.644919 eV

siesta: Program's energy decomposition (eV):
siesta: Ebs     =     -1126.508710
siesta: Eions   =      3585.165840
siesta: Ena     =       382.938369
siesta: Ekin    =      2922.392864
siesta: Enl     =     -2803.963363
siesta: Eso     =        -0.004360
siesta: Edftu   =         0.000000
siesta: DEna    =        48.415783
siesta: DUscf   =        13.753104
siesta: DUext   =         0.000000
siesta: Exc     =     -1125.534930
siesta: eta*DQ  =         0.000000
siesta: Emadel  =         0.000000
siesta: Emeta   =         0.000000
siesta: Emolmec =         0.000000
siesta: Ekinion =         0.000000
siesta: Eharris =     -4147.168374
siesta: Etot    =     -4147.168374
siesta: FreeEng =     -4147.168374

siesta: Final energy (eV):
siesta:  Band Struct. =   -1126.508710
siesta:       Kinetic =    2922.392864
siesta:       Hartree =   16424.559496
siesta:       Edftu   =       0.000000
siesta:       Eso     =      -0.004360
siesta:    Ext. field =       0.000000
siesta:   Exch.-corr. =   -1125.534930
siesta:  Ion-electron =  -35436.570747
siesta:       Ion-ion =   13067.989304
siesta:       Ekinion =       0.000000
siesta:         Total =   -4147.168374
siesta:         Fermi =      -3.644919

siesta: Atomic forces (eV/Ang):
siesta:      1    0.057333    0.012288   -0.000000
siesta:      2    0.259059   -0.111102   -0.000000
siesta:      3   -0.204760    0.028250    0.000000
siesta:      4    0.036282    0.160763    0.000000
siesta:      5    0.119955    0.101947   -0.000000
siesta:      6    0.028155    0.014129    0.000000
siesta:      7   -0.674208   -0.309630   -0.000000
siesta:      8   -1.603633    2.942218    0.000000
siesta:      9    0.123693   -0.104762    0.000000
siesta:     10   -0.067103    0.234205    0.000000
siesta:     11    0.311173    0.402716   -0.000000
siesta:     12   -0.532278    0.276485    0.000000
siesta:     13   -3.925412    4.977581    0.000000
siesta:     14   -0.021232    0.012029    0.000000
siesta:     15   -0.045594   -0.018452    0.000000
siesta:     16   -0.021020    0.001649    0.000000
siesta:     17   -0.011950    0.037846   -0.000000
siesta:     18   -0.036597   -0.009684   -0.000000
siesta:     19   -0.131079   -0.015931   -0.000000
siesta:     20    0.772576   -0.104401   -0.000000
siesta:     21    2.302733   -6.558027    0.000000
siesta:     22    0.046620   -0.707221    0.000000
siesta:     23   -0.179535    0.134059   -0.000000
siesta:     24    0.242441    0.292295   -0.000000
siesta:     25    0.960687   -1.899309    0.000000
siesta:     26   -0.071053    0.200908   -0.000000
siesta:     27   -0.012783   -0.246195    0.000000
siesta:     28    0.004490   -0.348488   -0.000000
siesta:     29    0.140071    0.158966    0.000000
siesta: ----------------------------------------
siesta:    Tot   -2.132970   -0.444867   -0.000000

siesta: Stress tensor (static) (eV/Ang**3):
siesta:    -0.000235    0.000624   -0.000000
siesta:     0.000624   -0.000803    0.000000
siesta:    -0.000000   -0.000000   -0.000021

siesta: Cell volume =      13500.000000 Ang**3

siesta: Pressure (static):
siesta:                Solid            Molecule  Units
siesta:           0.00000385         -0.00000313  Ry/Bohr**3
siesta:           0.00035308         -0.00028782  eV/Ang**3
siesta:           0.56570829         -0.46113958  kBar
(Free)E+ p_basis*V_orbitals  =       -4127.317956
(Free)Eharris+ p_basis*V_orbitals  =       -4127.317956
     spin moment: S , {S} =    0.00000  -0.00000  -0.00000  -0.00000

siesta: Electric dipole (a.u.)  =   -0.030631    1.376472   -0.000000
siesta: Electric dipole (Debye) =   -0.077855    3.498645   -0.000000

cite: Please see "GC.bib" for an exhaustive BiBTeX file.
cite: Please clearly indicate Siesta version in published work: v4.1.5-1-g384057250
cite: This calculation has made use of the following articles
cite: which are encouraged to be cited in a published work.
        Primary SIESTA paper
          DOI: www.doi.org/10.1088/0953-8984/14/11/302
        Spin-orbit coupling (on-site approximation)
          DOI: www.doi.org/10.1088/0953-8984/19/19/489001


WARNING: alloc-realloc-dealloc name mismatch
         Name: atomlist isa
         Size:              -116. Bytes
         Node:     0
         Subsequent mismatches will not be reported
>> End of run:   1-FEB-2024  21:16:36
Job completed
