Siesta Version  : v4.1.5-1-g384057250
Architecture    : gcc
Compiler version: GNU Fortran (Debian 12.2.0-14) 12.2.0
Compiler flags  : mpifort -O2 -fPIC -ftree-vectorize -fallow-argument-mismatch
PP flags        : -DFC_HAVE_ABORT -DMPI -DSIESTA__FLOOK -DSIESTA__METIS -DSIESTA__MUMPS -DCDF -DNCDF -DNCDF_4 -DNCDF_PARALLEL -DSIESTA__MRRR -DSIESTA__ELPA
Libraries       : libncdf.a libfdict.a  -lflookall -ldl -lnetcdff -lnetcdf -lz -lscalapack-openmpi -lopenblas -lmetis -lzmumps -lcmumps -ldmumps -lmumps_common -lpord -lsmumps -lesmumps -lscotch -lscotcherr -fopenmp -lelpa
PARALLEL version
NetCDF support
NetCDF-4 support
NetCDF-4 MPI-IO support
METIS ordering support
Lua support

* Running on 32 nodes in parallel
>> Start of run:  16-OCT-2023  20:32:20

                           ***********************       
                           *  WELCOME TO SIESTA  *       
                           ***********************       

reinit: Reading from standard input
reinit: Dumped input in INPUT_TMP.54215
************************** Dump of input data file ****************************
# mpirun -np 4 siesta-4.1.5 < AT.fdf > AT.out &
SystemLabel      AT
NumberOfAtoms    30
NumberOfSpecies  4
%block ChemicalSpeciesLabel
    1    1  H
    2    7  N
    3   14  Si
    4    8  O
%endblock ChemicalSpeciesLabel
############################################
# This overrides Defaults.fdf configuration
############################################
MD.TypeOfRun                Verlet # CG, Verlet
MD.Steps                    0
MaxSCFIterations            300
AtomicCoordinatesFormat NotScaledCartesianAng
%block AtomicCoordinatesAndAtomicSpecies
    2.28494382 -5.19529124 0.0  1  1  H
    1.37433094 -4.6647107 0.0  2  2  N
    -0.21830245 -5.49458215 0.0  3  3  Si
    -0.17484108 -6.98516892 0.0  1  4  H
    -1.66171682 -4.58600741 0.0  2  5  N
    -1.09026419 -2.87456374 0.0  3  6  Si
    -1.53038332 -0.70765692 0.0  3  7  Si
    -3.14415959 -0.09186471 0.0  2  8  N
    -3.40268075 0.95848335 0.0  1  9  H
    -3.95073599 -0.76720972 0.0  1  10  H
    -0.17836637 0.41349951 0.0  2  11  N
    1.49520211 -0.0473996 0.0  3  12  Si
    2.45603905 1.10727302 0.0  1  13  H
    2.30451743 -1.58574382 0.0  2  14  N
    1.10725559 -2.84610319 0.0  3  15  Si
    0.43224187137128534 8.536608108305954 0.0  1  16  H
    -0.3764688086287147 7.8444022283059525 0.0  2  17  N
    -2.0330586486287148 8.557522328305954 0.0  3  18  Si
    -1.9361934786287147 10.068247538305952 0.0  1  19  H
    -3.7592149986287144 7.214474198305952 0.0  3  20  Si
    -6.113669248628715 7.206487268305953 0.0  3  21  Si
    -6.676087368628715 7.940976918305953 -1.20183078  1  22  H
    -6.413482998628715 5.727396138305952 -0.08618332  1  23  H
    -6.6761998286287145 7.7713197283059525 1.28814761  1  24  H
    -2.8298243586287146 5.143902968305953 0.0  3  25  Si
    -3.7792927186287146 3.8553668383059527 0.0  4  26  O
    -1.0388794886287147 4.970167498305953 0.0  2  27  N
    -0.7078881286287146 3.937810518305953 0.0  1  28  H
    0.2695787313712853 6.164713918305953 0.0  3  29  Si
    1.8355156613712853 5.897467068305954 0.0  4  30  O
%endblock AtomicCoordinatesAndAtomicSpecies
%include ../../../../Defaults.fdf
************************** End of input data file *****************************

reinit: -----------------------------------------------------------------------
reinit: System Name: 
reinit: -----------------------------------------------------------------------
reinit: System Label: AT
reinit: -----------------------------------------------------------------------

initatom: Reading input for the pseudopotentials and atomic orbitals ----------
Species number:   1 Atomic number:    1 Label: H
Species number:   2 Atomic number:    7 Label: N
Species number:   3 Atomic number:   14 Label: Si
Species number:   4 Atomic number:    8 Label: O

Ground state valence configuration:   1s01
Reading pseudopotential information in formatted form from H.psf

Pseudopotential generated from a relativistic atomic calculation

Valence configuration for pseudopotential generation:
1s( 1.00) rc: 0.01
2p( 0.00) rc: 0.60
3d( 0.00) rc: 1.99
4f( 0.00) rc: 2.49
Ground state valence configuration:   2s02  2p03
Reading pseudopotential information in formatted form from N.psf

Pseudopotential generated from a relativistic atomic calculation

Valence configuration for pseudopotential generation:
2s( 2.00) rc: 0.94
2p( 3.00) rc: 0.59
3d( 0.00) rc: 3.46
4f( 0.00) rc: 2.47
Ground state valence configuration:   3s02  3p02
Reading pseudopotential information in formatted form from Si.psf

Pseudopotential generated from a relativistic atomic calculation

Valence configuration for pseudopotential generation:
3s( 2.00) rc: 1.67
3p( 2.00) rc: 2.04
3d( 0.00) rc: 2.89
4f( 0.00) rc: 2.49
Ground state valence configuration:   2s02  2p04
Reading pseudopotential information in formatted form from O.psf

Pseudopotential generated from a relativistic atomic calculation

Valence configuration for pseudopotential generation:
2s( 2.00) rc: 0.45
2p( 4.00) rc: 0.92
3d( 0.00) rc: 2.24
4f( 0.00) rc: 0.25
For H, standard SIESTA heuristics set lmxkb to 2
 (one more than the basis l, including polarization orbitals).
Use PS.lmax or PS.KBprojectors blocks to override.
For N, standard SIESTA heuristics set lmxkb to 3
 (one more than the basis l, including polarization orbitals).
Use PS.lmax or PS.KBprojectors blocks to override.
For Si, standard SIESTA heuristics set lmxkb to 3
 (one more than the basis l, including polarization orbitals).
Use PS.lmax or PS.KBprojectors blocks to override.
For O, standard SIESTA heuristics set lmxkb to 3
 (one more than the basis l, including polarization orbitals).
Use PS.lmax or PS.KBprojectors blocks to override.

<basis_specs>
===============================================================================
H                    Z=   1    Mass=  1.0100        Charge= 0.17977+309
Lmxo=0 Lmxkb= 2    BasisType=split      Semic=F
L=0  Nsemic=0  Cnfigmx=1
          i=1  nzeta=2  polorb=1  (1s)
            splnorm:   0.62000    
               vcte:    0.0000    
               rinn:    0.0000    
               qcoe:    0.0000    
               qyuk:    0.0000    
               qwid:   0.10000E-01
                rcs:    0.0000      0.0000    
            lambdas:    1.0000      1.0000    
-------------------------------------------------------------------------------
L=0  Nkbl=1  erefs: 0.17977+309
L=1  Nkbl=1  erefs: 0.17977+309
L=2  Nkbl=1  erefs: 0.17977+309
===============================================================================
</basis_specs>

atom: Called for H                     (Z =   1)

read_vps: Pseudopotential generation method:
read_vps: ATM4.2.7  Troullier-Martins                       
Valence charge for ps generation:    1.00000

xc_check: Exchange-correlation functional:
xc_check: GGA Perdew, Burke & Ernzerhof 1996
V l=0 = -2*Zval/r beyond r=  0.0098
V l=1 = -2*Zval/r beyond r=  0.5817
V l=2 = -2*Zval/r beyond r=  1.9372
All V_l potentials equal beyond r=  1.9372
This should be close to max(r_c) in ps generation
All pots = -2*Zval/r beyond r=  1.9372

VLOCAL1: 99.0% of the norm of Vloc inside     11.567 Ry
VLOCAL1: 99.9% of the norm of Vloc inside     26.362 Ry
atom: Maximum radius for 4*pi*r*r*local-pseudopot. charge    2.25106
atom: Maximum radius for r*vlocal+2*Zval:    1.91306
GHOST: No ghost state for L =  0
GHOST: No ghost state for L =  1
GHOST: No ghost state for L =  2

KBgen: Kleinman-Bylander projectors: 
   l= 0   rc=  2.036604   el= -0.477180   Ekb= -6.081590   kbcos= -0.277285
   l= 1   rc=  2.195416   el=  0.001076   Ekb= -0.926943   kbcos= -0.034643
   l= 2   rc=  2.251056   el=  0.002010   Ekb= -0.130941   kbcos= -0.009788

KBgen: Total number of Kleinman-Bylander projectors:    9
atom: -------------------------------------------------------------------------

atom: SANKEY-TYPE ORBITALS:
atom: Selected multiple-zeta basis: split     

SPLIT: Orbitals with angular momentum L= 0

SPLIT: Basis orbitals for state 1s

SPLIT: PAO cut-off radius determined from an
SPLIT: energy shift=  0.002000 Ry

   izeta = 1
                 lambda =    1.000000
                     rc =    6.518340
                 energy =   -0.475305
                kinetic =    0.912139
    potential(screened) =   -1.387444
       potential(ionic) =   -1.907295

   izeta = 2
                 rmatch =    2.141150
              splitnorm =    0.620000
                 energy =    0.566467
                kinetic =    3.772856
    potential(screened) =   -3.206389
       potential(ionic) =   -3.759093

POLgen: Perturbative polarization orbital with L=  1

POLgen: Polarization orbital for state 1s

   izeta = 1
                     rc =    6.518340
                 energy =    0.533861
                kinetic =    1.121086
    potential(screened) =   -0.587225
       potential(ionic) =   -1.053027
atom: Total number of Sankey-type orbitals:  5

atm_pop: Valence configuration (for local Pseudopot. screening):
 1s( 1.00)                                                            
Vna: chval, zval:    1.00000   1.00000

Vna:  Cut-off radius for the neutral-atom potential:   6.518340

atom: _________________________________________________________________________

<basis_specs>
===============================================================================
N                    Z=   7    Mass=  14.010        Charge= 0.17977+309
Lmxo=1 Lmxkb= 3    BasisType=split      Semic=F
L=0  Nsemic=0  Cnfigmx=2
          i=1  nzeta=2  polorb=0  (2s)
            splnorm:   0.28000    
               vcte:    0.0000    
               rinn:    0.0000    
               qcoe:    0.0000    
               qyuk:    0.0000    
               qwid:   0.10000E-01
                rcs:    0.0000      0.0000    
            lambdas:    1.0000      1.0000    
L=1  Nsemic=0  Cnfigmx=2
          i=1  nzeta=2  polorb=1  (2p)
            splnorm:   0.28000    
               vcte:    0.0000    
               rinn:    0.0000    
               qcoe:    0.0000    
               qyuk:    0.0000    
               qwid:   0.10000E-01
                rcs:    0.0000      0.0000    
            lambdas:    1.0000      1.0000    
-------------------------------------------------------------------------------
L=0  Nkbl=1  erefs: 0.17977+309
L=1  Nkbl=1  erefs: 0.17977+309
L=2  Nkbl=1  erefs: 0.17977+309
L=3  Nkbl=1  erefs: 0.17977+309
===============================================================================
</basis_specs>

atom: Called for N                     (Z =   7)

read_vps: Pseudopotential generation method:
read_vps: ATM4.2.7  Troullier-Martins                       
Valence charge for ps generation:    5.00000

xc_check: Exchange-correlation functional:
xc_check: GGA Perdew, Burke & Ernzerhof 1996
V l=0 = -2*Zval/r beyond r=  1.2889
V l=1 = -2*Zval/r beyond r=  1.2889
V l=2 = -2*Zval/r beyond r=  3.4178
V l=3 = -2*Zval/r beyond r=  2.4084
All V_l potentials equal beyond r=  3.3753
This should be close to max(r_c) in ps generation
All pots = -2*Zval/r beyond r=  3.4178

VLOCAL1: 99.0% of the norm of Vloc inside      3.810 Ry
VLOCAL1: 99.9% of the norm of Vloc inside      8.683 Ry
atom: Maximum radius for 4*pi*r*r*local-pseudopot. charge    4.02088
atom: Maximum radius for r*vlocal+2*Zval:    3.54838
GHOST: No ghost state for L =  0
GHOST: No ghost state for L =  1
GHOST: No ghost state for L =  2
GHOST: No ghost state for L =  3

KBgen: Kleinman-Bylander projectors: 
   l= 0   rc=  3.417763   el= -1.365098   Ekb= -4.433130   kbcos= -0.707855
   l= 1   rc=  3.375302   el= -0.521201   Ekb=-13.264039   kbcos= -0.535594
   l= 2   rc=  3.872880   el=  0.001991   Ekb= -0.641094   kbcos= -0.062456
   l= 3   rc=  3.970931   el=  0.003093   Ekb= -0.474517   kbcos= -0.018236

KBgen: Total number of Kleinman-Bylander projectors:   16
atom: -------------------------------------------------------------------------

atom: SANKEY-TYPE ORBITALS:
atom: Selected multiple-zeta basis: split     

SPLIT: Orbitals with angular momentum L= 0

SPLIT: Basis orbitals for state 2s

SPLIT: PAO cut-off radius determined from an
SPLIT: energy shift=  0.002000 Ry

   izeta = 1
                 lambda =    1.000000
                     rc =    4.730425
                 energy =   -1.363399
                kinetic =    1.245246
    potential(screened) =   -2.608645
       potential(ionic) =   -8.121105

   izeta = 2
                 rmatch =    2.531849
              splitnorm =    0.280000
                 energy =   -0.959908
                kinetic =    2.409435
    potential(screened) =   -3.369343
       potential(ionic) =   -9.427975

SPLIT: Orbitals with angular momentum L= 1

SPLIT: Basis orbitals for state 2p

SPLIT: PAO cut-off radius determined from an
SPLIT: energy shift=  0.002000 Ry

   izeta = 1
                 lambda =    1.000000
                     rc =    5.924108
                 energy =   -0.519262
                kinetic =    3.672940
    potential(screened) =   -4.192202
       potential(ionic) =   -9.518354

   izeta = 2
                 rmatch =    2.531849
              splitnorm =    0.280000
                 energy =   -0.104258
                kinetic =    6.807538
    potential(screened) =   -6.911796
       potential(ionic) =  -13.149920

POLgen: Perturbative polarization orbital with L=  2

POLgen: Polarization orbital for state 2p

   izeta = 1
                     rc =    5.924108
                 energy =    1.427508
                kinetic =    2.872379
    potential(screened) =   -1.444871
       potential(ionic) =   -5.563644
atom: Total number of Sankey-type orbitals: 13

atm_pop: Valence configuration (for local Pseudopot. screening):
 2s( 2.00)                                                            
 2p( 3.00)                                                            
Vna: chval, zval:    5.00000   5.00000

Vna:  Cut-off radius for the neutral-atom potential:   5.924108

atom: _________________________________________________________________________

<basis_specs>
===============================================================================
Si                   Z=  14    Mass=  28.090        Charge= 0.17977+309
Lmxo=1 Lmxkb= 3    BasisType=split      Semic=F
L=0  Nsemic=0  Cnfigmx=3
          i=1  nzeta=2  polorb=0  (3s)
            splnorm:   0.28000    
               vcte:    0.0000    
               rinn:    0.0000    
               qcoe:    0.0000    
               qyuk:    0.0000    
               qwid:   0.10000E-01
                rcs:    0.0000      0.0000    
            lambdas:    1.0000      1.0000    
L=1  Nsemic=0  Cnfigmx=3
          i=1  nzeta=2  polorb=1  (3p)
            splnorm:   0.28000    
               vcte:    0.0000    
               rinn:    0.0000    
               qcoe:    0.0000    
               qyuk:    0.0000    
               qwid:   0.10000E-01
                rcs:    0.0000      0.0000    
            lambdas:    1.0000      1.0000    
-------------------------------------------------------------------------------
L=0  Nkbl=1  erefs: 0.17977+309
L=1  Nkbl=1  erefs: 0.17977+309
L=2  Nkbl=1  erefs: 0.17977+309
L=3  Nkbl=1  erefs: 0.17977+309
===============================================================================
</basis_specs>

atom: Called for Si                    (Z =  14)

read_vps: Pseudopotential generation method:
read_vps: ATM4.2.7  Troullier-Martins                       
Valence charge for ps generation:    4.00000

xc_check: Exchange-correlation functional:
xc_check: GGA Perdew, Burke & Ernzerhof 1996
V l=0 = -2*Zval/r beyond r=  2.7826
V l=1 = -2*Zval/r beyond r=  2.7826
V l=2 = -2*Zval/r beyond r=  2.9253
V l=3 = -2*Zval/r beyond r=  2.7826
All V_l potentials equal beyond r=  2.8530
This should be close to max(r_c) in ps generation
All pots = -2*Zval/r beyond r=  2.9253

VLOCAL1: 99.0% of the norm of Vloc inside      5.333 Ry
VLOCAL1: 99.9% of the norm of Vloc inside     12.154 Ry
atom: Maximum radius for 4*pi*r*r*local-pseudopot. charge    3.39869
atom: Maximum radius for r*vlocal+2*Zval:    2.96205
GHOST: No ghost state for L =  0
GHOST: No ghost state for L =  1
GHOST: No ghost state for L =  2
GHOST: No ghost state for L =  3

KBgen: Kleinman-Bylander projectors: 
   l= 0   rc=  3.075247   el= -0.794092   Ekb=  5.879390   kbcos=  0.167461
   l= 1   rc=  3.153101   el= -0.300068   Ekb=  2.642817   kbcos=  0.058301
   l= 2   rc=  3.273594   el=  0.001958   Ekb= -1.185135   kbcos= -0.104411
   l= 3   rc=  3.232927   el=  0.003046   Ekb= -0.497174   kbcos= -0.015889

KBgen: Total number of Kleinman-Bylander projectors:   16
atom: -------------------------------------------------------------------------

atom: SANKEY-TYPE ORBITALS:
atom: Selected multiple-zeta basis: split     

SPLIT: Orbitals with angular momentum L= 0

SPLIT: Basis orbitals for state 3s

SPLIT: PAO cut-off radius determined from an
SPLIT: energy shift=  0.002000 Ry

   izeta = 1
                 lambda =    1.000000
                     rc =    6.429618
                 energy =   -0.792283
                kinetic =    0.525293
    potential(screened) =   -1.317576
       potential(ionic) =   -3.744923

   izeta = 2
                 rmatch =    3.998416
              splitnorm =    0.280000
                 energy =   -0.583081
                kinetic =    1.069570
    potential(screened) =   -1.652651
       potential(ionic) =   -4.235185

SPLIT: Orbitals with angular momentum L= 1

SPLIT: Basis orbitals for state 3p

SPLIT: PAO cut-off radius determined from an
SPLIT: energy shift=  0.002000 Ry

   izeta = 1
                 lambda =    1.000000
                     rc =    8.464845
                 energy =   -0.298236
                kinetic =    0.785360
    potential(screened) =   -1.083596
       potential(ionic) =   -3.273779

   izeta = 2
                 rmatch =    4.587816
              splitnorm =    0.280000
                 energy =   -0.131871
                kinetic =    1.403687
    potential(screened) =   -1.535557
       potential(ionic) =   -4.015310

POLgen: Perturbative polarization orbital with L=  2

POLgen: Polarization orbital for state 3p

   izeta = 1
                     rc =    8.464845
                 energy =    0.321949
                kinetic =    1.055677
    potential(screened) =   -0.733728
       potential(ionic) =   -2.672950
atom: Total number of Sankey-type orbitals: 13

atm_pop: Valence configuration (for local Pseudopot. screening):
 3s( 2.00)                                                            
 3p( 2.00)                                                            
Vna: chval, zval:    4.00000   4.00000

Vna:  Cut-off radius for the neutral-atom potential:   8.464845

atom: _________________________________________________________________________

<basis_specs>
===============================================================================
O                    Z=   8    Mass=  16.000        Charge= 0.17977+309
Lmxo=1 Lmxkb= 3    BasisType=split      Semic=F
L=0  Nsemic=0  Cnfigmx=2
          i=1  nzeta=2  polorb=0  (2s)
            splnorm:   0.28000    
               vcte:    0.0000    
               rinn:    0.0000    
               qcoe:    0.0000    
               qyuk:    0.0000    
               qwid:   0.10000E-01
                rcs:    0.0000      0.0000    
            lambdas:    1.0000      1.0000    
L=1  Nsemic=0  Cnfigmx=2
          i=1  nzeta=2  polorb=1  (2p)
            splnorm:   0.28000    
               vcte:    0.0000    
               rinn:    0.0000    
               qcoe:    0.0000    
               qyuk:    0.0000    
               qwid:   0.10000E-01
                rcs:    0.0000      0.0000    
            lambdas:    1.0000      1.0000    
-------------------------------------------------------------------------------
L=0  Nkbl=1  erefs: 0.17977+309
L=1  Nkbl=1  erefs: 0.17977+309
L=2  Nkbl=1  erefs: 0.17977+309
L=3  Nkbl=1  erefs: 0.17977+309
===============================================================================
</basis_specs>

atom: Called for O                     (Z =   8)

read_vps: Pseudopotential generation method:
read_vps: ATM4.2.7  Troullier-Martins                       
Valence charge for ps generation:    6.00000

xc_check: Exchange-correlation functional:
xc_check: GGA Perdew, Burke & Ernzerhof 1996
V l=0 = -2*Zval/r beyond r=  1.1000
V l=1 = -2*Zval/r beyond r=  1.1000
V l=2 = -2*Zval/r beyond r=  2.2154
V l=3 = -2*Zval/r beyond r=  1.1000
All V_l potentials equal beyond r=  2.2154
This should be close to max(r_c) in ps generation
All pots = -2*Zval/r beyond r=  2.2154

VLOCAL1: 99.0% of the norm of Vloc inside      8.845 Ry
VLOCAL1: 99.9% of the norm of Vloc inside     20.157 Ry
atom: Maximum radius for 4*pi*r*r*local-pseudopot. charge    2.67231
atom: Maximum radius for r*vlocal+2*Zval:    2.32897
GHOST: No ghost state for L =  0
GHOST: No ghost state for L =  1
GHOST: No ghost state for L =  2
GHOST: No ghost state for L =  3

KBgen: Kleinman-Bylander projectors: 
   l= 0   rc=  2.243238   el= -1.759686   Ekb=**********   kbcos= -0.171774
   l= 1   rc=  2.328968   el= -0.663873   Ekb=-14.506792   kbcos= -0.519897
   l= 2   rc=  2.573941   el=  0.002031   Ekb= -1.137373   kbcos= -0.019581
   l= 3   rc=  2.606321   el=  0.003153   Ekb= -1.013546   kbcos= -0.003122

KBgen: Total number of Kleinman-Bylander projectors:   16
atom: -------------------------------------------------------------------------

atom: SANKEY-TYPE ORBITALS:
atom: Selected multiple-zeta basis: split     

SPLIT: Orbitals with angular momentum L= 0

SPLIT: Basis orbitals for state 2s

SPLIT: PAO cut-off radius determined from an
SPLIT: energy shift=  0.002000 Ry

   izeta = 1
                 lambda =    1.000000
                     rc =    4.243912
                 energy =   -1.758270
                kinetic =    3.286084
    potential(screened) =   -5.044353
       potential(ionic) =  -12.921184

   izeta = 2
                 rmatch =    2.187845
              splitnorm =    0.280000
                 energy =   -0.885018
                kinetic =    8.134434
    potential(screened) =   -9.019452
       potential(ionic) =  -17.710645

SPLIT: Orbitals with angular momentum L= 1

SPLIT: Basis orbitals for state 2p

SPLIT: PAO cut-off radius determined from an
SPLIT: energy shift=  0.002000 Ry

   izeta = 1
                 lambda =    1.000000
                     rc =    5.314825
                 energy =   -0.661986
                kinetic =    4.917472
    potential(screened) =   -5.579458
       potential(ionic) =  -13.236259

   izeta = 2
                 rmatch =    2.160663
              splitnorm =    0.280000
                 energy =   -0.068760
                kinetic =    9.183374
    potential(screened) =   -9.252135
       potential(ionic) =  -18.274251

POLgen: Perturbative polarization orbital with L=  2

POLgen: Polarization orbital for state 2p

   izeta = 1
                     rc =    5.314825
                 energy =    1.970580
                kinetic =    3.886128
    potential(screened) =   -1.915547
       potential(ionic) =   -7.749584
atom: Total number of Sankey-type orbitals: 13

atm_pop: Valence configuration (for local Pseudopot. screening):
 2s( 2.00)                                                            
 2p( 4.00)                                                            
Vna: chval, zval:    6.00000   6.00000

Vna:  Cut-off radius for the neutral-atom potential:   5.314825

atom: _________________________________________________________________________

prinput: Basis input ----------------------------------------------------------

PAO.BasisType split     

%block ChemicalSpeciesLabel
    1    1 H                       # Species index, atomic number, species label
    2    7 N                       # Species index, atomic number, species label
    3   14 Si                      # Species index, atomic number, species label
    4    8 O                       # Species index, atomic number, species label
%endblock ChemicalSpeciesLabel

%block PAO.Basis                 # Define Basis set
H                     1                    # Species label, number of l-shells
 n=1   0   2 P   1                   # n, l, Nzeta, Polarization, NzetaPol
   6.518      2.141   
   1.000      1.000   
N                     2                    # Species label, number of l-shells
 n=2   0   2                         # n, l, Nzeta 
   4.730      2.532   
   1.000      1.000   
 n=2   1   2 P   1                   # n, l, Nzeta, Polarization, NzetaPol
   5.924      2.532   
   1.000      1.000   
Si                    2                    # Species label, number of l-shells
 n=3   0   2                         # n, l, Nzeta 
   6.430      3.998   
   1.000      1.000   
 n=3   1   2 P   1                   # n, l, Nzeta, Polarization, NzetaPol
   8.465      4.588   
   1.000      1.000   
O                     2                    # Species label, number of l-shells
 n=2   0   2                         # n, l, Nzeta 
   4.244      2.188   
   1.000      1.000   
 n=2   1   2 P   1                   # n, l, Nzeta, Polarization, NzetaPol
   5.315      2.161   
   1.000      1.000   
%endblock PAO.Basis

prinput: ----------------------------------------------------------------------

Dumping basis to NetCDF file H.ion.nc
Dumping basis to NetCDF file N.ion.nc
Dumping basis to NetCDF file Si.ion.nc
Dumping basis to NetCDF file O.ion.nc
coor:   Atomic-coordinates input format  =     Cartesian coordinates
coor:                                          (in Angstroms)

siesta: Atomic coordinates (Bohr) and species
siesta:      4.31792  -9.81768   0.00000  1        1
siesta:      2.59711  -8.81503   0.00000  2        2
siesta:     -0.41253 -10.38326   0.00000  3        3
siesta:     -0.33040 -13.20006   0.00000  1        4
siesta:     -3.14019  -8.66630   0.00000  2        5
siesta:     -2.06030  -5.43214   0.00000  3        6
siesta:     -2.89201  -1.33728   0.00000  3        7
siesta:     -5.94160  -0.17360   0.00000  2        8
siesta:     -6.43014   1.81127   0.00000  1        9
siesta:     -7.46581  -1.44982   0.00000  1       10
siesta:     -0.33706   0.78140   0.00000  2       11
siesta:      2.82552  -0.08957   0.00000  3       12
siesta:      4.64124   2.09244   0.00000  1       13
siesta:      4.35491  -2.99662   0.00000  2       14
siesta:      2.09241  -5.37836   0.00000  3       15
siesta:      0.81682  16.13186   0.00000  1       16
siesta:     -0.71142  14.82378   0.00000  2       17
siesta:     -3.84193  16.17138   0.00000  3       18
siesta:     -3.65888  19.02624   0.00000  1       19
siesta:     -7.10389  13.63339   0.00000  3       20
siesta:    -11.55317  13.61829   0.00000  3       21
siesta:    -12.61598  15.00628  -2.27113  1       22
siesta:    -12.11973  10.82321  -0.16286  1       23
siesta:    -12.61619  14.68567   2.43425  1       24
siesta:     -5.34760   9.72057   0.00000  3       25
siesta:     -7.14183   7.28559   0.00000  4       26
siesta:     -1.96320   9.39226   0.00000  2       27
siesta:     -1.33772   7.44139   0.00000  1       28
siesta:      0.50943  11.64963   0.00000  3       29
siesta:      3.46862  11.14460   0.00000  4       30

siesta: Automatic unit cell vectors (Ang):
siesta:   18.224442    0.000000    0.000000
siesta:    0.000000   26.347341    0.000000
siesta:    0.000000    0.000000   10.327559

siesta: System type = molecule  

initatomlists: Number of atoms, orbitals, and projectors:     30   302   403

siesta: ******************** Simulation parameters ****************************
siesta:
siesta: The following are some of the parameters of the simulation.
siesta: A complete list of the parameters used, including default values,
siesta: can be found in file out.fdf
siesta:
redata: Spin configuration                          = spin-orbit
redata: Number of spin components                   = 8
redata: Time-Reversal Symmetry                      = F
redata: Spin spiral                                 = F
############################################################
This spin-orbit implementation uses a local approximation.
From 4.2 and onwards the full non-local approximation is implemented
You are strongly advised to use >=4.2 versions!
############################################################
redata: Long output                                 =   F
redata: Number of Atomic Species                    =        4
redata: Charge density info will appear in .RHO file
redata: Write Mulliken Pop.                         = NO
redata: Matel table size (NRTAB)                    =     1024
redata: Mesh Cutoff                                 =   340.0000 Ry
redata: Net charge of the system                    =     0.0000 |e|
redata: Min. number of SCF Iter                     =        1
redata: Max. number of SCF Iter                     =      300
redata: SCF convergence failure will abort job
redata: SCF mix quantity                            = Hamiltonian
redata: Mix DM or H after convergence               =   F
redata: Recompute H after scf cycle                 =   F
redata: Mix DM in first SCF step                    =   T
redata: Write Pulay info on disk                    =   F
redata: New DM Occupancy tolerance                  = 0.000000000001
redata: No kicks to SCF
redata: DM Mixing Weight for Kicks                  =     0.5000
redata: Require Harris convergence for SCF          =   F
redata: Harris energy tolerance for SCF             =     0.000100 eV
redata: Require DM convergence for SCF              =   T
redata: DM tolerance for SCF                        =     0.000008
redata: Require EDM convergence for SCF             =   F
redata: EDM tolerance for SCF                       =     0.001000 eV
redata: Require H convergence for SCF               =   T
redata: Hamiltonian tolerance for SCF               =     0.000001 eV
redata: Require (free) Energy convergence for SCF   =   F
redata: (free) Energy tolerance for SCF             =     0.000100 eV
redata: Using Saved Data (generic)                  =   F
redata: Use continuation files for DM               =   T
redata: Neglect nonoverlap interactions             =   F
redata: Method of Calculation                       = Diagonalization
redata: Electronic Temperature                      =   299.9978 K
redata: Fix the spin of the system                  =   F
redata: Dynamics option                             = Verlet MD run
redata: Initial MD time step                        =        1
redata:   Final MD time step                        =        1
redata: Length of MD time step                      =     0.5000 fs
redata: Initial Temperature of MD run               =     0.0000 K
redata: Perform a MD quench                         =   F
mix.SCF: Pulay mixing                            = Pulay
mix.SCF:    Variant                              = stable
mix.SCF:    History steps                        = 6
mix.SCF:    Linear mixing weight                 =     0.250000
mix.SCF:    Mixing weight                        =     0.250000
mix.SCF:    SVD condition                        = 0.1000E-07
mix.SCF:    Restart steps                        = 24
mix.SCF:    Restart save steps                   = 3
mix.SCF: Spin-component mixing                   all
redata: Save all siesta data in one NC              =   F
redata: ***********************************************************************

%block SCF.Mixers
  Pulay
%endblock SCF.Mixers

%block SCF.Mixer.Pulay
  # Mixing method
  method pulay
  variant stable

  # Mixing options
  weight 0.2500
  weight.linear 0.2500
  history 6
  restart 24
  restart.save 3
%endblock SCF.Mixer.Pulay

Size of DM history Fstack: 3
Total number of electrons:    98.000000
Total ionic charge:    98.000000

* ProcessorY, Blocksize:    4   9


* Orbital distribution balance (max,min):    18     9


Time-reversal symmetry not used.

siesta: k-grid: Number of k-points =     1
siesta: k-grid: Cutoff (effective) =     5.164 Ang
siesta: k-grid: Supercell and displacements
siesta: k-grid:    1   0   0      0.000
siesta: k-grid:    0   1   0      0.000
siesta: k-grid:    0   0   1      0.000

diag: Algorithm                                     = ELPA-1stage
diag: Parallel over k                               =   F
diag: Use parallel 2D distribution                  =   T
diag: Parallel block-size                           = 9
diag: Parallel distribution                         =     4 x     8
diag: Used triangular part                          = Lower
diag: Absolute tolerance                            =  0.100E-15
diag: Orthogonalization factor                      =  0.100E-05
diag: Memory factor                                 =  1.0000


ts: **************************************************************
ts: Save H and S matrices                           =    F
ts: Save DM and EDM matrices                        =    F
ts: Only save the overlap matrix S                  =    F
ts: **************************************************************

************************ Begin: TS CHECKS AND WARNINGS ************************
************************ End: TS CHECKS AND WARNINGS **************************


                     ====================================
                        Begin MD step =      1
                     ====================================

outcoor: Atomic coordinates (Ang):                          
    2.28494382   -5.19529124    0.00000000   1       1  H
    1.37433094   -4.66471070    0.00000000   2       2  N
   -0.21830245   -5.49458215    0.00000000   3       3  Si
   -0.17484108   -6.98516892    0.00000000   1       4  H
   -1.66171682   -4.58600741    0.00000000   2       5  N
   -1.09026419   -2.87456374    0.00000000   3       6  Si
   -1.53038332   -0.70765692    0.00000000   3       7  Si
   -3.14415959   -0.09186471    0.00000000   2       8  N
   -3.40268075    0.95848335    0.00000000   1       9  H
   -3.95073599   -0.76720972    0.00000000   1      10  H
   -0.17836637    0.41349951    0.00000000   2      11  N
    1.49520211   -0.04739960    0.00000000   3      12  Si
    2.45603905    1.10727302    0.00000000   1      13  H
    2.30451743   -1.58574382    0.00000000   2      14  N
    1.10725559   -2.84610319    0.00000000   3      15  Si
    0.43224187    8.53660811    0.00000000   1      16  H
   -0.37646881    7.84440223    0.00000000   2      17  N
   -2.03305865    8.55752233    0.00000000   3      18  Si
   -1.93619348   10.06824754    0.00000000   1      19  H
   -3.75921500    7.21447420    0.00000000   3      20  Si
   -6.11366925    7.20648727    0.00000000   3      21  Si
   -6.67608737    7.94097692   -1.20183078   1      22  H
   -6.41348300    5.72739614   -0.08618332   1      23  H
   -6.67619983    7.77131973    1.28814761   1      24  H
   -2.82982436    5.14390297    0.00000000   3      25  Si
   -3.77929272    3.85536684    0.00000000   4      26  O
   -1.03887949    4.97016750    0.00000000   2      27  N
   -0.70788813    3.93781052    0.00000000   1      28  H
    0.26957873    6.16471392    0.00000000   3      29  Si
    1.83551566    5.89746707    0.00000000   4      30  O

outcell: Unit cell vectors (Ang):
       18.224442    0.000000    0.000000
        0.000000   26.347341    0.000000
        0.000000    0.000000   10.327559

outcell: Cell vector modules (Ang)   :   18.224442   26.347341   10.327559
outcell: Cell angles (23,13,12) (deg):     90.0000     90.0000     90.0000
outcell: Cell volume (Ang**3)        :   4958.9384
<dSpData1D:S at geom step 1
  <sparsity:sparsity for geom step 1
    nrows_g=302 nrows=18 sparsity=.0318 nnzs=2903, refcount: 8>
  <dData1D:(new from dSpData1D) n=2903, refcount: 1>
refcount: 1>
new_DM -- step:     1
Initializing Density Matrix...

Attempting to read DM from file... Failed...
DM filled with atomic data:
<dSpData2D:DM initialized from atoms
  <sparsity:sparsity for geom step 1
    nrows_g=302 nrows=18 sparsity=.0318 nnzs=2903, refcount: 9>
  <dData2D:DM n=2903 m=8, refcount: 1>
refcount: 1>
     spin moment: S , {S} =   56.00000   0.00000   0.00000  56.00000
No. of atoms with KB's overlaping orbs in proc 0. Max # of overlaps:      22     161

Initializing spin-orbit part of the Hamiltonian
  Adding spin-orbit effects for H 
  Adding spin-orbit effects for N 
  Adding spin-orbit effects for Si
  Adding spin-orbit effects for O 


New grid distribution:   1
           1       1:  108    1:   38    1:    8
           2       1:  108    1:   38    9:   16
           3       1:  108    1:   38   17:   24
           4       1:  108    1:   38   25:   32
           5       1:  108    1:   38   33:   39
           6       1:  108    1:   38   40:   46
           7       1:  108    1:   38   47:   53
           8       1:  108    1:   38   54:   60
           9       1:  108   39:   76    1:    8
          10       1:  108   39:   76    9:   16
          11       1:  108   39:   76   17:   24
          12       1:  108   39:   76   25:   32
          13       1:  108   39:   76   33:   39
          14       1:  108   39:   76   40:   46
          15       1:  108   39:   76   47:   53
          16       1:  108   39:   76   54:   60
          17       1:  108   77:  113    1:    8
          18       1:  108   77:  113    9:   16
          19       1:  108   77:  113   17:   24
          20       1:  108   77:  113   25:   32
          21       1:  108   77:  113   33:   39
          22       1:  108   77:  113   40:   46
          23       1:  108   77:  113   47:   53
          24       1:  108   77:  113   54:   60
          25       1:  108  114:  150    1:    8
          26       1:  108  114:  150    9:   16
          27       1:  108  114:  150   17:   24
          28       1:  108  114:  150   25:   32
          29       1:  108  114:  150   33:   39
          30       1:  108  114:  150   40:   46
          31       1:  108  114:  150   47:   53
          32       1:  108  114:  150   54:   60

InitMesh: MESH =   216 x   300 x   120 =     7776000
InitMesh: (bp) =   108 x   150 x    60 =      972000
InitMesh: Mesh cutoff (required, used) =   340.000   358.320 Ry
ExtMesh (bp) on 0 =   216 x   142 x   116 =     3557952
New grid distribution:   2
           1      99:  108   49:  129    1:   20
           2      69:   87   32:   48    1:   21
           3      99:  108    1:   30   19:   60
           4      16:   87    1:   31   19:   60
           5      16:   87    1:   31    1:   18
           6       1:   15    1:   31   19:   60
           7      88:   98    1:   30   19:   60
           8      88:   98    1:   30    1:   18
           9      10:   81   49:  131    1:   20
          10       1:   68   32:   48    1:   21
          11      99:  108    1:   30    1:   18
          12      70:   87   32:   48   22:   60
          13       1:   69   32:   48   22:   60
          14       1:    9   49:  131    1:   20
          15       1:   15    1:   31    1:   18
          16      98:  108   31:   48    1:   21
          17      82:   98   49:  129    1:   20
          18      98:  108   31:   48   22:   60
          19      88:   97   31:   48    1:   21
          20      10:   81   49:  131   21:   60
          21      82:   98   49:  129   21:   60
          22       1:    9   49:  131   21:   60
          23      88:   97   31:   48   22:   60
          24       1:    9  132:  150    1:   20
          25      10:   81  132:  150    1:   20
          26      82:   99  130:  150    1:   20
          27     100:  108  130:  150    1:   20
          28      10:   81  132:  150   21:   60
          29      99:  108   49:  129   21:   60
          30      82:   99  130:  150   21:   60
          31     100:  108  130:  150   21:   60
          32       1:    9  132:  150   21:   60
New grid distribution:   3
           1      26:   70   31:   52    1:   25
           2      92:  108    1:   28   25:   60
           3      71:   90    1:   28    1:   24
           4      17:   70    1:   30   25:   60
           5      17:   75  122:  150    1:   25
           6      71:   91    1:   28   25:   60
           7       1:   16    1:   30   25:   60
           8       1:   17    1:   30    1:   24
           9      15:   75   53:  121    1:   24
          10      95:  108  118:  150   26:   60
          11       1:   25   31:   52    1:   25
          12      26:   70   31:   52   26:   60
          13      18:   70    1:   30    1:   24
          14       1:   25   31:   52   26:   60
          15      90:  108   29:   52   27:   60
          16      91:  108    1:   28    1:   24
          17      76:   96   53:  117    1:   24
          18      97:  108   53:  117    1:   24
          19      71:   89   29:   52    1:   26
          20      15:   75   53:  121   25:   60
          21      76:   96   53:  117   25:   60
          22      97:  108   53:  117   25:   60
          23      71:   89   29:   52   27:   60
          24      90:  108   29:   52    1:   26
          25       1:   14   53:  121    1:   24
          26      76:   94  118:  150    1:   25
          27       1:   16  122:  150    1:   25
          28      17:   75  122:  150   26:   60
          29       1:   14   53:  121   25:   60
          30      76:   94  118:  150   26:   60
          31       1:   16  122:  150   26:   60
          32      95:  108  118:  150    1:   25
Setting up quadratic distribution...
ExtMesh (bp) on 0 =   118 x   185 x   128 =     2794240
PhiOnMesh: Number of (b)points on node 0 =                16200
PhiOnMesh: nlist on node 0 =               343491

stepf: Fermi-Dirac step function

siesta: Program's energy decomposition (eV):
siesta: Ebs     =      -640.110218
siesta: Eions   =      3553.971015
siesta: Ena     =       374.975067
siesta: Ekin    =      3169.808357
siesta: Enl     =     -2983.409887
siesta: Eso     =        -0.003889
siesta: Edftu   =         0.000000
siesta: DEna    =       129.552137
siesta: DUscf   =        74.941173
siesta: DUext   =         0.000000
siesta: Exc     =     -1168.371202
siesta: eta*DQ  =         0.000000
siesta: Emadel  =         0.000000
siesta: Emeta   =         0.000000
siesta: Emolmec =         0.000000
siesta: Ekinion =         0.000000
siesta: Eharris =     -3886.710297
siesta: Etot    =     -3956.479258
siesta: FreeEng =     -3956.482589

        iscf     Eharris(eV)        E_KS(eV)     FreeEng(eV)     dDmax    Ef(eV) dHmax(eV)
   scf:    1    -3886.710297    -3956.479258    -3956.482589  0.970303 -4.935524 21.276729
     spin moment: S , {S} =    2.02369  -0.00000  -0.00000   2.02369
timer: Routine,Calls,Time,% = IterSCF        1       3.883   9.53
   scf:    2    -3998.609857    -3989.923680    -3989.923692  0.465713 -4.288285 10.438196
     spin moment: S , {S} =    2.00007   0.00000  -0.00000   2.00007
   scf:    3    -3974.467373    -3990.360472    -3990.402277  0.421745 -4.164845  9.394551
     spin moment: S , {S} =    1.40429  -0.00000  -0.00000   1.40429
   scf:    4    -4001.669426    -3997.692653    -3997.692653  0.178299 -3.913009  4.538002
     spin moment: S , {S} =    0.00010  -0.00000   0.00000   0.00010
   scf:    5    -3999.018525    -3998.425087    -3998.425087  0.037553 -3.827725  2.705761
     spin moment: S , {S} =    0.00006  -0.00000   0.00000   0.00006
   scf:    6    -3999.120558    -3998.774949    -3998.774949  0.024900 -3.823772  1.331084
     spin moment: S , {S} =    0.00003  -0.00000   0.00000   0.00003
   scf:    7    -3999.139224    -3998.950479    -3998.950479  0.022723 -3.875404  0.693673
     spin moment: S , {S} =    0.00001  -0.00000   0.00000   0.00001
   scf:    8    -3999.067066    -3999.006526    -3999.006526  0.011522 -3.910253  0.404162
     spin moment: S , {S} =    0.00000  -0.00000   0.00000   0.00000
   scf:    9    -3999.052739    -3999.028569    -3999.028569  0.006941 -3.925376  0.300792
     spin moment: S , {S} =    0.00000  -0.00000   0.00000   0.00000
   scf:   10    -3999.079665    -3999.048781    -3999.048782  0.018155 -3.943846  0.143267
     spin moment: S , {S} =    0.00000  -0.00000  -0.00000  -0.00000
   scf:   11    -3999.051575    -3999.050205    -3999.050205  0.004064 -3.935137  0.038584
     spin moment: S , {S} =    0.00000  -0.00000  -0.00000  -0.00000
   scf:   12    -3999.050834    -3999.050522    -3999.050523  0.001466 -3.933534  0.024685
     spin moment: S , {S} =    0.00000  -0.00000  -0.00000   0.00000
   scf:   13    -3999.050896    -3999.050705    -3999.050706  0.001159 -3.932220  0.020057
     spin moment: S , {S} =    0.00000  -0.00000  -0.00000   0.00000
   scf:   14    -3999.051032    -3999.050858    -3999.050859  0.001468 -3.931501  0.014885
     spin moment: S , {S} =    0.00000  -0.00000  -0.00000   0.00000
   scf:   15    -3999.051057    -3999.050948    -3999.050949  0.001339 -3.931155  0.011146
     spin moment: S , {S} =    0.00000  -0.00000  -0.00000   0.00000
   scf:   16    -3999.051081    -3999.051004    -3999.051005  0.001395 -3.931053  0.005940
     spin moment: S , {S} =    0.00000  -0.00000  -0.00000   0.00000
   scf:   17    -3999.051036    -3999.051018    -3999.051019  0.000676 -3.931117  0.003993
     spin moment: S , {S} =    0.00000  -0.00000  -0.00000   0.00000
   scf:   18    -3999.051029    -3999.051022    -3999.051023  0.000449 -3.931207  0.001999
     spin moment: S , {S} =    0.00000  -0.00000  -0.00000   0.00000
   scf:   19    -3999.051026    -3999.051024    -3999.051025  0.000267 -3.931220  0.000850
     spin moment: S , {S} =    0.00000  -0.00000  -0.00000   0.00000
   scf:   20    -3999.051024    -3999.051024    -3999.051025  0.000068 -3.931235  0.000535
     spin moment: S , {S} =    0.00000  -0.00000  -0.00000   0.00000
   scf:   21    -3999.051024    -3999.051024    -3999.051025  0.000040 -3.931233  0.000324
     spin moment: S , {S} =    0.00000  -0.00000  -0.00000   0.00000
   scf:   22    -3999.051024    -3999.051024    -3999.051025  0.000045 -3.931240  0.000147
     spin moment: S , {S} =    0.00000  -0.00000  -0.00000  -0.00000
   scf:   23    -3999.051024    -3999.051024    -3999.051025  0.000014 -3.931243  0.000114
     spin moment: S , {S} =    0.00000  -0.00000  -0.00000  -0.00000
   scf:   24    -3999.051024    -3999.051024    -3999.051025  0.000007 -3.931245  0.000089
     spin moment: S , {S} =    0.00000  -0.00000  -0.00000  -0.00000
mix: Pulay -- resetting history
   scf:   25    -3999.051024    -3999.051024    -3999.051025  0.000007 -3.931243  0.000056
     spin moment: S , {S} =    0.00000   0.00000  -0.00000  -0.00000
   scf:   26    -3999.051024    -3999.051024    -3999.051025  0.000005 -3.931242  0.000030
     spin moment: S , {S} =    0.00000  -0.00000  -0.00000  -0.00000
   scf:   27    -3999.051024    -3999.051024    -3999.051025  0.000004 -3.931241  0.000017
     spin moment: S , {S} =    0.00000   0.00000   0.00000  -0.00000
   scf:   28    -3999.051024    -3999.051024    -3999.051025  0.000001 -3.931242  0.000012
     spin moment: S , {S} =    0.00000   0.00000   0.00000  -0.00000
   scf:   29    -3999.051024    -3999.051024    -3999.051025  0.000001 -3.931243  0.000008
     spin moment: S , {S} =    0.00000  -0.00000   0.00000  -0.00000
   scf:   30    -3999.051024    -3999.051024    -3999.051025  0.000001 -3.931243  0.000004
     spin moment: S , {S} =    0.00000   0.00000   0.00000  -0.00000
   scf:   31    -3999.051024    -3999.051024    -3999.051025  0.000000 -3.931243  0.000003
     spin moment: S , {S} =    0.00000   0.00000   0.00000  -0.00000
   scf:   32    -3999.051024    -3999.051024    -3999.051025  0.000000 -3.931243  0.000002
     spin moment: S , {S} =    0.00000   0.00000   0.00000  -0.00000
   scf:   33    -3999.051024    -3999.051024    -3999.051025  0.000000 -3.931243  0.000001
     spin moment: S , {S} =    0.00000   0.00000   0.00000   0.00000
   scf:   34    -3999.051024    -3999.051024    -3999.051025  0.000000 -3.931243  0.000001
     spin moment: S , {S} =    0.00000   0.00000   0.00000   0.00000

SCF Convergence by DM+H criterion
max |DM_out - DM_in|         :     0.0000001948
max |H_out - H_in|      (eV) :     0.0000007802
SCF cycle converged after 34 iterations

Using DM_out to compute the final energy and forces
No. of atoms with KB's overlaping orbs in proc 0. Max # of overlaps:      22     161

siesta: E_KS(eV) =            -3999.0510

siesta: E_KS - E_eggbox =     -3999.0510
     spin moment: S , {S} =    0.00000   0.00000   0.00000   0.00000

siesta: Atomic forces (eV/Ang):
     1    0.102090    0.116446   -0.000000
     2   -0.027947    0.013875   -0.000000
     3   -0.023202   -0.003846   -0.000000
     4    0.064019   -0.110427   -0.000000
     5   -0.004006   -0.037521    0.000000
     6   -0.147321    0.015041   -0.000000
     7    0.817040    0.016231   -0.000003
     8   -0.536434    1.326996    0.000006
     9    0.204419   -0.827205   -0.000014
    10   -0.152786    0.064677    0.000002
    11   -0.128829   -0.281779    0.000003
    12   -0.229778    0.031784    0.000000
    13   -0.135752    0.019925    0.000000
    14    0.029838   -0.108879   -0.000001
    15    0.083019    0.085903    0.000000
    16   -0.143650   -0.152191   -0.000945
    17    0.036091   -0.062451   -0.000806
    18   -0.122600    0.028445    0.005276
    19    0.051564   -0.068564   -0.001470
    20    0.095246    0.063226   -0.001003
    21    0.028694   -0.019709   -0.006730
    22    0.091600   -0.030910    0.102987
    23    0.032973   -0.053548   -0.016266
    24    0.084200    0.039796   -0.082428
    25   -0.509075   -0.337665    0.001002
    26   -1.638292    1.933143    0.000492
    27    0.296463   -0.417632   -0.000549
    28   -0.109274    0.652227   -0.000077
    29    0.123314    0.134268   -0.000212
    30    2.041671   -2.565758    0.000249
----------------------------------------
   Tot    0.273295   -0.536103   -0.000487
----------------------------------------
   Max    2.565758
   Res    0.495936    sqrt( Sum f_i^2 / 3N )
----------------------------------------
   Max    2.565758    constrained

Stress tensor Voigt[x,y,z,yz,xz,xy] (kbar):        0.28        0.85       -0.07       -0.02        0.00        0.27
(Free)E + p*V (eV/cell)    -4000.1420
Target enthalpy (eV/cell)    -3999.0510

siesta: Stress tensor (static) (eV/Ang**3):
         0.000175    0.000166    0.000001
         0.000166    0.000529   -0.000011
         0.000001   -0.000011   -0.000043

siesta: Pressure (static):         -0.35247319  kBar

siesta: Stress tensor (total) (eV/Ang**3):
         0.000175    0.000166    0.000001
         0.000166    0.000529   -0.000011
         0.000001   -0.000011   -0.000043

siesta: Pressure (total):         -0.35247319  kBar

siesta: Temp_ion =       0.000 K

siesta: Eigenvalues (eV):
ik =     1
  -22.9125  -22.9125  -22.4995  -22.4995  -21.7935  -21.7935  -21.3214  -21.3214  -21.1271  -21.1271
  -20.8618  -20.8618  -19.5046  -19.5046  -19.3430  -19.3430  -18.7240  -18.7240  -15.0918  -15.0918
  -14.1651  -14.1651  -13.7337  -13.7337  -13.6132  -13.6132  -13.1435  -13.1435  -12.9926  -12.9926
  -12.5926  -12.5926  -12.1141  -12.1141  -11.9648  -11.9648  -11.6483  -11.6483  -11.5298  -11.5298
  -11.0238  -11.0238  -10.6805  -10.6805  -10.3037  -10.3037   -9.6355   -9.6355   -9.3656   -9.3656
   -9.2444   -9.2444   -9.1738   -9.1738   -9.0781   -9.0781   -8.9051   -8.9051   -8.6651   -8.6651
   -8.4589   -8.4589   -8.3404   -8.3404   -8.2365   -8.2365   -8.0697   -8.0697   -8.0077   -8.0077
   -7.8629   -7.8629   -7.4542   -7.4542   -7.4116   -7.4116   -7.3494   -7.3494   -6.9066   -6.9066
   -6.8935   -6.8935   -6.8186   -6.8186   -6.4922   -6.4922   -6.4374   -6.4374   -6.2993   -6.2993
   -5.8924   -5.8924   -5.7806   -5.7806   -5.6583   -5.6583   -4.3022   -4.3022   -3.5603   -3.5603
   -2.7612   -2.7612   -2.2849   -2.2849   -2.2775   -2.2775   -2.1935   -2.1935   -2.0707   -2.0707
   -2.0299   -2.0299   -1.8143   -1.8143   -1.6940   -1.6940   -1.6763   -1.6763   -1.5027   -1.5027
   -1.2094   -1.2094   -0.6234   -0.6234   -0.4105   -0.4105   -0.3099   -0.3099   -0.2274   -0.2274
   -0.0637   -0.0637   -0.0048   -0.0048    0.1884    0.1884    0.4694    0.4694    0.4880    0.4880
    0.5736    0.5736    0.6907    0.6907    1.0578    1.0578    1.1958    1.1958    1.3765    1.3765
    1.3922    1.3922    1.5041    1.5041    1.7770    1.7770    1.9469    1.9469    2.1261    2.1261
    2.3945    2.3945    2.5914    2.5914    2.7262    2.7262    2.7610    2.7610    2.9494    2.9494
    2.9760    2.9760    2.9877    2.9877    3.1997    3.1997    3.2603    3.2603    3.3888    3.3888
    3.6230    3.6230    3.8405    3.8405    4.0607    4.0607    4.1659    4.1659    4.2058    4.2058
    4.2875    4.2875    4.6108    4.6108    4.7378    4.7378    4.7975    4.7975    5.0001    5.0001
    5.0207    5.0207    5.2409    5.2409    5.5103    5.5103    5.6428    5.6428    5.6860    5.6860
    5.7844    5.7844    6.0123    6.0123    6.0769    6.0769    6.2324    6.2324    6.2695    6.2695
    6.5404    6.5404    6.7002    6.7002    6.7560    6.7560    7.0410    7.0410    7.1517    7.1517
    7.2079    7.2079    7.4110    7.4110    7.5974    7.5974    7.7821    7.7821    7.8982    7.8982
    8.0325    8.0325    8.1747    8.1747    8.3223    8.3223    8.4140    8.4140    8.6213    8.6213
    8.8257    8.8257    8.9989    8.9989    9.0204    9.0204    9.2163    9.2163    9.5670    9.5670
    9.6328    9.6328    9.7545    9.7545    9.7856    9.7856    9.8716    9.8716   10.1069   10.1069
   10.2009   10.2009   10.4008   10.4008   10.6903   10.6903   10.8589   10.8589   11.0019   11.0019
   11.2210   11.2210   11.4758   11.4758   11.5842   11.5842   11.6873   11.6873   11.7089   11.7089
   11.8921   11.8921   12.2657   12.2657   12.3907   12.3907   12.4460   12.4460   12.5040   12.5040
   12.8796   12.8796   12.9601   12.9601   13.0488   13.0488   13.3017   13.3017   13.3236   13.3236
   13.5063   13.5063   13.7319   13.7319   14.4947   14.4947   14.6892   14.6892   14.7627   14.7627
   14.8071   14.8071   14.9414   14.9414   15.1125   15.1125   16.0446   16.0446   16.5119   16.5119
   16.7324   16.7324   16.8257   16.8257   16.9846   16.9846   17.1765   17.1765   17.4707   17.4707
   18.1883   18.1883   18.2103   18.2103   18.5077   18.5077   18.7210   18.7210   18.7528   18.7528
   18.7756   18.7756   19.5093   19.5093   19.7220   19.7220   19.9868   19.9868   20.3943   20.3943
   20.6764   20.6764   21.0309   21.0309   21.3776   21.3776   21.6529   21.6529   22.1407   22.1407
   22.2814   22.2814   22.8981   22.8981   23.0489   23.0489   23.1008   23.1008   23.8602   23.8602
   24.5710   24.5710   24.7846   24.7846   24.8949   24.8949   25.7284   25.7284   25.8897   25.8897
   26.0968   26.0968   26.4924   26.4924   26.5978   26.5978   27.6975   27.6975   27.8885   27.8885
   28.3006   28.3006   28.8195   28.8195   29.3594   29.3594   30.2747   30.2747   30.6903   30.6903
   30.7467   30.7467   30.7632   30.7632   31.0650   31.0650   31.2981   31.2981   31.6132   31.6132
   31.8879   31.8879   31.9403   31.9403   32.0024   32.0024   33.3576   33.3576   33.4987   33.4987
   34.0103   34.0103   34.1655   34.1655   34.2318   34.2318   34.6039   34.6039   35.3810   35.3810
   35.8957   35.8957   36.0615   36.0615   36.9052   36.9052   37.0996   37.0996   37.5710   37.5710
   37.8060   37.8060   38.2854   38.2854   38.3996   38.3996   38.5949   38.5949   39.0783   39.0783
   39.4153   39.4153   40.1934   40.1934   40.6378   40.6378   41.0465   41.0465   41.2469   41.2469
   41.6426   41.6426   42.3019   42.3019   42.9851   42.9851   43.4841   43.4841   43.7755   43.7755
   44.5806   44.5806   44.8202   44.8202   44.8757   44.8757   45.1114   45.1114   45.5059   45.5059
   45.9927   45.9927   46.4466   46.4466   46.6322   46.6322   46.9735   46.9735   47.2810   47.2810
   47.2997   47.2997   48.2022   48.2022   48.5527   48.5527   49.1653   49.1653   49.3397   49.3397
   50.0192   50.0192   50.1942   50.1942   50.3886   50.3886   50.4186   50.4186   50.6539   50.6539
   51.6927   51.6927   52.7206   52.7206   53.3007   53.3007   53.9330   53.9330   54.3889   54.3889
   54.9295   54.9295   55.1105   55.1105   55.7458   55.7458   56.4919   56.4919   56.5397   56.5397
   57.9297   57.9297   58.2409   58.2409   58.3822   58.3822   59.8755   59.8755   60.0471   60.0471
   60.9910   60.9910   61.8717   61.8717   61.9890   61.9890   62.9864   62.9864   63.4881   63.4881
   65.3939   65.3939   65.4681   65.4681   67.0716   67.0716   67.4290   67.4290   68.4152   68.4152
   68.6809   68.6809   70.7071   70.7071   71.9490   71.9490   78.5549   78.5549   88.6605   88.6605
   92.5794   92.5794   93.1289   93.1289   95.1422   95.1422   96.8041   96.8041  100.1239  100.1239
  101.7593  101.7593  102.5782  102.5782  115.2893  115.2893  119.0887  119.0887  123.3719  123.3719
  133.1476  133.1476  139.4713  139.4713
siesta: Fermi energy =      -3.931243 eV

siesta: Program's energy decomposition (eV):
siesta: Ebs     =     -1118.849964
siesta: Eions   =      3553.971015
siesta: Ena     =       374.975067
siesta: Ekin    =      2743.248089
siesta: Enl     =     -2523.091206
siesta: Eso     =        -0.004666
siesta: Edftu   =         0.000000
siesta: DEna    =        36.953739
siesta: DUscf   =        13.810663
siesta: DUext   =         0.000000
siesta: Exc     =     -1090.971696
siesta: eta*DQ  =         0.000000
siesta: Emadel  =         0.000000
siesta: Emeta   =         0.000000
siesta: Emolmec =         0.000000
siesta: Ekinion =         0.000000
siesta: Eharris =     -3999.051024
siesta: Etot    =     -3999.051024
siesta: FreeEng =     -3999.051025

siesta: Final energy (eV):
siesta:  Band Struct. =   -1118.849964
siesta:       Kinetic =    2743.248089
siesta:       Hartree =    7730.030373
siesta:       Edftu   =       0.000000
siesta:       Eso     =      -0.004666
siesta:    Ext. field =       0.000000
siesta:   Exch.-corr. =   -1090.971696
siesta:  Ion-electron =  -17906.294051
siesta:       Ion-ion =    4524.940927
siesta:       Ekinion =       0.000000
siesta:         Total =   -3999.051024
siesta:         Fermi =      -3.931243

siesta: Atomic forces (eV/Ang):
siesta:      1    0.102090    0.116446   -0.000000
siesta:      2   -0.027947    0.013875   -0.000000
siesta:      3   -0.023202   -0.003846   -0.000000
siesta:      4    0.064019   -0.110427   -0.000000
siesta:      5   -0.004006   -0.037521    0.000000
siesta:      6   -0.147321    0.015041   -0.000000
siesta:      7    0.817040    0.016231   -0.000003
siesta:      8   -0.536434    1.326996    0.000006
siesta:      9    0.204419   -0.827205   -0.000014
siesta:     10   -0.152786    0.064677    0.000002
siesta:     11   -0.128829   -0.281779    0.000003
siesta:     12   -0.229778    0.031784    0.000000
siesta:     13   -0.135752    0.019925    0.000000
siesta:     14    0.029838   -0.108879   -0.000001
siesta:     15    0.083019    0.085903    0.000000
siesta:     16   -0.143650   -0.152191   -0.000945
siesta:     17    0.036091   -0.062451   -0.000806
siesta:     18   -0.122600    0.028445    0.005276
siesta:     19    0.051564   -0.068564   -0.001470
siesta:     20    0.095246    0.063226   -0.001003
siesta:     21    0.028694   -0.019709   -0.006730
siesta:     22    0.091600   -0.030910    0.102987
siesta:     23    0.032973   -0.053548   -0.016266
siesta:     24    0.084200    0.039796   -0.082428
siesta:     25   -0.509075   -0.337665    0.001002
siesta:     26   -1.638292    1.933143    0.000492
siesta:     27    0.296463   -0.417632   -0.000549
siesta:     28   -0.109274    0.652227   -0.000077
siesta:     29    0.123314    0.134268   -0.000212
siesta:     30    2.041671   -2.565758    0.000249
siesta: ----------------------------------------
siesta:    Tot    0.273295   -0.536103   -0.000487

siesta: Stress tensor (static) (eV/Ang**3):
siesta:     0.000175    0.000166    0.000001
siesta:     0.000166    0.000529   -0.000011
siesta:     0.000001   -0.000011   -0.000043

siesta: Cell volume =       4958.938356 Ang**3

siesta: Pressure (static):
siesta:                Solid            Molecule  Units
siesta:          -0.00000240         -0.00000223  Ry/Bohr**3
siesta:          -0.00021999         -0.00020465  eV/Ang**3
siesta:          -0.35247319         -0.32788950  kBar
(Free)E+ p_basis*V_orbitals  =       -3977.922940
(Free)Eharris+ p_basis*V_orbitals  =       -3977.922940
     spin moment: S , {S} =    0.00000   0.00000   0.00000   0.00000

siesta: Electric dipole (a.u.)  =   -1.276842    1.786429   -0.001733
siesta: Electric dipole (Debye) =   -3.245410    4.540652   -0.004406

cite: Please see "AT.bib" for an exhaustive BiBTeX file.
cite: Please clearly indicate Siesta version in published work: v4.1.5-1-g384057250
cite: This calculation has made use of the following articles
cite: which are encouraged to be cited in a published work.
        Primary SIESTA paper
          DOI: www.doi.org/10.1088/0953-8984/14/11/302
        Spin-orbit coupling (on-site approximation)
          DOI: www.doi.org/10.1088/0953-8984/19/19/489001


WARNING: alloc-realloc-dealloc name mismatch
         Name: atomlist isa
         Size:              -120. Bytes
         Node:     0
         Subsequent mismatches will not be reported
>> End of run:  16-OCT-2023  20:34:24
Job completed
