Siesta Version  : v4.1.5-1-g384057250
Architecture    : gcc
Compiler version: GNU Fortran (Debian 10.2.1-6) 10.2.1 20210110
Compiler flags  : mpifort -O2 -fPIC -ftree-vectorize -fallow-argument-mismatch
PP flags        : -DFC_HAVE_ABORT -DMPI -DSIESTA__FLOOK -DSIESTA__METIS -DSIESTA__MUMPS -DCDF -DNCDF -DNCDF_4 -DNCDF_PARALLEL -DSIESTA__MRRR -DSIESTA__ELPA
Libraries       : libncdf.a libfdict.a  -lflookall -ldl -lnetcdff -lnetcdf -lhdf5_hl -lhdf5 -lhdf5_fortran -lz -lscalapack-openmpi -lopenblas -lmetis -lzmumps -lcmumps -ldmumps -lmumps_common -lpord -lsmumps -lesmumps -lscotch -lscotcherr -fopenmp -lelpa
PARALLEL version
NetCDF support
NetCDF-4 support
NetCDF-4 MPI-IO support
METIS ordering support
Lua support

* Running on 6 nodes in parallel
>> Start of run:  22-MAY-2023   9:49:45

                           ***********************       
                           *  WELCOME TO SIESTA  *       
                           ***********************       

reinit: Reading from standard input
reinit: Dumped input in INPUT_TMP.88237
************************** Dump of input data file ****************************
SystemLabel      AT
NumberOfAtoms    30
NumberOfSpecies  4
%block ChemicalSpeciesLabel
    1    1  H
    2    7  N
    3   14  Si
    4    8  O
%endblock ChemicalSpeciesLabel
# Single point calculation
MD.TypeOfRun                CG
MD.Steps                    0
SCF.MustConverge            F # In case it does not. There can be 2 very close atoms
AtomicCoordinatesFormat NotScaledCartesianAng
%block AtomicCoordinatesAndAtomicSpecies
2.582377650    -5.776830440   0.000000000       1
1.654759240    -5.269361980   0.000000000       2
0.063128840    -6.101704590   0.000000000       3
0.119223240    -7.596849500   0.000000000       1
-1.376892050   -5.182603740   0.000000000       2
-0.824371900   -3.460866440   0.000000000       3
-1.170571480   -1.270002100   0.000000000       3
-2.706933680   -0.417515780   0.000000000       2
-2.754569660   0.634858620    0.000000000       1
-3.637675640   -0.909967860   0.000000000       1
0.218091790    -0.234193970   0.000000000       2
1.872004100    -0.697162300   0.000000000       3
2.828001130    0.461464770    0.000000000       1
2.648150080    -2.255024470   0.000000000       2
1.391921380    -3.454727220   0.000000000       3
1.890840922    5.247514882    0.000000000       2
0.563469402    6.457719182    0.000000000       3
1.203470672    7.819037422    0.000000000       1
-1.522276538   5.787187832    0.000000000       3
-3.551839138   6.917304022    0.000000000       3
-3.397603368   8.077534232    0.940305280       1
-4.537773858   5.895383402    0.512613700       1
-3.968054098   7.393529872    -1.366678340      1
-1.455781118   3.513211212    0.000000000       3
-2.494829848   2.320151712    0.000000000       4
0.201210462    2.879236022    0.000000000       2
0.183193092    1.816791192    0.000000000       1
1.824813532    3.476306232    0.000000000       3
3.019829702    2.461881032    0.000000000       4
2.890878292    5.593021982    0.000000000       1
%endblock AtomicCoordinatesAndAtomicSpecies
%include ../../../Defaults.fdf
************************** End of input data file *****************************

reinit: -----------------------------------------------------------------------
reinit: System Name: 
reinit: -----------------------------------------------------------------------
reinit: System Label: AT
reinit: -----------------------------------------------------------------------

initatom: Reading input for the pseudopotentials and atomic orbitals ----------
Species number:   1 Atomic number:    1 Label: H
Species number:   2 Atomic number:    7 Label: N
Species number:   3 Atomic number:   14 Label: Si
Species number:   4 Atomic number:    8 Label: O

Ground state valence configuration:   1s01
Reading pseudopotential information in formatted form from H.psf

Pseudopotential generated from a relativistic atomic calculation

Valence configuration for pseudopotential generation:
1s( 1.00) rc: 0.01
2p( 0.00) rc: 0.60
3d( 0.00) rc: 1.99
4f( 0.00) rc: 2.49
Ground state valence configuration:   2s02  2p03
Reading pseudopotential information in formatted form from N.psf

Pseudopotential generated from a relativistic atomic calculation

Valence configuration for pseudopotential generation:
2s( 2.00) rc: 0.94
2p( 3.00) rc: 0.59
3d( 0.00) rc: 3.46
4f( 0.00) rc: 2.47
Ground state valence configuration:   3s02  3p02
Reading pseudopotential information in formatted form from Si.psf

Pseudopotential generated from a relativistic atomic calculation

Valence configuration for pseudopotential generation:
3s( 2.00) rc: 1.67
3p( 2.00) rc: 2.04
3d( 0.00) rc: 2.89
4f( 0.00) rc: 2.49
Ground state valence configuration:   2s02  2p04
Reading pseudopotential information in formatted form from O.psf

Pseudopotential generated from a relativistic atomic calculation

Valence configuration for pseudopotential generation:
2s( 2.00) rc: 0.45
2p( 4.00) rc: 0.92
3d( 0.00) rc: 2.24
4f( 0.00) rc: 0.25
For H, standard SIESTA heuristics set lmxkb to 2
 (one more than the basis l, including polarization orbitals).
Use PS.lmax or PS.KBprojectors blocks to override.
For N, standard SIESTA heuristics set lmxkb to 3
 (one more than the basis l, including polarization orbitals).
Use PS.lmax or PS.KBprojectors blocks to override.
For Si, standard SIESTA heuristics set lmxkb to 3
 (one more than the basis l, including polarization orbitals).
Use PS.lmax or PS.KBprojectors blocks to override.
For O, standard SIESTA heuristics set lmxkb to 3
 (one more than the basis l, including polarization orbitals).
Use PS.lmax or PS.KBprojectors blocks to override.

<basis_specs>
===============================================================================
H                    Z=   1    Mass=  1.0100        Charge= 0.17977+309
Lmxo=0 Lmxkb= 2    BasisType=split      Semic=F
L=0  Nsemic=0  Cnfigmx=1
          i=1  nzeta=2  polorb=1  (1s)
            splnorm:   0.62000    
               vcte:    0.0000    
               rinn:    0.0000    
               qcoe:    0.0000    
               qyuk:    0.0000    
               qwid:   0.10000E-01
                rcs:    0.0000      0.0000    
            lambdas:    1.0000      1.0000    
-------------------------------------------------------------------------------
L=0  Nkbl=1  erefs: 0.17977+309
L=1  Nkbl=1  erefs: 0.17977+309
L=2  Nkbl=1  erefs: 0.17977+309
===============================================================================
</basis_specs>

atom: Called for H                     (Z =   1)

read_vps: Pseudopotential generation method:
read_vps: ATM4.2.7  Troullier-Martins                       
Valence charge for ps generation:    1.00000

xc_check: Exchange-correlation functional:
xc_check: GGA Perdew, Burke & Ernzerhof 1996
V l=0 = -2*Zval/r beyond r=  0.0098
V l=1 = -2*Zval/r beyond r=  0.5817
V l=2 = -2*Zval/r beyond r=  1.9372
All V_l potentials equal beyond r=  1.9372
This should be close to max(r_c) in ps generation
All pots = -2*Zval/r beyond r=  1.9372

VLOCAL1: 99.0% of the norm of Vloc inside     11.567 Ry
VLOCAL1: 99.9% of the norm of Vloc inside     26.362 Ry
atom: Maximum radius for 4*pi*r*r*local-pseudopot. charge    2.25106
atom: Maximum radius for r*vlocal+2*Zval:    1.91306
GHOST: No ghost state for L =  0
GHOST: No ghost state for L =  1
GHOST: No ghost state for L =  2

KBgen: Kleinman-Bylander projectors: 
   l= 0   rc=  2.036604   el= -0.477180   Ekb= -6.081590   kbcos= -0.277285
   l= 1   rc=  2.195416   el=  0.001076   Ekb= -0.926943   kbcos= -0.034643
   l= 2   rc=  2.251056   el=  0.002010   Ekb= -0.130941   kbcos= -0.009788

KBgen: Total number of Kleinman-Bylander projectors:    9
atom: -------------------------------------------------------------------------

atom: SANKEY-TYPE ORBITALS:
atom: Selected multiple-zeta basis: split     

SPLIT: Orbitals with angular momentum L= 0

SPLIT: Basis orbitals for state 1s

SPLIT: PAO cut-off radius determined from an
SPLIT: energy shift=  0.002000 Ry

   izeta = 1
                 lambda =    1.000000
                     rc =    6.518340
                 energy =   -0.475305
                kinetic =    0.912139
    potential(screened) =   -1.387444
       potential(ionic) =   -1.907295

   izeta = 2
                 rmatch =    2.141150
              splitnorm =    0.620000
                 energy =    0.566467
                kinetic =    3.772856
    potential(screened) =   -3.206389
       potential(ionic) =   -3.759093

POLgen: Perturbative polarization orbital with L=  1

POLgen: Polarization orbital for state 1s

   izeta = 1
                     rc =    6.518340
                 energy =    0.533861
                kinetic =    1.121086
    potential(screened) =   -0.587225
       potential(ionic) =   -1.053027
atom: Total number of Sankey-type orbitals:  5

atm_pop: Valence configuration (for local Pseudopot. screening):
 1s( 1.00)                                                            
Vna: chval, zval:    1.00000   1.00000

Vna:  Cut-off radius for the neutral-atom potential:   6.518340

atom: _________________________________________________________________________

<basis_specs>
===============================================================================
N                    Z=   7    Mass=  14.010        Charge= 0.17977+309
Lmxo=1 Lmxkb= 3    BasisType=split      Semic=F
L=0  Nsemic=0  Cnfigmx=2
          i=1  nzeta=2  polorb=0  (2s)
            splnorm:   0.28000    
               vcte:    0.0000    
               rinn:    0.0000    
               qcoe:    0.0000    
               qyuk:    0.0000    
               qwid:   0.10000E-01
                rcs:    0.0000      0.0000    
            lambdas:    1.0000      1.0000    
L=1  Nsemic=0  Cnfigmx=2
          i=1  nzeta=2  polorb=1  (2p)
            splnorm:   0.28000    
               vcte:    0.0000    
               rinn:    0.0000    
               qcoe:    0.0000    
               qyuk:    0.0000    
               qwid:   0.10000E-01
                rcs:    0.0000      0.0000    
            lambdas:    1.0000      1.0000    
-------------------------------------------------------------------------------
L=0  Nkbl=1  erefs: 0.17977+309
L=1  Nkbl=1  erefs: 0.17977+309
L=2  Nkbl=1  erefs: 0.17977+309
L=3  Nkbl=1  erefs: 0.17977+309
===============================================================================
</basis_specs>

atom: Called for N                     (Z =   7)

read_vps: Pseudopotential generation method:
read_vps: ATM4.2.7  Troullier-Martins                       
Valence charge for ps generation:    5.00000

xc_check: Exchange-correlation functional:
xc_check: GGA Perdew, Burke & Ernzerhof 1996
V l=0 = -2*Zval/r beyond r=  1.2889
V l=1 = -2*Zval/r beyond r=  1.2889
V l=2 = -2*Zval/r beyond r=  3.4178
V l=3 = -2*Zval/r beyond r=  2.4084
All V_l potentials equal beyond r=  3.3753
This should be close to max(r_c) in ps generation
All pots = -2*Zval/r beyond r=  3.4178

VLOCAL1: 99.0% of the norm of Vloc inside      3.810 Ry
VLOCAL1: 99.9% of the norm of Vloc inside      8.683 Ry
atom: Maximum radius for 4*pi*r*r*local-pseudopot. charge    4.02088
atom: Maximum radius for r*vlocal+2*Zval:    3.54838
GHOST: No ghost state for L =  0
GHOST: No ghost state for L =  1
GHOST: No ghost state for L =  2
GHOST: No ghost state for L =  3

KBgen: Kleinman-Bylander projectors: 
   l= 0   rc=  3.417763   el= -1.365098   Ekb= -4.433130   kbcos= -0.707855
   l= 1   rc=  3.375302   el= -0.521201   Ekb=-13.264039   kbcos= -0.535594
   l= 2   rc=  3.872880   el=  0.001991   Ekb= -0.641094   kbcos= -0.062456
   l= 3   rc=  3.970931   el=  0.003093   Ekb= -0.474517   kbcos= -0.018236

KBgen: Total number of Kleinman-Bylander projectors:   16
atom: -------------------------------------------------------------------------

atom: SANKEY-TYPE ORBITALS:
atom: Selected multiple-zeta basis: split     

SPLIT: Orbitals with angular momentum L= 0

SPLIT: Basis orbitals for state 2s

SPLIT: PAO cut-off radius determined from an
SPLIT: energy shift=  0.002000 Ry

   izeta = 1
                 lambda =    1.000000
                     rc =    4.730425
                 energy =   -1.363399
                kinetic =    1.245246
    potential(screened) =   -2.608645
       potential(ionic) =   -8.121105

   izeta = 2
                 rmatch =    2.531849
              splitnorm =    0.280000
                 energy =   -0.959908
                kinetic =    2.409435
    potential(screened) =   -3.369343
       potential(ionic) =   -9.427975

SPLIT: Orbitals with angular momentum L= 1

SPLIT: Basis orbitals for state 2p

SPLIT: PAO cut-off radius determined from an
SPLIT: energy shift=  0.002000 Ry

   izeta = 1
                 lambda =    1.000000
                     rc =    5.924108
                 energy =   -0.519262
                kinetic =    3.672940
    potential(screened) =   -4.192202
       potential(ionic) =   -9.518354

   izeta = 2
                 rmatch =    2.531849
              splitnorm =    0.280000
                 energy =   -0.104258
                kinetic =    6.807538
    potential(screened) =   -6.911796
       potential(ionic) =  -13.149920

POLgen: Perturbative polarization orbital with L=  2

POLgen: Polarization orbital for state 2p

   izeta = 1
                     rc =    5.924108
                 energy =    1.427508
                kinetic =    2.872379
    potential(screened) =   -1.444871
       potential(ionic) =   -5.563644
atom: Total number of Sankey-type orbitals: 13

atm_pop: Valence configuration (for local Pseudopot. screening):
 2s( 2.00)                                                            
 2p( 3.00)                                                            
Vna: chval, zval:    5.00000   5.00000

Vna:  Cut-off radius for the neutral-atom potential:   5.924108

atom: _________________________________________________________________________

<basis_specs>
===============================================================================
Si                   Z=  14    Mass=  28.090        Charge= 0.17977+309
Lmxo=1 Lmxkb= 3    BasisType=split      Semic=F
L=0  Nsemic=0  Cnfigmx=3
          i=1  nzeta=2  polorb=0  (3s)
            splnorm:   0.28000    
               vcte:    0.0000    
               rinn:    0.0000    
               qcoe:    0.0000    
               qyuk:    0.0000    
               qwid:   0.10000E-01
                rcs:    0.0000      0.0000    
            lambdas:    1.0000      1.0000    
L=1  Nsemic=0  Cnfigmx=3
          i=1  nzeta=2  polorb=1  (3p)
            splnorm:   0.28000    
               vcte:    0.0000    
               rinn:    0.0000    
               qcoe:    0.0000    
               qyuk:    0.0000    
               qwid:   0.10000E-01
                rcs:    0.0000      0.0000    
            lambdas:    1.0000      1.0000    
-------------------------------------------------------------------------------
L=0  Nkbl=1  erefs: 0.17977+309
L=1  Nkbl=1  erefs: 0.17977+309
L=2  Nkbl=1  erefs: 0.17977+309
L=3  Nkbl=1  erefs: 0.17977+309
===============================================================================
</basis_specs>

atom: Called for Si                    (Z =  14)

read_vps: Pseudopotential generation method:
read_vps: ATM4.2.7  Troullier-Martins                       
Valence charge for ps generation:    4.00000

xc_check: Exchange-correlation functional:
xc_check: GGA Perdew, Burke & Ernzerhof 1996
V l=0 = -2*Zval/r beyond r=  2.7826
V l=1 = -2*Zval/r beyond r=  2.7826
V l=2 = -2*Zval/r beyond r=  2.9253
V l=3 = -2*Zval/r beyond r=  2.7826
All V_l potentials equal beyond r=  2.8530
This should be close to max(r_c) in ps generation
All pots = -2*Zval/r beyond r=  2.9253

VLOCAL1: 99.0% of the norm of Vloc inside      5.333 Ry
VLOCAL1: 99.9% of the norm of Vloc inside     12.154 Ry
atom: Maximum radius for 4*pi*r*r*local-pseudopot. charge    3.39869
atom: Maximum radius for r*vlocal+2*Zval:    2.96205
GHOST: No ghost state for L =  0
GHOST: No ghost state for L =  1
GHOST: No ghost state for L =  2
GHOST: No ghost state for L =  3

KBgen: Kleinman-Bylander projectors: 
   l= 0   rc=  3.075247   el= -0.794092   Ekb=  5.879390   kbcos=  0.167461
   l= 1   rc=  3.153101   el= -0.300068   Ekb=  2.642817   kbcos=  0.058301
   l= 2   rc=  3.273594   el=  0.001958   Ekb= -1.185135   kbcos= -0.104411
   l= 3   rc=  3.232927   el=  0.003046   Ekb= -0.497174   kbcos= -0.015889

KBgen: Total number of Kleinman-Bylander projectors:   16
atom: -------------------------------------------------------------------------

atom: SANKEY-TYPE ORBITALS:
atom: Selected multiple-zeta basis: split     

SPLIT: Orbitals with angular momentum L= 0

SPLIT: Basis orbitals for state 3s

SPLIT: PAO cut-off radius determined from an
SPLIT: energy shift=  0.002000 Ry

   izeta = 1
                 lambda =    1.000000
                     rc =    6.429618
                 energy =   -0.792283
                kinetic =    0.525293
    potential(screened) =   -1.317576
       potential(ionic) =   -3.744923

   izeta = 2
                 rmatch =    3.998416
              splitnorm =    0.280000
                 energy =   -0.583081
                kinetic =    1.069570
    potential(screened) =   -1.652651
       potential(ionic) =   -4.235185

SPLIT: Orbitals with angular momentum L= 1

SPLIT: Basis orbitals for state 3p

SPLIT: PAO cut-off radius determined from an
SPLIT: energy shift=  0.002000 Ry

   izeta = 1
                 lambda =    1.000000
                     rc =    8.464845
                 energy =   -0.298236
                kinetic =    0.785360
    potential(screened) =   -1.083596
       potential(ionic) =   -3.273779

   izeta = 2
                 rmatch =    4.587816
              splitnorm =    0.280000
                 energy =   -0.131871
                kinetic =    1.403687
    potential(screened) =   -1.535557
       potential(ionic) =   -4.015310

POLgen: Perturbative polarization orbital with L=  2

POLgen: Polarization orbital for state 3p

   izeta = 1
                     rc =    8.464845
                 energy =    0.321949
                kinetic =    1.055677
    potential(screened) =   -0.733728
       potential(ionic) =   -2.672950
atom: Total number of Sankey-type orbitals: 13

atm_pop: Valence configuration (for local Pseudopot. screening):
 3s( 2.00)                                                            
 3p( 2.00)                                                            
Vna: chval, zval:    4.00000   4.00000

Vna:  Cut-off radius for the neutral-atom potential:   8.464845

atom: _________________________________________________________________________

<basis_specs>
===============================================================================
O                    Z=   8    Mass=  16.000        Charge= 0.17977+309
Lmxo=1 Lmxkb= 3    BasisType=split      Semic=F
L=0  Nsemic=0  Cnfigmx=2
          i=1  nzeta=2  polorb=0  (2s)
            splnorm:   0.28000    
               vcte:    0.0000    
               rinn:    0.0000    
               qcoe:    0.0000    
               qyuk:    0.0000    
               qwid:   0.10000E-01
                rcs:    0.0000      0.0000    
            lambdas:    1.0000      1.0000    
L=1  Nsemic=0  Cnfigmx=2
          i=1  nzeta=2  polorb=1  (2p)
            splnorm:   0.28000    
               vcte:    0.0000    
               rinn:    0.0000    
               qcoe:    0.0000    
               qyuk:    0.0000    
               qwid:   0.10000E-01
                rcs:    0.0000      0.0000    
            lambdas:    1.0000      1.0000    
-------------------------------------------------------------------------------
L=0  Nkbl=1  erefs: 0.17977+309
L=1  Nkbl=1  erefs: 0.17977+309
L=2  Nkbl=1  erefs: 0.17977+309
L=3  Nkbl=1  erefs: 0.17977+309
===============================================================================
</basis_specs>

atom: Called for O                     (Z =   8)

read_vps: Pseudopotential generation method:
read_vps: ATM4.2.7  Troullier-Martins                       
Valence charge for ps generation:    6.00000

xc_check: Exchange-correlation functional:
xc_check: GGA Perdew, Burke & Ernzerhof 1996
V l=0 = -2*Zval/r beyond r=  1.1000
V l=1 = -2*Zval/r beyond r=  1.1000
V l=2 = -2*Zval/r beyond r=  2.2154
V l=3 = -2*Zval/r beyond r=  1.1000
All V_l potentials equal beyond r=  2.2154
This should be close to max(r_c) in ps generation
All pots = -2*Zval/r beyond r=  2.2154

VLOCAL1: 99.0% of the norm of Vloc inside      8.845 Ry
VLOCAL1: 99.9% of the norm of Vloc inside     20.157 Ry
atom: Maximum radius for 4*pi*r*r*local-pseudopot. charge    2.67231
atom: Maximum radius for r*vlocal+2*Zval:    2.32897
GHOST: No ghost state for L =  0
GHOST: No ghost state for L =  1
GHOST: No ghost state for L =  2
GHOST: No ghost state for L =  3

KBgen: Kleinman-Bylander projectors: 
   l= 0   rc=  2.243238   el= -1.759686   Ekb=**********   kbcos= -0.171774
   l= 1   rc=  2.328968   el= -0.663873   Ekb=-14.506792   kbcos= -0.519897
   l= 2   rc=  2.573941   el=  0.002031   Ekb= -1.137373   kbcos= -0.019581
   l= 3   rc=  2.606321   el=  0.003153   Ekb= -1.013546   kbcos= -0.003122

KBgen: Total number of Kleinman-Bylander projectors:   16
atom: -------------------------------------------------------------------------

atom: SANKEY-TYPE ORBITALS:
atom: Selected multiple-zeta basis: split     

SPLIT: Orbitals with angular momentum L= 0

SPLIT: Basis orbitals for state 2s

SPLIT: PAO cut-off radius determined from an
SPLIT: energy shift=  0.002000 Ry

   izeta = 1
                 lambda =    1.000000
                     rc =    4.243912
                 energy =   -1.758270
                kinetic =    3.286084
    potential(screened) =   -5.044353
       potential(ionic) =  -12.921184

   izeta = 2
                 rmatch =    2.187845
              splitnorm =    0.280000
                 energy =   -0.885018
                kinetic =    8.134434
    potential(screened) =   -9.019452
       potential(ionic) =  -17.710645

SPLIT: Orbitals with angular momentum L= 1

SPLIT: Basis orbitals for state 2p

SPLIT: PAO cut-off radius determined from an
SPLIT: energy shift=  0.002000 Ry

   izeta = 1
                 lambda =    1.000000
                     rc =    5.314825
                 energy =   -0.661986
                kinetic =    4.917472
    potential(screened) =   -5.579458
       potential(ionic) =  -13.236259

   izeta = 2
                 rmatch =    2.160663
              splitnorm =    0.280000
                 energy =   -0.068760
                kinetic =    9.183374
    potential(screened) =   -9.252135
       potential(ionic) =  -18.274251

POLgen: Perturbative polarization orbital with L=  2

POLgen: Polarization orbital for state 2p

   izeta = 1
                     rc =    5.314825
                 energy =    1.970580
                kinetic =    3.886128
    potential(screened) =   -1.915547
       potential(ionic) =   -7.749584
atom: Total number of Sankey-type orbitals: 13

atm_pop: Valence configuration (for local Pseudopot. screening):
 2s( 2.00)                                                            
 2p( 4.00)                                                            
Vna: chval, zval:    6.00000   6.00000

Vna:  Cut-off radius for the neutral-atom potential:   5.314825

atom: _________________________________________________________________________

prinput: Basis input ----------------------------------------------------------

PAO.BasisType split     

%block ChemicalSpeciesLabel
    1    1 H                       # Species index, atomic number, species label
    2    7 N                       # Species index, atomic number, species label
    3   14 Si                      # Species index, atomic number, species label
    4    8 O                       # Species index, atomic number, species label
%endblock ChemicalSpeciesLabel

%block PAO.Basis                 # Define Basis set
H                     1                    # Species label, number of l-shells
 n=1   0   2 P   1                   # n, l, Nzeta, Polarization, NzetaPol
   6.518      2.141   
   1.000      1.000   
N                     2                    # Species label, number of l-shells
 n=2   0   2                         # n, l, Nzeta 
   4.730      2.532   
   1.000      1.000   
 n=2   1   2 P   1                   # n, l, Nzeta, Polarization, NzetaPol
   5.924      2.532   
   1.000      1.000   
Si                    2                    # Species label, number of l-shells
 n=3   0   2                         # n, l, Nzeta 
   6.430      3.998   
   1.000      1.000   
 n=3   1   2 P   1                   # n, l, Nzeta, Polarization, NzetaPol
   8.465      4.588   
   1.000      1.000   
O                     2                    # Species label, number of l-shells
 n=2   0   2                         # n, l, Nzeta 
   4.244      2.188   
   1.000      1.000   
 n=2   1   2 P   1                   # n, l, Nzeta, Polarization, NzetaPol
   5.315      2.161   
   1.000      1.000   
%endblock PAO.Basis

prinput: ----------------------------------------------------------------------

Dumping basis to NetCDF file H.ion.nc
Dumping basis to NetCDF file N.ion.nc
Dumping basis to NetCDF file Si.ion.nc
Dumping basis to NetCDF file O.ion.nc
coor:   Atomic-coordinates input format  =     Cartesian coordinates
coor:                                          (in Angstroms)

siesta: Atomic coordinates (Bohr) and species
siesta:      4.87999 -10.91663   0.00000  1        1
siesta:      3.12704  -9.95765   0.00000  2        2
siesta:      0.11930 -11.53056   0.00000  3        3
siesta:      0.22530 -14.35597   0.00000  1        4
siesta:     -2.60195  -9.79371   0.00000  2        5
siesta:     -1.55784  -6.54009   0.00000  3        6
siesta:     -2.21206  -2.39996   0.00000  3        7
siesta:     -5.11537  -0.78899   0.00000  2        8
siesta:     -5.20538   1.19971   0.00000  1        9
siesta:     -6.87421  -1.71959   0.00000  1       10
siesta:      0.41213  -0.44256   0.00000  2       11
siesta:      3.53758  -1.31745   0.00000  3       12
siesta:      5.34415   0.87204   0.00000  1       13
siesta:      5.00428  -4.26138   0.00000  2       14
siesta:      2.63035  -6.52849   0.00000  3       15
siesta:      3.57317   9.91637   0.00000  2       16
siesta:      1.06480  12.20333   0.00000  3       17
siesta:      2.27423  14.77585   0.00000  1       18
siesta:     -2.87669  10.93620   0.00000  3       19
siesta:     -6.71201  13.07182   0.00000  3       20
siesta:     -6.42054  15.26433   1.77692  1       21
siesta:     -8.57515  11.14066   0.96870  1       22
siesta:     -7.49854  13.97175  -2.58265  1       23
siesta:     -2.75103   6.63901   0.00000  3       24
siesta:     -4.71455   4.38445   0.00000  4       25
siesta:      0.38023   5.44097   0.00000  2       26
siesta:      0.34618   3.43324   0.00000  1       27
siesta:      3.44840   6.56927   0.00000  3       28
siesta:      5.70665   4.65228   0.00000  4       29
siesta:      5.46297  10.56928   0.00000  1       30

siesta: Automatic unit cell vectors (Ang):
siesta:   15.820911    0.000000    0.000000
siesta:    0.000000   24.830405    0.000000
siesta:    0.000000    0.000000   10.224979

siesta: System type = molecule  

initatomlists: Number of atoms, orbitals, and projectors:     30   302   403

siesta: ******************** Simulation parameters ****************************
siesta:
siesta: The following are some of the parameters of the simulation.
siesta: A complete list of the parameters used, including default values,
siesta: can be found in file out.fdf
siesta:
redata: Spin configuration                          = spin-orbit
redata: Number of spin components                   = 8
redata: Time-Reversal Symmetry                      = F
redata: Spin spiral                                 = F
############################################################
This spin-orbit implementation uses a local approximation.
From 4.2 and onwards the full non-local approximation is implemented
You are strongly advised to use >=4.2 versions!
############################################################
redata: Long output                                 =   F
redata: Number of Atomic Species                    =        4
redata: Charge density info will appear in .RHO file
redata: Write Mulliken Pop.                         = Atomic and Orbital charges
redata: Matel table size (NRTAB)                    =     1024
redata: Mesh Cutoff                                 =   340.0000 Ry
redata: Net charge of the system                    =     0.0000 |e|
redata: Min. number of SCF Iter                     =        1
redata: Max. number of SCF Iter                     =      200
redata: SCF mix quantity                            = Hamiltonian
redata: Mix DM or H after convergence               =   F
redata: Recompute H after scf cycle                 =   F
redata: Mix DM in first SCF step                    =   T
redata: Write Pulay info on disk                    =   F
redata: New DM Occupancy tolerance                  = 0.000000000001
redata: No kicks to SCF
redata: DM Mixing Weight for Kicks                  =     0.5000
redata: Require Harris convergence for SCF          =   F
redata: Harris energy tolerance for SCF             =     0.000100 eV
redata: Require DM convergence for SCF              =   T
redata: DM tolerance for SCF                        =     0.000008
redata: Require EDM convergence for SCF             =   F
redata: EDM tolerance for SCF                       =     0.001000 eV
redata: Require H convergence for SCF               =   T
redata: Hamiltonian tolerance for SCF               =     0.000001 eV
redata: Require (free) Energy convergence for SCF   =   F
redata: (free) Energy tolerance for SCF             =     0.000100 eV
redata: Using Saved Data (generic)                  =   F
redata: Use continuation files for DM               =   F
redata: Neglect nonoverlap interactions             =   F
redata: Method of Calculation                       = Diagonalization
redata: Electronic Temperature                      =   299.9978 K
redata: Fix the spin of the system                  =   F
redata: Dynamics option                             = Single-point calculation
mix.SCF: Pulay mixing                            = Pulay
mix.SCF:    Variant                              = stable
mix.SCF:    History steps                        = 6
mix.SCF:    Linear mixing weight                 =     0.250000
mix.SCF:    Mixing weight                        =     0.250000
mix.SCF:    SVD condition                        = 0.1000E-07
mix.SCF:    Restart steps                        = 24
mix.SCF:    Restart save steps                   = 3
mix.SCF: Spin-component mixing                   all
redata: Save all siesta data in one NC              =   F
redata: ***********************************************************************

%block SCF.Mixers
  Pulay
%endblock SCF.Mixers

%block SCF.Mixer.Pulay
  # Mixing method
  method pulay
  variant stable

  # Mixing options
  weight 0.2500
  weight.linear 0.2500
  history 6
  restart 24
  restart.save 3
%endblock SCF.Mixer.Pulay

DM_history_depth set to one: no extrapolation allowed by default for geometry relaxation
Size of DM history Fstack: 1
Total number of electrons:    98.000000
Total ionic charge:    98.000000

* ProcessorY, Blocksize:    2  24


* Orbital distribution balance (max,min):    62    48


Time-reversal symmetry not used.

siesta: k-grid: Number of k-points =     1
siesta: k-grid: Cutoff (effective) =     5.112 Ang
siesta: k-grid: Supercell and displacements
siesta: k-grid:    1   0   0      0.000
siesta: k-grid:    0   1   0      0.000
siesta: k-grid:    0   0   1      0.000

diag: Algorithm                                     = ELPA-1stage
diag: Parallel over k                               =   F
diag: Use parallel 2D distribution                  =   T
diag: Parallel block-size                           = 24
diag: Parallel distribution                         =     2 x     3
diag: Used triangular part                          = Lower
diag: Absolute tolerance                            =  0.100E-15
diag: Orthogonalization factor                      =  0.100E-05
diag: Memory factor                                 =  1.0000


ts: **************************************************************
ts: Save H and S matrices                           =    F
ts: Save DM and EDM matrices                        =    F
ts: Only save the overlap matrix S                  =    F
ts: **************************************************************

************************ Begin: TS CHECKS AND WARNINGS ************************
************************ End: TS CHECKS AND WARNINGS **************************


                     ====================================
                        Single-point calculation
                     ====================================

outcoor: Atomic coordinates (Ang):                          
    2.58237765   -5.77683044    0.00000000   1       1  H
    1.65475924   -5.26936198    0.00000000   2       2  N
    0.06312884   -6.10170459    0.00000000   3       3  Si
    0.11922324   -7.59684950    0.00000000   1       4  H
   -1.37689205   -5.18260374    0.00000000   2       5  N
   -0.82437190   -3.46086644    0.00000000   3       6  Si
   -1.17057148   -1.27000210    0.00000000   3       7  Si
   -2.70693368   -0.41751578    0.00000000   2       8  N
   -2.75456966    0.63485862    0.00000000   1       9  H
   -3.63767564   -0.90996786    0.00000000   1      10  H
    0.21809179   -0.23419397    0.00000000   2      11  N
    1.87200410   -0.69716230    0.00000000   3      12  Si
    2.82800113    0.46146477    0.00000000   1      13  H
    2.64815008   -2.25502447    0.00000000   2      14  N
    1.39192138   -3.45472722    0.00000000   3      15  Si
    1.89084092    5.24751488    0.00000000   2      16  N
    0.56346940    6.45771918    0.00000000   3      17  Si
    1.20347067    7.81903742    0.00000000   1      18  H
   -1.52227654    5.78718783    0.00000000   3      19  Si
   -3.55183914    6.91730402    0.00000000   3      20  Si
   -3.39760337    8.07753423    0.94030528   1      21  H
   -4.53777386    5.89538340    0.51261370   1      22  H
   -3.96805410    7.39352987   -1.36667834   1      23  H
   -1.45578112    3.51321121    0.00000000   3      24  Si
   -2.49482985    2.32015171    0.00000000   4      25  O
    0.20121046    2.87923602    0.00000000   2      26  N
    0.18319309    1.81679119    0.00000000   1      27  H
    1.82481353    3.47630623    0.00000000   3      28  Si
    3.01982970    2.46188103    0.00000000   4      29  O
    2.89087829    5.59302198    0.00000000   1      30  H

outcell: Unit cell vectors (Ang):
       15.820911    0.000000    0.000000
        0.000000   24.830405    0.000000
        0.000000    0.000000   10.224979

outcell: Cell vector modules (Ang)   :   15.820911   24.830405   10.224979
outcell: Cell angles (23,13,12) (deg):     90.0000     90.0000     90.0000
outcell: Cell volume (Ang**3)        :   4016.7770
<dSpData1D:S at geom step 0
  <sparsity:sparsity for geom step 0
    nrows_g=302 nrows=62 sparsity=.1507 nnzs=13742, refcount: 8>
  <dData1D:(new from dSpData1D) n=13742, refcount: 1>
refcount: 1>
new_DM -- step:     1
Initializing Density Matrix...
DM filled with atomic data:
<dSpData2D:DM initialized from atoms
  <sparsity:sparsity for geom step 0
    nrows_g=302 nrows=62 sparsity=.1507 nnzs=13742, refcount: 9>
  <dData2D:DM n=13742 m=8, refcount: 1>
refcount: 1>
     spin moment: S , {S} =   56.00000   0.00000   0.00000  56.00000
No. of atoms with KB's overlaping orbs in proc 0. Max # of overlaps:      24     200

Initializing spin-orbit part of the Hamiltonian
  Adding spin-orbit effects for H 
  Adding spin-orbit effects for N 
  Adding spin-orbit effects for Si
  Adding spin-orbit effects for O 


New grid distribution:   1
           1       1:   90    1:   72    1:   20
           2       1:   90    1:   72   21:   40
           3       1:   90    1:   72   41:   60
           4       1:   90   73:  144    1:   20
           5       1:   90   73:  144   21:   40
           6       1:   90   73:  144   41:   60

InitMesh: MESH =   180 x   288 x   120 =     6220800
InitMesh: (bp) =    90 x   144 x    60 =      777600
InitMesh: Mesh cutoff (required, used) =   340.000   357.753 Ry
ExtMesh (bp) on 0 =   194 x   176 x   128 =     4370432
New grid distribution:   2
           1      14:   90   20:   40    1:   60
           2       1:   12   41:  144    1:   60
           3       1:   13    1:   40    1:   60
           4      13:   90   41:  122    1:   60
           5      13:   90  123:  144    1:   60
           6      14:   90    1:   19    1:   60
New grid distribution:   3
           1      24:   90    1:   28    1:   60
           2      24:   90   29:   52    1:   60
           3       1:   23    1:   52    1:   60
           4      19:   90   53:  117    1:   60
           5      19:   90  118:  144    1:   60
           6       1:   18   53:  144    1:   60
Setting up quadratic distribution...
ExtMesh (bp) on 0 =   181 x   125 x   168 =     3801000
PhiOnMesh: Number of (b)points on node 0 =                97020
PhiOnMesh: nlist on node 0 =              1843112

stepf: Fermi-Dirac step function

siesta: Program's energy decomposition (eV):
siesta: Ebs     =      -613.354594
siesta: Eions   =      3553.971015
siesta: Ena     =       377.494157
siesta: Ekin    =      3178.657116
siesta: Enl     =     -2993.869439
siesta: Eso     =        -0.003958
siesta: Edftu   =         0.000000
siesta: DEna    =       130.726190
siesta: DUscf   =        74.270752
siesta: DUext   =         0.000000
siesta: Exc     =     -1170.892705
siesta: eta*DQ  =         0.000000
siesta: Emadel  =         0.000000
siesta: Emeta   =         0.000000
siesta: Emolmec =         0.000000
siesta: Ekinion =         0.000000
siesta: Eharris =     -3886.525469
siesta: Etot    =     -3957.588902
siesta: FreeEng =     -3957.593265

        iscf     Eharris(eV)        E_KS(eV)     FreeEng(eV)     dDmax    Ef(eV) dHmax(eV)
   scf:    1    -3886.525469    -3957.588902    -3957.593265  0.969690 -4.944403 20.480392
     spin moment: S , {S} =    2.03328   0.00004   0.00001   2.03328
timer: Routine,Calls,Time,% = IterSCF        1       5.563  20.97
   scf:    2    -4001.074513    -3991.175078    -3991.175081  0.453779 -4.368838  9.907471
     spin moment: S , {S} =    2.00011  -0.00001   0.00003   2.00011
   scf:    3    -3994.625445    -3996.349488    -3996.356365  0.417407 -4.235132  7.335723
     spin moment: S , {S} =    0.05886   0.00001  -0.00000   0.05886
   scf:    4    -3999.162697    -3997.909370    -3997.909371  0.026073 -3.891521  5.403304
     spin moment: S , {S} =    0.00009   0.00001  -0.00000   0.00009
   scf:    5    -3999.554759    -3998.763540    -3998.763592  0.033431 -3.835577  2.829324
     spin moment: S , {S} =    0.00024   0.00000  -0.00000   0.00024
   scf:    6    -3999.435118    -3999.100311    -3999.101658  0.029379 -3.869061  0.853471
     spin moment: S , {S} =    0.00799   0.00000  -0.00000   0.00799
   scf:    7    -3999.280472    -3999.188934    -3999.195165  0.017697 -3.922282  0.445228
     spin moment: S , {S} =    0.00597   0.00001   0.00001  -0.00597
   scf:    8    -3999.260097    -3999.226542    -3999.228647  0.007127 -3.944141  0.172518
     spin moment: S , {S} =    0.00591   0.00000   0.00000  -0.00591
   scf:    9    -3999.248283    -3999.236986    -3999.239324  0.004668 -3.947739  0.107606
     spin moment: S , {S} =    0.00765   0.00000   0.00000  -0.00765
   scf:   10    -3999.261754    -3999.248300    -3999.250128  0.008163 -3.951448  0.079783
     spin moment: S , {S} =    0.00407   0.00000   0.00000  -0.00407
   scf:   11    -3999.256841    -3999.252081    -3999.254170  0.006199 -3.950873  0.042441
     spin moment: S , {S} =    0.00309   0.00000   0.00000  -0.00309
   scf:   12    -3999.255429    -3999.253487    -3999.255541  0.004953 -3.950213  0.025358
     spin moment: S , {S} =    0.00127   0.00000   0.00000  -0.00127
   scf:   13    -3999.254075    -3999.253747    -3999.255808  0.002343 -3.949355  0.016349
     spin moment: S , {S} =    0.00074   0.00000   0.00000  -0.00074
   scf:   14    -3999.253984    -3999.253856    -3999.255902  0.001343 -3.948781  0.012249
     spin moment: S , {S} =    0.00042   0.00000   0.00000  -0.00042
   scf:   15    -3999.254037    -3999.253936    -3999.255969  0.001485 -3.948343  0.007368
     spin moment: S , {S} =    0.00019   0.00000   0.00000  -0.00019
   scf:   16    -3999.253991    -3999.253960    -3999.255988  0.000841 -3.948321  0.004348
     spin moment: S , {S} =    0.00008   0.00000   0.00000  -0.00008
   scf:   17    -3999.253976    -3999.253967    -3999.255995  0.000522 -3.948406  0.002224
     spin moment: S , {S} =    0.00004   0.00000   0.00000  -0.00004
   scf:   18    -3999.253967    -3999.253966    -3999.255997  0.000329 -3.948485  0.001043
     spin moment: S , {S} =    0.00002   0.00000   0.00000  -0.00002
   scf:   19    -3999.253966    -3999.253966    -3999.255998  0.000140 -3.948515  0.000649
     spin moment: S , {S} =    0.00001   0.00000   0.00000  -0.00001
   scf:   20    -3999.253967    -3999.253966    -3999.255998  0.000050 -3.948518  0.000500
     spin moment: S , {S} =    0.00001   0.00000   0.00000  -0.00001
   scf:   21    -3999.253967    -3999.253967    -3999.255998  0.000049 -3.948510  0.000304
     spin moment: S , {S} =    0.00000   0.00000   0.00000  -0.00000
   scf:   22    -3999.253967    -3999.253967    -3999.255998  0.000026 -3.948507  0.000171
     spin moment: S , {S} =    0.00000   0.00000  -0.00000  -0.00000
   scf:   23    -3999.253967    -3999.253967    -3999.255998  0.000015 -3.948507  0.000121
     spin moment: S , {S} =    0.00000   0.00000  -0.00000  -0.00000
   scf:   24    -3999.253967    -3999.253967    -3999.255998  0.000010 -3.948511  0.000069
     spin moment: S , {S} =    0.00000   0.00000  -0.00000  -0.00000
mix: Pulay -- resetting history
   scf:   25    -3999.253967    -3999.253967    -3999.255998  0.000005 -3.948512  0.000048
     spin moment: S , {S} =    0.00000   0.00000  -0.00000  -0.00000
   scf:   26    -3999.253967    -3999.253967    -3999.255998  0.000005 -3.948512  0.000028
     spin moment: S , {S} =    0.00000   0.00000  -0.00000  -0.00000
   scf:   27    -3999.253967    -3999.253967    -3999.255998  0.000003 -3.948512  0.000016
     spin moment: S , {S} =    0.00000   0.00000  -0.00000  -0.00000
   scf:   28    -3999.253967    -3999.253967    -3999.255998  0.000002 -3.948511  0.000008
     spin moment: S , {S} =    0.00000   0.00000  -0.00000  -0.00000
   scf:   29    -3999.253967    -3999.253967    -3999.255998  0.000001 -3.948511  0.000005
     spin moment: S , {S} =    0.00000   0.00000  -0.00000  -0.00000
   scf:   30    -3999.253967    -3999.253967    -3999.255998  0.000001 -3.948511  0.000003
     spin moment: S , {S} =    0.00000   0.00000  -0.00000  -0.00000
   scf:   31    -3999.253967    -3999.253967    -3999.255998  0.000000 -3.948512  0.000001
     spin moment: S , {S} =    0.00000   0.00000  -0.00000   0.00000
   scf:   32    -3999.253967    -3999.253967    -3999.255998  0.000000 -3.948512  0.000001
     spin moment: S , {S} =    0.00000   0.00000  -0.00000   0.00000
   scf:   33    -3999.253967    -3999.253967    -3999.255998  0.000000 -3.948512  0.000000
     spin moment: S , {S} =    0.00000   0.00000  -0.00000  -0.00000

SCF Convergence by DM+H criterion
max |DM_out - DM_in|         :     0.0000001214
max |H_out - H_in|      (eV) :     0.0000004748
SCF cycle converged after 33 iterations

Using DM_out to compute the final energy and forces
No. of atoms with KB's overlaping orbs in proc 0. Max # of overlaps:      24     200

siesta: E_KS(eV) =            -3999.2540

siesta: E_KS - E_eggbox =     -3999.2540
     spin moment: S , {S} =    0.00000   0.00000  -0.00000  -0.00000

siesta: Atomic forces (eV/Ang):
     1   -0.045445    0.019470    0.000006
     2   -0.030960   -0.094823   -0.000022
     3    0.030884    0.049057   -0.000041
     4   -0.057456    0.006962    0.000028
     5   -0.014847   -0.035927   -0.000039
     6    0.145363   -0.010083    0.000165
     7   -0.900012    0.224901    0.000088
     8    0.255752   -1.036243   -0.000456
     9    0.106072    0.679967    0.000587
    10    0.118040   -0.115535    0.000058
    11    0.035701    0.225178   -0.000180
    12    0.575147   -0.048617   -0.000136
    13   -0.159350   -0.233927   -0.000038
    14   -0.132701   -0.207747    0.000135
    15    0.035160    0.020567   -0.000067
    16    0.082510    0.060698    0.007758
    17    0.061006   -0.083049   -0.039040
    18   -0.072771    0.094326    0.008111
    19   -0.129802   -0.019567   -0.041735
    20    0.047039   -0.030968    0.022043
    21   -0.143666    0.176145    0.072162
    22   -0.038603    0.032156    0.028845
    23    0.066226    0.108278   -0.045007
    24    0.600758    0.027049   -0.026447
    25    0.400215    2.261973    0.003216
    26   -0.101016    0.836357    0.007046
    27   -0.154540   -1.111122    0.002909
    28   -0.439691   -0.039502   -0.000772
    29   -2.236894    1.168642   -0.001060
    30    0.128075    0.280180    0.007815
----------------------------------------
   Tot   -1.969810    3.204797    0.005930
----------------------------------------
   Max    2.261973
   Res    0.440640    sqrt( Sum f_i^2 / 3N )
----------------------------------------
   Max    2.261973    constrained

Stress tensor Voigt[x,y,z,yz,xz,xy] (kbar):       -1.71       -1.90       -0.22       -0.05        0.05        0.13
(Free)E + p*V (eV/cell)    -3996.0625
Target enthalpy (eV/cell)    -3999.2560

mulliken: Atomic and Orbital Populations:

Species: H                   

Atom      Orb        Charge      Spin       Svec
----------------------------------------------------------------
    1  1 1s         0.51078   0.00000     -0.000  -0.000   0.000
    1  2 1s         0.18774   0.00000      0.000  -0.000   0.000
    1  3 2Ppy       0.02820   0.00000     -0.000  -0.000   0.000
    1  4 2Ppz       0.04022   0.00000     -0.000  -0.000   0.000
    1  5 2Ppx       0.02521   0.00000      0.000  -0.000   0.000
    1     Total     0.79214   0.00000     -0.000  -0.000   0.000

    4  1 1s         1.02472   0.00000     -0.000  -0.000  -0.000
    4  2 1s         0.09508   0.00000     -0.000  -0.000  -0.000
    4  3 2Ppy       0.03892   0.00000      0.000   0.000   0.000
    4  4 2Ppz       0.02009   0.00000     -0.000   0.000   0.000
    4  5 2Ppx       0.01358   0.00000      0.000  -0.000   0.000
    4     Total     1.19240   0.00000     -0.000  -0.000  -0.000

    9  1 1s         0.44061   0.00000     -0.000  -0.000   0.000
    9  2 1s         0.19341   0.00000      0.000   0.000  -0.000
    9  3 2Ppy       0.08859   0.00000      0.000  -0.000   0.000
    9  4 2Ppz       0.04987   0.00000      0.000   0.000  -0.000
    9  5 2Ppx       0.01998   0.00000     -0.000   0.000   0.000
    9     Total     0.79246   0.00000     -0.000   0.000   0.000

   10  1 1s         0.50217   0.00000      0.000   0.000   0.000
   10  2 1s         0.19257   0.00000     -0.000  -0.000   0.000
   10  3 2Ppy       0.00932   0.00000      0.000   0.000   0.000
   10  4 2Ppz       0.05407   0.00000     -0.000  -0.000   0.000
   10  5 2Ppx       0.03088   0.00000     -0.000  -0.000   0.000
   10     Total     0.78901   0.00000      0.000  -0.000   0.000

   13  1 1s         0.93325   0.00000      0.000   0.000   0.000
   13  2 1s         0.10647   0.00000     -0.000   0.000  -0.000
   13  3 2Ppy       0.05288   0.00000     -0.000   0.000   0.000
   13  4 2Ppz       0.01586   0.00000     -0.000   0.000  -0.000
   13  5 2Ppx       0.02353   0.00000     -0.000   0.000   0.000
   13     Total     1.13199   0.00000     -0.000   0.000   0.000

   18  1 1s         1.04810   0.00000     -0.000   0.000  -0.000
   18  2 1s         0.08391   0.00000      0.000  -0.000  -0.000
   18  3 2Ppy       0.02803   0.00000     -0.000  -0.000   0.000
   18  4 2Ppz       0.01911   0.00000      0.000   0.000  -0.000
   18  5 2Ppx       0.01752   0.00000     -0.000   0.000   0.000
   18     Total     1.19667   0.00000     -0.000   0.000  -0.000

   21  1 1s         1.06631   0.00000      0.000   0.000  -0.000
   21  2 1s         0.08252   0.00000     -0.000  -0.000  -0.000
   21  3 2Ppy       0.02234   0.00000     -0.000  -0.000   0.000
   21  4 2Ppz       0.02108   0.00000     -0.000  -0.000   0.000
   21  5 2Ppx       0.01157   0.00000      0.000  -0.000   0.000
   21     Total     1.20383   0.00000      0.000   0.000  -0.000

   22  1 1s         1.05365   0.00000     -0.000   0.000  -0.000
   22  2 1s         0.08317   0.00000      0.000   0.000  -0.000
   22  3 2Ppy       0.01999   0.00000      0.000  -0.000   0.000
   22  4 2Ppz       0.01774   0.00000     -0.000  -0.000   0.000
   22  5 2Ppx       0.01715   0.00000      0.000  -0.000  -0.000
   22     Total     1.19169   0.00000     -0.000   0.000  -0.000

   23  1 1s         1.06443   0.00000      0.000   0.000  -0.000
   23  2 1s         0.08227   0.00000     -0.000   0.000  -0.000
   23  3 2Ppy       0.01685   0.00000     -0.000  -0.000  -0.000
   23  4 2Ppz       0.02464   0.00000     -0.000   0.000   0.000
   23  5 2Ppx       0.01346   0.00000     -0.000  -0.000  -0.000
   23     Total     1.20164   0.00000      0.000   0.000  -0.000

   27  1 1s         0.45703   0.00000     -0.000  -0.000   0.000
   27  2 1s         0.18447   0.00000      0.000   0.000   0.000
   27  3 2Ppy       0.07101   0.00000     -0.000   0.000  -0.000
   27  4 2Ppz       0.02411   0.00000      0.000   0.000   0.000
   27  5 2Ppx       0.03179   0.00000      0.000  -0.000   0.000
   27     Total     0.76841   0.00000     -0.000   0.000   0.000

   30  1 1s         0.48882   0.00000     -0.000  -0.000   0.000
   30  2 1s         0.18881   0.00000     -0.000   0.000   0.000
   30  3 2Ppy       0.02838   0.00000     -0.000   0.000   0.000
   30  4 2Ppz       0.03453   0.00000      0.000  -0.000   0.000
   30  5 2Ppx       0.02445   0.00000      0.000  -0.000   0.000
   30     Total     0.76499   0.00000     -0.000  -0.000   0.000

----------------------------------------------------------------
Total              11.02524   0.00000     -0.000   0.000  -0.000


Species: N                   

Atom      Orb        Charge      Spin       Svec
----------------------------------------------------------------
    2  1 2s         1.37993   0.00000      0.000  -0.000  -0.000
    2  2 2s         0.12726   0.00000     -0.000   0.000  -0.000
    2  3 2py        1.06964   0.00000     -0.000  -0.000   0.000
    2  4 2pz        1.49402   0.00000      0.000  -0.000  -0.000
    2  5 2px        1.01551   0.00000      0.000   0.000  -0.000
    2  6 2py        0.19585   0.00000      0.000   0.000  -0.000
    2  7 2pz        0.01456   0.00000     -0.000   0.000  -0.000
    2  8 2px        0.21062   0.00000     -0.000  -0.000  -0.000
    2  9 3Pdxy      0.00685   0.00000     -0.000   0.000  -0.000
    2 10 3Pdyz      0.00607   0.00000      0.000  -0.000  -0.000
    2 11 3Pdz2      0.00157   0.00000      0.000   0.000   0.000
    2 12 3Pdxz      0.00304   0.00000      0.000  -0.000   0.000
    2 13 3Pdx2-y2   0.00298   0.00000     -0.000   0.000   0.000
    2     Total     5.52789   0.00000      0.000  -0.000  -0.000

    5  1 2s         1.55751   0.00000     -0.000   0.000  -0.000
    5  2 2s         0.08158   0.00000      0.000  -0.000   0.000
    5  3 2py        0.90357   0.00000      0.000   0.000  -0.000
    5  4 2pz        1.22304   0.00000      0.000   0.000  -0.000
    5  5 2px        1.14383   0.00000      0.000   0.000  -0.000
    5  6 2py        0.22956   0.00000     -0.000  -0.000   0.000
    5  7 2pz        0.05521   0.00000     -0.000   0.000   0.000
    5  8 2px        0.14594   0.00000     -0.000   0.000   0.000
    5  9 3Pdxy      0.00856   0.00000      0.000   0.000  -0.000
    5 10 3Pdyz      0.00708   0.00000     -0.000   0.000   0.000
    5 11 3Pdz2      0.00190   0.00000      0.000   0.000   0.000
    5 12 3Pdxz      0.01128   0.00000     -0.000  -0.000   0.000
    5 13 3Pdx2-y2   0.00919   0.00000     -0.000  -0.000  -0.000
    5     Total     5.37824   0.00000      0.000   0.000  -0.000

    8  1 2s         1.28040   0.00000      0.000   0.000  -0.000
    8  2 2s         0.17299   0.00000     -0.000  -0.000  -0.000
    8  3 2py        1.09115   0.00000     -0.000   0.000  -0.000
    8  4 2pz        1.52802   0.00000     -0.000  -0.000  -0.000
    8  5 2px        0.97845   0.00000     -0.000   0.000  -0.000
    8  6 2py        0.19856   0.00000      0.000   0.000  -0.000
    8  7 2pz        0.02980   0.00000      0.000   0.000  -0.000
    8  8 2px        0.23381   0.00000      0.000  -0.000  -0.000
    8  9 3Pdxy      0.00315   0.00000      0.000   0.000  -0.000
    8 10 3Pdyz      0.00113   0.00000     -0.000  -0.000   0.000
    8 11 3Pdz2      0.00234   0.00000     -0.000  -0.000  -0.000
    8 12 3Pdxz      0.00236   0.00000      0.000  -0.000  -0.000
    8 13 3Pdx2-y2   0.00371   0.00000     -0.000   0.000  -0.000
    8     Total     5.52589   0.00000      0.000  -0.000  -0.000

   11  1 2s         1.45944   0.00000     -0.000   0.000   0.000
   11  2 2s         0.10804   0.00000      0.000  -0.000  -0.000
   11  3 2py        1.24604   0.00000      0.000  -0.000   0.000
   11  4 2pz        1.32698   0.00000     -0.000  -0.000   0.000
   11  5 2px        0.82654   0.00000     -0.000   0.000   0.000
   11  6 2py        0.10089   0.00000     -0.000   0.000  -0.000
   11  7 2pz        0.03554   0.00000      0.000   0.000  -0.000
   11  8 2px        0.30881   0.00000      0.000  -0.000  -0.000
   11  9 3Pdxy      0.00684   0.00000     -0.000  -0.000  -0.000
   11 10 3Pdyz      0.00508   0.00000      0.000  -0.000  -0.000
   11 11 3Pdz2      0.00049   0.00000      0.000   0.000  -0.000
   11 12 3Pdxz      0.00507   0.00000     -0.000  -0.000  -0.000
   11 13 3Pdx2-y2   0.00540   0.00000      0.000  -0.000   0.000
   11     Total     5.43516   0.00000     -0.000   0.000   0.000

   14  1 2s         1.50073   0.00000      0.000  -0.000   0.000
   14  2 2s         0.10530   0.00000     -0.000   0.000   0.000
   14  3 2py        0.84732   0.00000      0.000   0.000   0.000
   14  4 2pz        1.23626   0.00000      0.000   0.000   0.000
   14  5 2px        1.15979   0.00000     -0.000  -0.000   0.000
   14  6 2py        0.27786   0.00000      0.000  -0.000  -0.000
   14  7 2pz        0.05521   0.00000     -0.000  -0.000  -0.000
   14  8 2px        0.13738   0.00000      0.000   0.000  -0.000
   14  9 3Pdxy      0.00934   0.00000      0.000   0.000   0.000
   14 10 3Pdyz      0.00467   0.00000      0.000  -0.000  -0.000
   14 11 3Pdz2      0.00151   0.00000     -0.000   0.000  -0.000
   14 12 3Pdxz      0.01067   0.00000      0.000  -0.000  -0.000
   14 13 3Pdx2-y2   0.00825   0.00000      0.000  -0.000   0.000
   14     Total     5.35430   0.00000      0.000  -0.000   0.000

   16  1 2s         1.36172   0.00000     -0.000   0.000  -0.000
   16  2 2s         0.13470   0.00000      0.000  -0.000   0.000
   16  3 2py        0.98929   0.00000     -0.000   0.000  -0.000
   16  4 2pz        1.54379   0.00000      0.000  -0.000  -0.000
   16  5 2px        1.07743   0.00000      0.000   0.000  -0.000
   16  6 2py        0.24096   0.00000      0.000  -0.000  -0.000
   16  7 2pz        0.00419   0.00000      0.000   0.000  -0.000
   16  8 2px        0.18189   0.00000     -0.000  -0.000  -0.000
   16  9 3Pdxy      0.00180   0.00000     -0.000   0.000   0.000
   16 10 3Pdyz      0.00477   0.00000     -0.000  -0.000  -0.000
   16 11 3Pdz2      0.00114   0.00000     -0.000  -0.000   0.000
   16 12 3Pdxz      0.00234   0.00000     -0.000   0.000  -0.000
   16 13 3Pdx2-y2   0.00602   0.00000     -0.000   0.000  -0.000
   16     Total     5.55003   0.00000     -0.000   0.000  -0.000

   26  1 2s         1.35437   0.00000      0.000   0.000  -0.000
   26  2 2s         0.13364   0.00000     -0.000   0.000  -0.000
   26  3 2py        1.11978   0.00000     -0.000   0.000  -0.000
   26  4 2pz        1.50356   0.00000     -0.000   0.000  -0.000
   26  5 2px        0.90330   0.00000     -0.000  -0.000  -0.000
   26  6 2py        0.18117   0.00000      0.000  -0.000  -0.000
   26  7 2pz        0.00759   0.00000      0.000   0.000   0.000
   26  8 2px        0.28265   0.00000      0.000   0.000   0.000
   26  9 3Pdxy      0.00093   0.00000     -0.000  -0.000  -0.000
   26 10 3Pdyz      0.00119   0.00000      0.000   0.000   0.000
   26 11 3Pdz2     -0.00146   0.00000     -0.000  -0.000  -0.000
   26 12 3Pdxz      0.00436   0.00000     -0.000   0.000  -0.000
   26 13 3Pdx2-y2   0.00237   0.00000      0.000   0.000  -0.000
   26     Total     5.49346   0.00000     -0.000   0.000  -0.000

----------------------------------------------------------------
Total              49.29021   0.00000     -0.000   0.000   0.000


Species: Si                  

Atom      Orb        Charge      Spin       Svec
----------------------------------------------------------------
    3  1 3s         0.55008   0.00000     -0.000  -0.000   0.000
    3  2 3s         0.38746   0.00000      0.000   0.000   0.000
    3  3 3py        0.08363   0.00000     -0.000  -0.000   0.000
    3  4 3pz        0.54003   0.00000     -0.000  -0.000   0.000
    3  5 3px        0.37070   0.00000      0.000   0.000   0.000
    3  6 3py        0.49687   0.00000      0.000  -0.000  -0.000
    3  7 3pz        0.17474   0.00000      0.000   0.000   0.000
    3  8 3px        0.23644   0.00000     -0.000  -0.000   0.000
    3  9 3Pdxy      0.10899   0.00000      0.000   0.000   0.000
    3 10 3Pdyz      0.05257   0.00000     -0.000   0.000   0.000
    3 11 3Pdz2      0.01025   0.00000      0.000  -0.000   0.000
    3 12 3Pdxz      0.13359   0.00000     -0.000  -0.000   0.000
    3 13 3Pdx2-y2   0.32477   0.00000     -0.000  -0.000   0.000
    3     Total     3.47011   0.00000     -0.000  -0.000   0.000

    6  1 3s         0.65789   0.00000     -0.000   0.000   0.000
    6  2 3s         0.37129   0.00000      0.000  -0.000   0.000
    6  3 3py        0.12556   0.00000     -0.000   0.000   0.000
    6  4 3pz        0.69659   0.00000     -0.000  -0.000   0.000
    6  5 3px        0.49032   0.00000     -0.000  -0.000   0.000
    6  6 3py        0.47017   0.00000      0.000  -0.000   0.000
    6  7 3pz        0.24234   0.00000     -0.000   0.000   0.000
    6  8 3px        0.24640   0.00000      0.000  -0.000   0.000
    6  9 3Pdxy      0.18251   0.00000      0.000  -0.000   0.000
    6 10 3Pdyz      0.14599   0.00000      0.000   0.000   0.000
    6 11 3Pdz2      0.01129   0.00000      0.000  -0.000  -0.000
    6 12 3Pdxz      0.03706   0.00000      0.000   0.000  -0.000
    6 13 3Pdx2-y2   0.18593   0.00000      0.000   0.000  -0.000
    6     Total     3.86331   0.00000     -0.000  -0.000   0.000

    7  1 3s         0.63192   0.00000     -0.000   0.000  -0.000
    7  2 3s         0.36683   0.00000      0.000  -0.000  -0.000
    7  3 3py        0.36346   0.00000     -0.000   0.000  -0.000
    7  4 3pz        0.49875   0.00000     -0.000   0.000  -0.000
    7  5 3px        0.08173   0.00000      0.000  -0.000  -0.000
    7  6 3py        0.30432   0.00000      0.000   0.000  -0.000
    7  7 3pz        0.20577   0.00000      0.000  -0.000  -0.000
    7  8 3px        0.42380   0.00000     -0.000   0.000   0.000
    7  9 3Pdxy      0.20086   0.00000     -0.000   0.000   0.000
    7 10 3Pdyz      0.14271   0.00000     -0.000   0.000   0.000
    7 11 3Pdz2      0.00972   0.00000     -0.000  -0.000   0.000
    7 12 3Pdxz      0.15605   0.00000     -0.000  -0.000  -0.000
    7 13 3Pdx2-y2   0.23333   0.00000     -0.000  -0.000  -0.000
    7     Total     3.61926   0.00000     -0.000   0.000  -0.000

   12  1 3s         0.56650   0.00000      0.000   0.000  -0.000
   12  2 3s         0.39238   0.00000     -0.000  -0.000  -0.000
   12  3 3py        0.17717   0.00000     -0.000  -0.000  -0.000
   12  4 3pz        0.42714   0.00000      0.000   0.000  -0.000
   12  5 3px        0.31051   0.00000     -0.000  -0.000  -0.000
   12  6 3py        0.43537   0.00000      0.000   0.000   0.000
   12  7 3pz        0.16160   0.00000      0.000  -0.000  -0.000
   12  8 3px        0.33601   0.00000      0.000   0.000  -0.000
   12  9 3Pdxy      0.37317   0.00000     -0.000   0.000  -0.000
   12 10 3Pdyz      0.08367   0.00000      0.000   0.000  -0.000
   12 11 3Pdz2      0.01025   0.00000      0.000  -0.000  -0.000
   12 12 3Pdxz      0.09340   0.00000      0.000   0.000  -0.000
   12 13 3Pdx2-y2   0.16610   0.00000      0.000  -0.000  -0.000
   12     Total     3.53327   0.00000      0.000  -0.000  -0.000

   15  1 3s         0.66586   0.00000      0.000  -0.000  -0.000
   15  2 3s         0.36651   0.00000     -0.000   0.000  -0.000
   15  3 3py       -0.01591   0.00000      0.000   0.000  -0.000
   15  4 3pz        0.51170   0.00000     -0.000  -0.000  -0.000
   15  5 3px        0.39741   0.00000      0.000   0.000  -0.000
   15  6 3py        0.46714   0.00000     -0.000  -0.000   0.000
   15  7 3pz        0.19747   0.00000      0.000   0.000  -0.000
   15  8 3px        0.33824   0.00000     -0.000  -0.000  -0.000
   15  9 3Pdxy      0.14198   0.00000      0.000  -0.000  -0.000
   15 10 3Pdyz      0.12644   0.00000     -0.000   0.000  -0.000
   15 11 3Pdz2      0.01440   0.00000     -0.000   0.000  -0.000
   15 12 3Pdxz      0.12637   0.00000     -0.000  -0.000   0.000
   15 13 3Pdx2-y2   0.30756   0.00000      0.000   0.000  -0.000
   15     Total     3.64517   0.00000      0.000   0.000  -0.000

   17  1 3s         0.72950   0.00000      0.000  -0.000   0.000
   17  2 3s         0.35680   0.00000     -0.000   0.000  -0.000
   17  3 3py        0.09789   0.00000      0.000  -0.000  -0.000
   17  4 3pz        0.62695   0.00000      0.000  -0.000  -0.000
   17  5 3px        0.35921   0.00000     -0.000   0.000  -0.000
   17  6 3py        0.45345   0.00000     -0.000  -0.000  -0.000
   17  7 3pz        0.15260   0.00000     -0.000  -0.000  -0.000
   17  8 3px        0.33236   0.00000      0.000  -0.000  -0.000
   17  9 3Pdxy      0.15078   0.00000      0.000   0.000  -0.000
   17 10 3Pdyz      0.02363   0.00000     -0.000   0.000  -0.000
   17 11 3Pdz2      0.00891   0.00000     -0.000   0.000   0.000
   17 12 3Pdxz      0.12827   0.00000     -0.000  -0.000  -0.000
   17 13 3Pdx2-y2   0.12732   0.00000     -0.000   0.000  -0.000
   17     Total     3.54766   0.00000      0.000  -0.000  -0.000

   19  1 3s         0.86060   0.00000      0.000   0.000   0.000
   19  2 3s         0.31462   0.00000     -0.000   0.000   0.000
   19  3 3py        0.42471   0.00000      0.000   0.000   0.000
   19  4 3pz        0.65957   0.00000      0.000   0.000   0.000
   19  5 3px        0.35089   0.00000     -0.000   0.000  -0.000
   19  6 3py        0.33114   0.00000     -0.000  -0.000  -0.000
   19  7 3pz        0.27046   0.00000     -0.000   0.000   0.000
   19  8 3px        0.35855   0.00000      0.000  -0.000   0.000
   19  9 3Pdxy      0.09335   0.00000     -0.000   0.000   0.000
   19 10 3Pdyz      0.02917   0.00000      0.000  -0.000   0.000
   19 11 3Pdz2      0.01434   0.00000     -0.000  -0.000  -0.000
   19 12 3Pdxz      0.05703   0.00000      0.000  -0.000  -0.000
   19 13 3Pdx2-y2   0.13165   0.00000      0.000  -0.000   0.000
   19     Total     3.89608   0.00000      0.000   0.000   0.000

   20  1 3s         0.54093   0.00000     -0.000  -0.000   0.000
   20  2 3s         0.44378   0.00000      0.000   0.000  -0.000
   20  3 3py        0.31030   0.00000      0.000  -0.000   0.000
   20  4 3pz        0.25491   0.00000     -0.000  -0.000   0.000
   20  5 3px        0.45489   0.00000     -0.000  -0.000   0.000
   20  6 3py        0.38742   0.00000     -0.000  -0.000   0.000
   20  7 3pz        0.42337   0.00000      0.000   0.000   0.000
   20  8 3px        0.27769   0.00000      0.000   0.000   0.000
   20  9 3Pdxy      0.07004   0.00000      0.000  -0.000  -0.000
   20 10 3Pdyz      0.08434   0.00000     -0.000   0.000   0.000
   20 11 3Pdz2      0.05103   0.00000     -0.000  -0.000  -0.000
   20 12 3Pdxz      0.07229   0.00000     -0.000   0.000   0.000
   20 13 3Pdx2-y2   0.04584   0.00000     -0.000   0.000   0.000
   20     Total     3.41684   0.00000     -0.000  -0.000   0.000

   24  1 3s         0.60193   0.00000     -0.000  -0.000  -0.000
   24  2 3s         0.37258   0.00000      0.000  -0.000  -0.000
   24  3 3py        0.26835   0.00000     -0.000  -0.000  -0.000
   24  4 3pz        0.39404   0.00000      0.000   0.000  -0.000
   24  5 3px        0.18539   0.00000      0.000   0.000   0.000
   24  6 3py        0.38398   0.00000      0.000   0.000  -0.000
   24  7 3pz        0.19649   0.00000     -0.000  -0.000   0.000
   24  8 3px        0.35235   0.00000     -0.000  -0.000  -0.000
   24  9 3Pdxy      0.14062   0.00000      0.000  -0.000   0.000
   24 10 3Pdyz      0.14149   0.00000     -0.000   0.000   0.000
   24 11 3Pdz2      0.01051   0.00000     -0.000  -0.000   0.000
   24 12 3Pdxz      0.12255   0.00000      0.000   0.000   0.000
   24 13 3Pdx2-y2   0.33381   0.00000      0.000  -0.000  -0.000
   24     Total     3.50410   0.00000      0.000   0.000   0.000

   28  1 3s         0.43669   0.00000      0.000   0.000   0.000
   28  2 3s         0.37552   0.00000     -0.000   0.000  -0.000
   28  3 3py        0.10541   0.00000     -0.000   0.000  -0.000
   28  4 3pz        0.39223   0.00000      0.000   0.000   0.000
   28  5 3px        0.18660   0.00000     -0.000   0.000   0.000
   28  6 3py        0.40081   0.00000      0.000  -0.000   0.000
   28  7 3pz        0.20547   0.00000      0.000   0.000   0.000
   28  8 3px        0.37654   0.00000      0.000  -0.000   0.000
   28  9 3Pdxy      0.14374   0.00000     -0.000  -0.000   0.000
   28 10 3Pdyz      0.12479   0.00000     -0.000  -0.000   0.000
   28 11 3Pdz2      0.01238   0.00000      0.000   0.000   0.000
   28 12 3Pdxz      0.15763   0.00000      0.000  -0.000   0.000
   28 13 3Pdx2-y2   0.34839   0.00000      0.000   0.000   0.000
   28     Total     3.26622   0.00000      0.000   0.000   0.000

----------------------------------------------------------------
Total              85.05222   0.00000      0.000  -0.000  -0.000


Species: O                   

Atom      Orb        Charge      Spin       Svec
----------------------------------------------------------------
   25  1 2s         1.74244   0.00000     -0.000   0.000   0.000
   25  2 2s         0.06006   0.00000      0.000  -0.000  -0.000
   25  3 2py        1.42456   0.00000      0.000   0.000   0.000
   25  4 2pz        1.55620   0.00000      0.000   0.000   0.000
   25  5 2px        1.58956   0.00000      0.000  -0.000   0.000
   25  6 2py        0.05822   0.00000     -0.000  -0.000  -0.000
   25  7 2pz       -0.00784   0.00000      0.000  -0.000  -0.000
   25  8 2px        0.03028   0.00000     -0.000   0.000   0.000
   25  9 3Pdxy      0.00610   0.00000     -0.000   0.000  -0.000
   25 10 3Pdyz      0.00508   0.00000     -0.000  -0.000  -0.000
   25 11 3Pdz2      0.00171   0.00000      0.000  -0.000  -0.000
   25 12 3Pdxz      0.00400   0.00000      0.000   0.000   0.000
   25 13 3Pdx2-y2   0.00919   0.00000     -0.000  -0.000  -0.000
   25     Total     6.47958   0.00000     -0.000   0.000   0.000

   29  1 2s         1.75681   0.00000     -0.000  -0.000  -0.000
   29  2 2s         0.05539   0.00000      0.000   0.000   0.000
   29  3 2py        1.46352   0.00000     -0.000  -0.000   0.000
   29  4 2pz        1.54717   0.00000     -0.000  -0.000   0.000
   29  5 2px        1.52623   0.00000      0.000   0.000  -0.000
   29  6 2py        0.04842   0.00000     -0.000   0.000   0.000
   29  7 2pz       -0.00022   0.00000     -0.000  -0.000   0.000
   29  8 2px        0.04098   0.00000      0.000  -0.000   0.000
   29  9 3Pdxy      0.00775   0.00000     -0.000   0.000   0.000
   29 10 3Pdyz      0.00429   0.00000      0.000  -0.000  -0.000
   29 11 3Pdz2      0.00185   0.00000      0.000   0.000   0.000
   29 12 3Pdxz      0.00622   0.00000      0.000   0.000   0.000
   29 13 3Pdx2-y2   0.00981   0.00000      0.000  -0.000   0.000
   29     Total     6.46820   0.00000      0.000  -0.000   0.000

----------------------------------------------------------------
Total              98.00000   0.00000      0.000  -0.000  -0.000


siesta: Eigenvalues (eV):
ik =     1
  -23.1003  -23.1003  -22.9441  -22.9441  -22.0472  -22.0472  -21.1381  -21.1381  -20.9134  -20.9134
  -20.1623  -20.1623  -19.3314  -19.3314  -19.1545  -19.1545  -18.5895  -18.5895  -15.3782  -15.3782
  -14.4284  -14.4284  -13.6572  -13.6572  -13.5075  -13.5075  -13.3574  -13.3574  -12.8102  -12.8102
  -12.3279  -12.3279  -12.0705  -12.0705  -11.7173  -11.7173  -11.3953  -11.3953  -11.2944  -11.2944
  -10.7869  -10.7869  -10.7254  -10.7254  -10.0884  -10.0884   -9.8918   -9.8918   -9.6201   -9.6201
   -9.4582   -9.4582   -9.2079   -9.2079   -9.0160   -9.0160   -8.9447   -8.9447   -8.7337   -8.7337
   -8.6320   -8.6320   -8.2966   -8.2966   -8.1894   -8.1894   -8.0391   -8.0391   -7.9263   -7.9263
   -7.7316   -7.7316   -7.5274   -7.5274   -7.2839   -7.2839   -7.2249   -7.2249   -6.8384   -6.8384
   -6.8212   -6.8212   -6.6083   -6.6083   -6.5527   -6.5527   -6.1869   -6.1869   -6.1827   -6.1827
   -6.0302   -6.0302   -5.5798   -5.5798   -5.4998   -5.4998   -4.0998   -4.0998   -3.7972   -3.7972
   -2.9452   -2.9452   -2.5835   -2.5835   -2.2864   -2.2864   -2.1177   -2.1177   -2.0753   -2.0753
   -1.9135   -1.9135   -1.6922   -1.6922   -1.5309   -1.5309   -1.4398   -1.4398   -1.1816   -1.1816
   -1.1271   -1.1271   -0.4497   -0.4497   -0.4327   -0.4327   -0.2592   -0.2592   -0.1521   -0.1520
   -0.1035   -0.1035    0.0302    0.0302    0.2080    0.2080    0.3329    0.3329    0.6891    0.6891
    0.7421    0.7421    0.8679    0.8679    1.0124    1.0124    1.3146    1.3146    1.4061    1.4061
    1.6762    1.6762    1.8598    1.8598    2.1799    2.1799    2.2715    2.2715    2.4576    2.4576
    2.5345    2.5345    2.7540    2.7540    2.8937    2.8937    2.9744    2.9744    3.0509    3.0509
    3.1385    3.1385    3.1593    3.1593    3.4848    3.4848    3.7928    3.7928    3.9009    3.9010
    4.2849    4.2849    4.3119    4.3119    4.4679    4.4679    4.4812    4.4812    4.5743    4.5743
    4.7487    4.7487    4.7846    4.7846    5.0045    5.0045    5.1001    5.1001    5.1919    5.1919
    5.4258    5.4258    5.4901    5.4901    5.8203    5.8203    5.9138    5.9138    6.1261    6.1261
    6.2506    6.2506    6.3214    6.3214    6.4598    6.4598    6.6745    6.6745    6.7644    6.7644
    6.9324    6.9324    6.9766    6.9766    7.0336    7.0336    7.4264    7.4264    7.5157    7.5157
    7.5859    7.5859    7.7193    7.7193    7.8723    7.8723    8.0675    8.0675    8.2214    8.2214
    8.3879    8.3879    8.4851    8.4851    8.6931    8.6931    8.7499    8.7499    8.8251    8.8251
    9.2133    9.2133    9.2820    9.2820    9.3908    9.3908    9.5760    9.5760    9.6981    9.6981
    9.8495    9.8495   10.0357   10.0357   10.1292   10.1292   10.2138   10.2138   10.2377   10.2377
   10.6318   10.6318   10.8249   10.8249   10.9338   10.9338   11.2391   11.2391   11.3308   11.3308
   11.6640   11.6640   11.7936   11.7936   11.9002   11.9002   12.0244   12.0244   12.1071   12.1071
   12.3373   12.3373   12.6209   12.6209   12.8170   12.8170   13.0145   13.0145   13.1100   13.1100
   13.2817   13.2817   13.4526   13.4526   13.7798   13.7798   13.9195   13.9195   14.0338   14.0338
   14.2140   14.2140   14.3084   14.3084   14.9326   14.9326   15.1132   15.1132   15.2026   15.2026
   15.6469   15.6469   15.6841   15.6841   16.1202   16.1202   16.4081   16.4081   16.5092   16.5092
   16.7464   16.7464   17.1428   17.1428   17.3890   17.3890   17.6374   17.6374   18.0919   18.0919
   18.2429   18.2429   18.5358   18.5358   18.7495   18.7495   18.8425   18.8425   19.2606   19.2606
   19.6109   19.6109   19.8178   19.8178   20.0631   20.0631   20.6799   20.6799   21.1005   21.1005
   21.2937   21.2937   21.6786   21.6786   22.1932   22.1932   22.6328   22.6328   22.6859   22.6859
   23.1128   23.1128   23.3746   23.3746   23.8616   23.8616   24.0051   24.0051   24.5089   24.5089
   25.0192   25.0192   25.4621   25.4621   25.6968   25.6968   25.7855   25.7855   26.6003   26.6003
   27.0163   27.0163   27.3653   27.3653   27.9066   27.9066   28.2688   28.2688   28.5357   28.5357
   29.0510   29.0510   29.4078   29.4078   30.8315   30.8315   30.9542   30.9542   31.3096   31.3096
   31.3859   31.3859   31.4949   31.4949   31.8610   31.8610   32.2541   32.2541   33.1314   33.1314
   33.5964   33.5964   33.9616   33.9616   34.6011   34.6011   34.6771   34.6771   35.7686   35.7686
   36.0755   36.0755   36.0896   36.0896   36.5728   36.5728   36.8620   36.8620   37.3505   37.3505
   37.5478   37.5478   37.6497   37.6497   38.6602   38.6602   39.7000   39.7000   39.8022   39.8022
   40.1059   40.1059   40.1875   40.1875   40.7162   40.7162   40.8986   40.8986   41.8137   41.8137
   41.9939   41.9939   42.7247   42.7247   42.8035   42.8035   43.3347   43.3347   43.7109   43.7109
   43.8298   43.8298   43.8386   43.8386   44.4449   44.4449   44.6577   44.6577   45.3501   45.3501
   45.5739   45.5739   46.0661   46.0661   46.2498   46.2498   46.9363   46.9363   47.2053   47.2053
   47.8144   47.8144   47.9246   47.9246   48.5843   48.5843   49.0820   49.0820   49.1885   49.1885
   49.6834   49.6834   49.9544   49.9544   49.9805   49.9805   50.4393   50.4393   50.9928   50.9928
   51.2662   51.2662   51.4114   51.4114   52.8023   52.8023   53.5162   53.5162   54.0842   54.0842
   54.4273   54.4273   55.5439   55.5439   55.8655   55.8655   56.3044   56.3044   57.3376   57.3376
   57.4299   57.4299   58.9601   58.9601   59.0983   59.0983   59.3743   59.3743   59.7665   59.7665
   61.2810   61.2810   61.2931   61.2931   62.6874   62.6874   63.1243   63.1243   63.5843   63.5843
   63.9673   63.9673   64.9722   64.9722   66.0118   66.0118   66.5740   66.5740   67.4853   67.4853
   68.1871   68.1871   69.2498   69.2498   70.0096   70.0096   70.7536   70.7536   71.8202   71.8202
   73.3040   73.3040   75.8250   75.8250   86.5234   86.5234   88.0893   88.0893   92.6230   92.6230
   93.5169   93.5169   96.3714   96.3714   97.3892   97.3892  100.7898  100.7899  101.1018  101.1018
  103.7030  103.7030  104.2343  104.2343  117.0341  117.0341  123.4914  123.4914  125.1397  125.1397
  142.6804  142.6804  147.9664  147.9664
siesta: Fermi energy =      -3.948512 eV

siesta: Program's energy decomposition (eV):
siesta: Ebs     =     -1114.096544
siesta: Eions   =      3553.971015
siesta: Ena     =       377.494157
siesta: Ekin    =      2755.590568
siesta: Enl     =     -2535.293302
siesta: Eso     =        -0.004763
siesta: Edftu   =         0.000000
siesta: DEna    =        37.643945
siesta: DUscf   =        13.822478
siesta: DUext   =         0.000000
siesta: Exc     =     -1094.536035
siesta: eta*DQ  =         0.000000
siesta: Emadel  =         0.000000
siesta: Emeta   =         0.000000
siesta: Emolmec =         0.000000
siesta: Ekinion =         0.000000
siesta: Eharris =     -3999.253967
siesta: Etot    =     -3999.253967
siesta: FreeEng =     -3999.255998

siesta: Final energy (eV):
siesta:  Band Struct. =   -1114.096544
siesta:       Kinetic =    2755.590568
siesta:       Hartree =    8055.315728
siesta:       Edftu   =       0.000000
siesta:       Eso     =      -0.004763
siesta:    Ext. field =       0.000000
siesta:   Exch.-corr. =   -1094.536035
siesta:  Ion-electron =  -18559.641279
siesta:       Ion-ion =    4844.021814
siesta:       Ekinion =       0.000000
siesta:         Total =   -3999.253967
siesta:         Fermi =      -3.948512

siesta: Atomic forces (eV/Ang):
siesta:      1   -0.045445    0.019470    0.000006
siesta:      2   -0.030960   -0.094823   -0.000022
siesta:      3    0.030884    0.049057   -0.000041
siesta:      4   -0.057456    0.006962    0.000028
siesta:      5   -0.014847   -0.035927   -0.000039
siesta:      6    0.145363   -0.010083    0.000165
siesta:      7   -0.900012    0.224901    0.000088
siesta:      8    0.255752   -1.036243   -0.000456
siesta:      9    0.106072    0.679967    0.000587
siesta:     10    0.118040   -0.115535    0.000058
siesta:     11    0.035701    0.225178   -0.000180
siesta:     12    0.575147   -0.048617   -0.000136
siesta:     13   -0.159350   -0.233927   -0.000038
siesta:     14   -0.132701   -0.207747    0.000135
siesta:     15    0.035160    0.020567   -0.000067
siesta:     16    0.082510    0.060698    0.007758
siesta:     17    0.061006   -0.083049   -0.039040
siesta:     18   -0.072771    0.094326    0.008111
siesta:     19   -0.129802   -0.019567   -0.041735
siesta:     20    0.047039   -0.030968    0.022043
siesta:     21   -0.143666    0.176145    0.072162
siesta:     22   -0.038603    0.032156    0.028845
siesta:     23    0.066226    0.108278   -0.045007
siesta:     24    0.600758    0.027049   -0.026447
siesta:     25    0.400215    2.261973    0.003216
siesta:     26   -0.101016    0.836357    0.007046
siesta:     27   -0.154540   -1.111122    0.002909
siesta:     28   -0.439691   -0.039502   -0.000772
siesta:     29   -2.236894    1.168642   -0.001060
siesta:     30    0.128075    0.280180    0.007815
siesta: ----------------------------------------
siesta:    Tot   -1.969810    3.204797    0.005930

siesta: Stress tensor (static) (eV/Ang**3):
siesta:    -0.001066    0.000084    0.000034
siesta:     0.000084   -0.001184   -0.000030
siesta:     0.000034   -0.000030   -0.000135

siesta: Cell volume =       4016.776971 Ang**3

siesta: Pressure (static):
siesta:                Solid            Molecule  Units
siesta:           0.00000866          0.00000781  Ry/Bohr**3
siesta:           0.00079503          0.00071740  eV/Ang**3
siesta:           1.27379971          1.14940649  kBar
(Free)E+ p_basis*V_orbitals  =       -3978.127913
(Free)Eharris+ p_basis*V_orbitals  =       -3978.127913
     spin moment: S , {S} =    0.00000   0.00000  -0.00000  -0.00000

siesta: Electric dipole (a.u.)  =   -0.121572    2.923880   -0.012951
siesta: Electric dipole (Debye) =   -0.309005    7.431767   -0.032918

cite: Please see "AT.bib" for an exhaustive BiBTeX file.
cite: Please clearly indicate Siesta version in published work: v4.1.5-1-g384057250
cite: This calculation has made use of the following articles
cite: which are encouraged to be cited in a published work.
        Primary SIESTA paper
          DOI: www.doi.org/10.1088/0953-8984/14/11/302
        Spin-orbit coupling (on-site approximation)
          DOI: www.doi.org/10.1088/0953-8984/19/19/489001


WARNING: alloc-realloc-dealloc name mismatch
         Name: atomlist isa
         Size:              -120. Bytes
         Node:     0
         Subsequent mismatches will not be reported
>> End of run:  22-MAY-2023   9:51:49
Job completed
