Siesta Version  : v4.1.5-1-g384057250
Architecture    : gcc
Compiler version: GNU Fortran (Debian 12.2.0-14) 12.2.0
Compiler flags  : mpifort -O2 -fPIC -ftree-vectorize -fallow-argument-mismatch
PP flags        : -DFC_HAVE_ABORT -DMPI -DSIESTA__FLOOK -DSIESTA__METIS -DSIESTA__MUMPS -DCDF -DNCDF -DNCDF_4 -DNCDF_PARALLEL -DSIESTA__MRRR -DSIESTA__ELPA
Libraries       : libncdf.a libfdict.a  -lflookall -ldl -lnetcdff -lnetcdf -lz -lscalapack-openmpi -lopenblas -lmetis -lzmumps -lcmumps -ldmumps -lmumps_common -lpord -lsmumps -lesmumps -lscotch -lscotcherr -fopenmp -lelpa
PARALLEL version
NetCDF support
NetCDF-4 support
NetCDF-4 MPI-IO support
METIS ordering support
Lua support

* Running on 32 nodes in parallel
>> Start of run:  16-OCT-2023  21:15:31

                           ***********************       
                           *  WELCOME TO SIESTA  *       
                           ***********************       

reinit: Reading from standard input
reinit: Dumped input in INPUT_TMP.45203
************************** Dump of input data file ****************************
# mpirun -np 4 siesta-4.1.5 < AT.fdf > AT.out &
SystemLabel      AT
NumberOfAtoms    30
NumberOfSpecies  4
%block ChemicalSpeciesLabel
    1    1  H
    2    7  N
    3   14  Si
    4    8  O
%endblock ChemicalSpeciesLabel
############################################
# This overrides Defaults.fdf configuration
############################################
MD.TypeOfRun                Verlet # CG, Verlet
MD.Steps                    0
MaxSCFIterations            300
AtomicCoordinatesFormat NotScaledCartesianAng
%block AtomicCoordinatesAndAtomicSpecies
    2.28494382 -5.19529124 0.0  1  1  H
    1.37433094 -4.6647107 0.0  2  2  N
    -0.21830245 -5.49458215 0.0  3  3  Si
    -0.17484108 -6.98516892 0.0  1  4  H
    -1.66171682 -4.58600741 0.0  2  5  N
    -1.09026419 -2.87456374 0.0  3  6  Si
    -1.53038332 -0.70765692 0.0  3  7  Si
    -3.14415959 -0.09186471 0.0  2  8  N
    -3.40268075 0.95848335 0.0  1  9  H
    -3.95073599 -0.76720972 0.0  1  10  H
    -0.17836637 0.41349951 0.0  2  11  N
    1.49520211 -0.0473996 0.0  3  12  Si
    2.45603905 1.10727302 0.0  1  13  H
    2.30451743 -1.58574382 0.0  2  14  N
    1.10725559 -2.84610319 0.0  3  15  Si
    -0.009854204928056665 11.707541647326408 0.0  1  16  H
    -0.8185648849280567 11.015335767326409 0.0  2  17  N
    -2.4751547249280565 11.728455867326408 0.0  3  18  Si
    -2.3782895549280565 13.239181077326407 0.0  1  19  H
    -4.201311074928056 10.385407737326407 0.0  3  20  Si
    -6.555765324928057 10.37742080732641 0.0  3  21  Si
    -7.118183444928057 11.111910457326408 -1.20183078  1  22  H
    -6.855579074928057 8.898329677326409 -0.08618332  1  23  H
    -7.118295904928057 10.942253267326407 1.28814761  1  24  H
    -3.271920434928057 8.314836507326408 0.0  3  25  Si
    -4.221388794928057 7.026300377326407 0.0  4  26  O
    -1.4809755649280567 8.141101037326408 0.0  2  27  N
    -1.1499842049280566 7.108744057326408 0.0  1  28  H
    -0.1725173449280567 9.335647457326408 0.0  3  29  Si
    1.393419585071943 9.068400607326408 0.0  4  30  O
%endblock AtomicCoordinatesAndAtomicSpecies
%include ../../../../Defaults.fdf
************************** End of input data file *****************************

reinit: -----------------------------------------------------------------------
reinit: System Name: 
reinit: -----------------------------------------------------------------------
reinit: System Label: AT
reinit: -----------------------------------------------------------------------

initatom: Reading input for the pseudopotentials and atomic orbitals ----------
Species number:   1 Atomic number:    1 Label: H
Species number:   2 Atomic number:    7 Label: N
Species number:   3 Atomic number:   14 Label: Si
Species number:   4 Atomic number:    8 Label: O

Ground state valence configuration:   1s01
Reading pseudopotential information in formatted form from H.psf

Pseudopotential generated from a relativistic atomic calculation

Valence configuration for pseudopotential generation:
1s( 1.00) rc: 0.01
2p( 0.00) rc: 0.60
3d( 0.00) rc: 1.99
4f( 0.00) rc: 2.49
Ground state valence configuration:   2s02  2p03
Reading pseudopotential information in formatted form from N.psf

Pseudopotential generated from a relativistic atomic calculation

Valence configuration for pseudopotential generation:
2s( 2.00) rc: 0.94
2p( 3.00) rc: 0.59
3d( 0.00) rc: 3.46
4f( 0.00) rc: 2.47
Ground state valence configuration:   3s02  3p02
Reading pseudopotential information in formatted form from Si.psf

Pseudopotential generated from a relativistic atomic calculation

Valence configuration for pseudopotential generation:
3s( 2.00) rc: 1.67
3p( 2.00) rc: 2.04
3d( 0.00) rc: 2.89
4f( 0.00) rc: 2.49
Ground state valence configuration:   2s02  2p04
Reading pseudopotential information in formatted form from O.psf

Pseudopotential generated from a relativistic atomic calculation

Valence configuration for pseudopotential generation:
2s( 2.00) rc: 0.45
2p( 4.00) rc: 0.92
3d( 0.00) rc: 2.24
4f( 0.00) rc: 0.25
For H, standard SIESTA heuristics set lmxkb to 2
 (one more than the basis l, including polarization orbitals).
Use PS.lmax or PS.KBprojectors blocks to override.
For N, standard SIESTA heuristics set lmxkb to 3
 (one more than the basis l, including polarization orbitals).
Use PS.lmax or PS.KBprojectors blocks to override.
For Si, standard SIESTA heuristics set lmxkb to 3
 (one more than the basis l, including polarization orbitals).
Use PS.lmax or PS.KBprojectors blocks to override.
For O, standard SIESTA heuristics set lmxkb to 3
 (one more than the basis l, including polarization orbitals).
Use PS.lmax or PS.KBprojectors blocks to override.

<basis_specs>
===============================================================================
H                    Z=   1    Mass=  1.0100        Charge= 0.17977+309
Lmxo=0 Lmxkb= 2    BasisType=split      Semic=F
L=0  Nsemic=0  Cnfigmx=1
          i=1  nzeta=2  polorb=1  (1s)
            splnorm:   0.62000    
               vcte:    0.0000    
               rinn:    0.0000    
               qcoe:    0.0000    
               qyuk:    0.0000    
               qwid:   0.10000E-01
                rcs:    0.0000      0.0000    
            lambdas:    1.0000      1.0000    
-------------------------------------------------------------------------------
L=0  Nkbl=1  erefs: 0.17977+309
L=1  Nkbl=1  erefs: 0.17977+309
L=2  Nkbl=1  erefs: 0.17977+309
===============================================================================
</basis_specs>

atom: Called for H                     (Z =   1)

read_vps: Pseudopotential generation method:
read_vps: ATM4.2.7  Troullier-Martins                       
Valence charge for ps generation:    1.00000

xc_check: Exchange-correlation functional:
xc_check: GGA Perdew, Burke & Ernzerhof 1996
V l=0 = -2*Zval/r beyond r=  0.0098
V l=1 = -2*Zval/r beyond r=  0.5817
V l=2 = -2*Zval/r beyond r=  1.9372
All V_l potentials equal beyond r=  1.9372
This should be close to max(r_c) in ps generation
All pots = -2*Zval/r beyond r=  1.9372

VLOCAL1: 99.0% of the norm of Vloc inside     11.567 Ry
VLOCAL1: 99.9% of the norm of Vloc inside     26.362 Ry
atom: Maximum radius for 4*pi*r*r*local-pseudopot. charge    2.25106
atom: Maximum radius for r*vlocal+2*Zval:    1.91306
GHOST: No ghost state for L =  0
GHOST: No ghost state for L =  1
GHOST: No ghost state for L =  2

KBgen: Kleinman-Bylander projectors: 
   l= 0   rc=  2.036604   el= -0.477180   Ekb= -6.081590   kbcos= -0.277285
   l= 1   rc=  2.195416   el=  0.001076   Ekb= -0.926943   kbcos= -0.034643
   l= 2   rc=  2.251056   el=  0.002010   Ekb= -0.130941   kbcos= -0.009788

KBgen: Total number of Kleinman-Bylander projectors:    9
atom: -------------------------------------------------------------------------

atom: SANKEY-TYPE ORBITALS:
atom: Selected multiple-zeta basis: split     

SPLIT: Orbitals with angular momentum L= 0

SPLIT: Basis orbitals for state 1s

SPLIT: PAO cut-off radius determined from an
SPLIT: energy shift=  0.002000 Ry

   izeta = 1
                 lambda =    1.000000
                     rc =    6.518340
                 energy =   -0.475305
                kinetic =    0.912139
    potential(screened) =   -1.387444
       potential(ionic) =   -1.907295

   izeta = 2
                 rmatch =    2.141150
              splitnorm =    0.620000
                 energy =    0.566467
                kinetic =    3.772856
    potential(screened) =   -3.206389
       potential(ionic) =   -3.759093

POLgen: Perturbative polarization orbital with L=  1

POLgen: Polarization orbital for state 1s

   izeta = 1
                     rc =    6.518340
                 energy =    0.533861
                kinetic =    1.121086
    potential(screened) =   -0.587225
       potential(ionic) =   -1.053027
atom: Total number of Sankey-type orbitals:  5

atm_pop: Valence configuration (for local Pseudopot. screening):
 1s( 1.00)                                                            
Vna: chval, zval:    1.00000   1.00000

Vna:  Cut-off radius for the neutral-atom potential:   6.518340

atom: _________________________________________________________________________

<basis_specs>
===============================================================================
N                    Z=   7    Mass=  14.010        Charge= 0.17977+309
Lmxo=1 Lmxkb= 3    BasisType=split      Semic=F
L=0  Nsemic=0  Cnfigmx=2
          i=1  nzeta=2  polorb=0  (2s)
            splnorm:   0.28000    
               vcte:    0.0000    
               rinn:    0.0000    
               qcoe:    0.0000    
               qyuk:    0.0000    
               qwid:   0.10000E-01
                rcs:    0.0000      0.0000    
            lambdas:    1.0000      1.0000    
L=1  Nsemic=0  Cnfigmx=2
          i=1  nzeta=2  polorb=1  (2p)
            splnorm:   0.28000    
               vcte:    0.0000    
               rinn:    0.0000    
               qcoe:    0.0000    
               qyuk:    0.0000    
               qwid:   0.10000E-01
                rcs:    0.0000      0.0000    
            lambdas:    1.0000      1.0000    
-------------------------------------------------------------------------------
L=0  Nkbl=1  erefs: 0.17977+309
L=1  Nkbl=1  erefs: 0.17977+309
L=2  Nkbl=1  erefs: 0.17977+309
L=3  Nkbl=1  erefs: 0.17977+309
===============================================================================
</basis_specs>

atom: Called for N                     (Z =   7)

read_vps: Pseudopotential generation method:
read_vps: ATM4.2.7  Troullier-Martins                       
Valence charge for ps generation:    5.00000

xc_check: Exchange-correlation functional:
xc_check: GGA Perdew, Burke & Ernzerhof 1996
V l=0 = -2*Zval/r beyond r=  1.2889
V l=1 = -2*Zval/r beyond r=  1.2889
V l=2 = -2*Zval/r beyond r=  3.4178
V l=3 = -2*Zval/r beyond r=  2.4084
All V_l potentials equal beyond r=  3.3753
This should be close to max(r_c) in ps generation
All pots = -2*Zval/r beyond r=  3.4178

VLOCAL1: 99.0% of the norm of Vloc inside      3.810 Ry
VLOCAL1: 99.9% of the norm of Vloc inside      8.683 Ry
atom: Maximum radius for 4*pi*r*r*local-pseudopot. charge    4.02088
atom: Maximum radius for r*vlocal+2*Zval:    3.54838
GHOST: No ghost state for L =  0
GHOST: No ghost state for L =  1
GHOST: No ghost state for L =  2
GHOST: No ghost state for L =  3

KBgen: Kleinman-Bylander projectors: 
   l= 0   rc=  3.417763   el= -1.365098   Ekb= -4.433130   kbcos= -0.707855
   l= 1   rc=  3.375302   el= -0.521201   Ekb=-13.264039   kbcos= -0.535594
   l= 2   rc=  3.872880   el=  0.001991   Ekb= -0.641094   kbcos= -0.062456
   l= 3   rc=  3.970931   el=  0.003093   Ekb= -0.474517   kbcos= -0.018236

KBgen: Total number of Kleinman-Bylander projectors:   16
atom: -------------------------------------------------------------------------

atom: SANKEY-TYPE ORBITALS:
atom: Selected multiple-zeta basis: split     

SPLIT: Orbitals with angular momentum L= 0

SPLIT: Basis orbitals for state 2s

SPLIT: PAO cut-off radius determined from an
SPLIT: energy shift=  0.002000 Ry

   izeta = 1
                 lambda =    1.000000
                     rc =    4.730425
                 energy =   -1.363399
                kinetic =    1.245246
    potential(screened) =   -2.608645
       potential(ionic) =   -8.121105

   izeta = 2
                 rmatch =    2.531849
              splitnorm =    0.280000
                 energy =   -0.959908
                kinetic =    2.409435
    potential(screened) =   -3.369343
       potential(ionic) =   -9.427975

SPLIT: Orbitals with angular momentum L= 1

SPLIT: Basis orbitals for state 2p

SPLIT: PAO cut-off radius determined from an
SPLIT: energy shift=  0.002000 Ry

   izeta = 1
                 lambda =    1.000000
                     rc =    5.924108
                 energy =   -0.519262
                kinetic =    3.672940
    potential(screened) =   -4.192202
       potential(ionic) =   -9.518354

   izeta = 2
                 rmatch =    2.531849
              splitnorm =    0.280000
                 energy =   -0.104258
                kinetic =    6.807538
    potential(screened) =   -6.911796
       potential(ionic) =  -13.149920

POLgen: Perturbative polarization orbital with L=  2

POLgen: Polarization orbital for state 2p

   izeta = 1
                     rc =    5.924108
                 energy =    1.427508
                kinetic =    2.872379
    potential(screened) =   -1.444871
       potential(ionic) =   -5.563644
atom: Total number of Sankey-type orbitals: 13

atm_pop: Valence configuration (for local Pseudopot. screening):
 2s( 2.00)                                                            
 2p( 3.00)                                                            
Vna: chval, zval:    5.00000   5.00000

Vna:  Cut-off radius for the neutral-atom potential:   5.924108

atom: _________________________________________________________________________

<basis_specs>
===============================================================================
Si                   Z=  14    Mass=  28.090        Charge= 0.17977+309
Lmxo=1 Lmxkb= 3    BasisType=split      Semic=F
L=0  Nsemic=0  Cnfigmx=3
          i=1  nzeta=2  polorb=0  (3s)
            splnorm:   0.28000    
               vcte:    0.0000    
               rinn:    0.0000    
               qcoe:    0.0000    
               qyuk:    0.0000    
               qwid:   0.10000E-01
                rcs:    0.0000      0.0000    
            lambdas:    1.0000      1.0000    
L=1  Nsemic=0  Cnfigmx=3
          i=1  nzeta=2  polorb=1  (3p)
            splnorm:   0.28000    
               vcte:    0.0000    
               rinn:    0.0000    
               qcoe:    0.0000    
               qyuk:    0.0000    
               qwid:   0.10000E-01
                rcs:    0.0000      0.0000    
            lambdas:    1.0000      1.0000    
-------------------------------------------------------------------------------
L=0  Nkbl=1  erefs: 0.17977+309
L=1  Nkbl=1  erefs: 0.17977+309
L=2  Nkbl=1  erefs: 0.17977+309
L=3  Nkbl=1  erefs: 0.17977+309
===============================================================================
</basis_specs>

atom: Called for Si                    (Z =  14)

read_vps: Pseudopotential generation method:
read_vps: ATM4.2.7  Troullier-Martins                       
Valence charge for ps generation:    4.00000

xc_check: Exchange-correlation functional:
xc_check: GGA Perdew, Burke & Ernzerhof 1996
V l=0 = -2*Zval/r beyond r=  2.7826
V l=1 = -2*Zval/r beyond r=  2.7826
V l=2 = -2*Zval/r beyond r=  2.9253
V l=3 = -2*Zval/r beyond r=  2.7826
All V_l potentials equal beyond r=  2.8530
This should be close to max(r_c) in ps generation
All pots = -2*Zval/r beyond r=  2.9253

VLOCAL1: 99.0% of the norm of Vloc inside      5.333 Ry
VLOCAL1: 99.9% of the norm of Vloc inside     12.154 Ry
atom: Maximum radius for 4*pi*r*r*local-pseudopot. charge    3.39869
atom: Maximum radius for r*vlocal+2*Zval:    2.96205
GHOST: No ghost state for L =  0
GHOST: No ghost state for L =  1
GHOST: No ghost state for L =  2
GHOST: No ghost state for L =  3

KBgen: Kleinman-Bylander projectors: 
   l= 0   rc=  3.075247   el= -0.794092   Ekb=  5.879390   kbcos=  0.167461
   l= 1   rc=  3.153101   el= -0.300068   Ekb=  2.642817   kbcos=  0.058301
   l= 2   rc=  3.273594   el=  0.001958   Ekb= -1.185135   kbcos= -0.104411
   l= 3   rc=  3.232927   el=  0.003046   Ekb= -0.497174   kbcos= -0.015889

KBgen: Total number of Kleinman-Bylander projectors:   16
atom: -------------------------------------------------------------------------

atom: SANKEY-TYPE ORBITALS:
atom: Selected multiple-zeta basis: split     

SPLIT: Orbitals with angular momentum L= 0

SPLIT: Basis orbitals for state 3s

SPLIT: PAO cut-off radius determined from an
SPLIT: energy shift=  0.002000 Ry

   izeta = 1
                 lambda =    1.000000
                     rc =    6.429618
                 energy =   -0.792283
                kinetic =    0.525293
    potential(screened) =   -1.317576
       potential(ionic) =   -3.744923

   izeta = 2
                 rmatch =    3.998416
              splitnorm =    0.280000
                 energy =   -0.583081
                kinetic =    1.069570
    potential(screened) =   -1.652651
       potential(ionic) =   -4.235185

SPLIT: Orbitals with angular momentum L= 1

SPLIT: Basis orbitals for state 3p

SPLIT: PAO cut-off radius determined from an
SPLIT: energy shift=  0.002000 Ry

   izeta = 1
                 lambda =    1.000000
                     rc =    8.464845
                 energy =   -0.298236
                kinetic =    0.785360
    potential(screened) =   -1.083596
       potential(ionic) =   -3.273779

   izeta = 2
                 rmatch =    4.587816
              splitnorm =    0.280000
                 energy =   -0.131871
                kinetic =    1.403687
    potential(screened) =   -1.535557
       potential(ionic) =   -4.015310

POLgen: Perturbative polarization orbital with L=  2

POLgen: Polarization orbital for state 3p

   izeta = 1
                     rc =    8.464845
                 energy =    0.321949
                kinetic =    1.055677
    potential(screened) =   -0.733728
       potential(ionic) =   -2.672950
atom: Total number of Sankey-type orbitals: 13

atm_pop: Valence configuration (for local Pseudopot. screening):
 3s( 2.00)                                                            
 3p( 2.00)                                                            
Vna: chval, zval:    4.00000   4.00000

Vna:  Cut-off radius for the neutral-atom potential:   8.464845

atom: _________________________________________________________________________

<basis_specs>
===============================================================================
O                    Z=   8    Mass=  16.000        Charge= 0.17977+309
Lmxo=1 Lmxkb= 3    BasisType=split      Semic=F
L=0  Nsemic=0  Cnfigmx=2
          i=1  nzeta=2  polorb=0  (2s)
            splnorm:   0.28000    
               vcte:    0.0000    
               rinn:    0.0000    
               qcoe:    0.0000    
               qyuk:    0.0000    
               qwid:   0.10000E-01
                rcs:    0.0000      0.0000    
            lambdas:    1.0000      1.0000    
L=1  Nsemic=0  Cnfigmx=2
          i=1  nzeta=2  polorb=1  (2p)
            splnorm:   0.28000    
               vcte:    0.0000    
               rinn:    0.0000    
               qcoe:    0.0000    
               qyuk:    0.0000    
               qwid:   0.10000E-01
                rcs:    0.0000      0.0000    
            lambdas:    1.0000      1.0000    
-------------------------------------------------------------------------------
L=0  Nkbl=1  erefs: 0.17977+309
L=1  Nkbl=1  erefs: 0.17977+309
L=2  Nkbl=1  erefs: 0.17977+309
L=3  Nkbl=1  erefs: 0.17977+309
===============================================================================
</basis_specs>

atom: Called for O                     (Z =   8)

read_vps: Pseudopotential generation method:
read_vps: ATM4.2.7  Troullier-Martins                       
Valence charge for ps generation:    6.00000

xc_check: Exchange-correlation functional:
xc_check: GGA Perdew, Burke & Ernzerhof 1996
V l=0 = -2*Zval/r beyond r=  1.1000
V l=1 = -2*Zval/r beyond r=  1.1000
V l=2 = -2*Zval/r beyond r=  2.2154
V l=3 = -2*Zval/r beyond r=  1.1000
All V_l potentials equal beyond r=  2.2154
This should be close to max(r_c) in ps generation
All pots = -2*Zval/r beyond r=  2.2154

VLOCAL1: 99.0% of the norm of Vloc inside      8.845 Ry
VLOCAL1: 99.9% of the norm of Vloc inside     20.157 Ry
atom: Maximum radius for 4*pi*r*r*local-pseudopot. charge    2.67231
atom: Maximum radius for r*vlocal+2*Zval:    2.32897
GHOST: No ghost state for L =  0
GHOST: No ghost state for L =  1
GHOST: No ghost state for L =  2
GHOST: No ghost state for L =  3

KBgen: Kleinman-Bylander projectors: 
   l= 0   rc=  2.243238   el= -1.759686   Ekb=**********   kbcos= -0.171774
   l= 1   rc=  2.328968   el= -0.663873   Ekb=-14.506792   kbcos= -0.519897
   l= 2   rc=  2.573941   el=  0.002031   Ekb= -1.137373   kbcos= -0.019581
   l= 3   rc=  2.606321   el=  0.003153   Ekb= -1.013546   kbcos= -0.003122

KBgen: Total number of Kleinman-Bylander projectors:   16
atom: -------------------------------------------------------------------------

atom: SANKEY-TYPE ORBITALS:
atom: Selected multiple-zeta basis: split     

SPLIT: Orbitals with angular momentum L= 0

SPLIT: Basis orbitals for state 2s

SPLIT: PAO cut-off radius determined from an
SPLIT: energy shift=  0.002000 Ry

   izeta = 1
                 lambda =    1.000000
                     rc =    4.243912
                 energy =   -1.758270
                kinetic =    3.286084
    potential(screened) =   -5.044353
       potential(ionic) =  -12.921184

   izeta = 2
                 rmatch =    2.187845
              splitnorm =    0.280000
                 energy =   -0.885018
                kinetic =    8.134434
    potential(screened) =   -9.019452
       potential(ionic) =  -17.710645

SPLIT: Orbitals with angular momentum L= 1

SPLIT: Basis orbitals for state 2p

SPLIT: PAO cut-off radius determined from an
SPLIT: energy shift=  0.002000 Ry

   izeta = 1
                 lambda =    1.000000
                     rc =    5.314825
                 energy =   -0.661986
                kinetic =    4.917472
    potential(screened) =   -5.579458
       potential(ionic) =  -13.236259

   izeta = 2
                 rmatch =    2.160663
              splitnorm =    0.280000
                 energy =   -0.068760
                kinetic =    9.183374
    potential(screened) =   -9.252135
       potential(ionic) =  -18.274251

POLgen: Perturbative polarization orbital with L=  2

POLgen: Polarization orbital for state 2p

   izeta = 1
                     rc =    5.314825
                 energy =    1.970580
                kinetic =    3.886128
    potential(screened) =   -1.915547
       potential(ionic) =   -7.749584
atom: Total number of Sankey-type orbitals: 13

atm_pop: Valence configuration (for local Pseudopot. screening):
 2s( 2.00)                                                            
 2p( 4.00)                                                            
Vna: chval, zval:    6.00000   6.00000

Vna:  Cut-off radius for the neutral-atom potential:   5.314825

atom: _________________________________________________________________________

prinput: Basis input ----------------------------------------------------------

PAO.BasisType split     

%block ChemicalSpeciesLabel
    1    1 H                       # Species index, atomic number, species label
    2    7 N                       # Species index, atomic number, species label
    3   14 Si                      # Species index, atomic number, species label
    4    8 O                       # Species index, atomic number, species label
%endblock ChemicalSpeciesLabel

%block PAO.Basis                 # Define Basis set
H                     1                    # Species label, number of l-shells
 n=1   0   2 P   1                   # n, l, Nzeta, Polarization, NzetaPol
   6.518      2.141   
   1.000      1.000   
N                     2                    # Species label, number of l-shells
 n=2   0   2                         # n, l, Nzeta 
   4.730      2.532   
   1.000      1.000   
 n=2   1   2 P   1                   # n, l, Nzeta, Polarization, NzetaPol
   5.924      2.532   
   1.000      1.000   
Si                    2                    # Species label, number of l-shells
 n=3   0   2                         # n, l, Nzeta 
   6.430      3.998   
   1.000      1.000   
 n=3   1   2 P   1                   # n, l, Nzeta, Polarization, NzetaPol
   8.465      4.588   
   1.000      1.000   
O                     2                    # Species label, number of l-shells
 n=2   0   2                         # n, l, Nzeta 
   4.244      2.188   
   1.000      1.000   
 n=2   1   2 P   1                   # n, l, Nzeta, Polarization, NzetaPol
   5.315      2.161   
   1.000      1.000   
%endblock PAO.Basis

prinput: ----------------------------------------------------------------------

Dumping basis to NetCDF file H.ion.nc
Dumping basis to NetCDF file N.ion.nc
Dumping basis to NetCDF file Si.ion.nc
Dumping basis to NetCDF file O.ion.nc
coor:   Atomic-coordinates input format  =     Cartesian coordinates
coor:                                          (in Angstroms)

siesta: Atomic coordinates (Bohr) and species
siesta:      4.31792  -9.81768   0.00000  1        1
siesta:      2.59711  -8.81503   0.00000  2        2
siesta:     -0.41253 -10.38326   0.00000  3        3
siesta:     -0.33040 -13.20006   0.00000  1        4
siesta:     -3.14019  -8.66630   0.00000  2        5
siesta:     -2.06030  -5.43214   0.00000  3        6
siesta:     -2.89201  -1.33728   0.00000  3        7
siesta:     -5.94160  -0.17360   0.00000  2        8
siesta:     -6.43014   1.81127   0.00000  1        9
siesta:     -7.46581  -1.44982   0.00000  1       10
siesta:     -0.33706   0.78140   0.00000  2       11
siesta:      2.82552  -0.08957   0.00000  3       12
siesta:      4.64124   2.09244   0.00000  1       13
siesta:      4.35491  -2.99662   0.00000  2       14
siesta:      2.09241  -5.37836   0.00000  3       15
siesta:     -0.01862  22.12406   0.00000  1       16
siesta:     -1.54686  20.81598   0.00000  2       17
siesta:     -4.67737  22.16358   0.00000  3       18
siesta:     -4.49432  25.01844   0.00000  1       19
siesta:     -7.93933  19.62558   0.00000  3       20
siesta:    -12.38861  19.61049   0.00000  3       21
siesta:    -13.45142  20.99848  -2.27113  1       22
siesta:    -12.95517  16.81541  -0.16286  1       23
siesta:    -13.45164  20.67787   2.43425  1       24
siesta:     -6.18304  15.71277   0.00000  3       25
siesta:     -7.97727  13.27779   0.00000  4       26
siesta:     -2.79864  15.38446   0.00000  2       27
siesta:     -2.17316  13.43358   0.00000  1       28
siesta:     -0.32601  17.64182   0.00000  3       29
siesta:      2.63318  17.13680   0.00000  4       30

siesta: Automatic unit cell vectors (Ang):
siesta:   18.710747    0.000000    0.000000
siesta:    0.000000   29.835368    0.000000
siesta:    0.000000    0.000000   10.327559

siesta: System type = molecule  

initatomlists: Number of atoms, orbitals, and projectors:     30   302   403

siesta: ******************** Simulation parameters ****************************
siesta:
siesta: The following are some of the parameters of the simulation.
siesta: A complete list of the parameters used, including default values,
siesta: can be found in file out.fdf
siesta:
redata: Spin configuration                          = spin-orbit
redata: Number of spin components                   = 8
redata: Time-Reversal Symmetry                      = F
redata: Spin spiral                                 = F
############################################################
This spin-orbit implementation uses a local approximation.
From 4.2 and onwards the full non-local approximation is implemented
You are strongly advised to use >=4.2 versions!
############################################################
redata: Long output                                 =   F
redata: Number of Atomic Species                    =        4
redata: Charge density info will appear in .RHO file
redata: Write Mulliken Pop.                         = NO
redata: Matel table size (NRTAB)                    =     1024
redata: Mesh Cutoff                                 =   340.0000 Ry
redata: Net charge of the system                    =     0.0000 |e|
redata: Min. number of SCF Iter                     =        1
redata: Max. number of SCF Iter                     =      300
redata: SCF convergence failure will abort job
redata: SCF mix quantity                            = Hamiltonian
redata: Mix DM or H after convergence               =   F
redata: Recompute H after scf cycle                 =   F
redata: Mix DM in first SCF step                    =   T
redata: Write Pulay info on disk                    =   F
redata: New DM Occupancy tolerance                  = 0.000000000001
redata: No kicks to SCF
redata: DM Mixing Weight for Kicks                  =     0.5000
redata: Require Harris convergence for SCF          =   F
redata: Harris energy tolerance for SCF             =     0.000100 eV
redata: Require DM convergence for SCF              =   T
redata: DM tolerance for SCF                        =     0.000008
redata: Require EDM convergence for SCF             =   F
redata: EDM tolerance for SCF                       =     0.001000 eV
redata: Require H convergence for SCF               =   T
redata: Hamiltonian tolerance for SCF               =     0.000001 eV
redata: Require (free) Energy convergence for SCF   =   F
redata: (free) Energy tolerance for SCF             =     0.000100 eV
redata: Using Saved Data (generic)                  =   F
redata: Use continuation files for DM               =   T
redata: Neglect nonoverlap interactions             =   F
redata: Method of Calculation                       = Diagonalization
redata: Electronic Temperature                      =   299.9978 K
redata: Fix the spin of the system                  =   F
redata: Dynamics option                             = Verlet MD run
redata: Initial MD time step                        =        1
redata:   Final MD time step                        =        1
redata: Length of MD time step                      =     0.5000 fs
redata: Initial Temperature of MD run               =     0.0000 K
redata: Perform a MD quench                         =   F
mix.SCF: Pulay mixing                            = Pulay
mix.SCF:    Variant                              = stable
mix.SCF:    History steps                        = 6
mix.SCF:    Linear mixing weight                 =     0.250000
mix.SCF:    Mixing weight                        =     0.250000
mix.SCF:    SVD condition                        = 0.1000E-07
mix.SCF:    Restart steps                        = 24
mix.SCF:    Restart save steps                   = 3
mix.SCF: Spin-component mixing                   all
redata: Save all siesta data in one NC              =   F
redata: ***********************************************************************

%block SCF.Mixers
  Pulay
%endblock SCF.Mixers

%block SCF.Mixer.Pulay
  # Mixing method
  method pulay
  variant stable

  # Mixing options
  weight 0.2500
  weight.linear 0.2500
  history 6
  restart 24
  restart.save 3
%endblock SCF.Mixer.Pulay

Size of DM history Fstack: 3
Total number of electrons:    98.000000
Total ionic charge:    98.000000

* ProcessorY, Blocksize:    4   9


* Orbital distribution balance (max,min):    18     9


Time-reversal symmetry not used.

siesta: k-grid: Number of k-points =     1
siesta: k-grid: Cutoff (effective) =     5.164 Ang
siesta: k-grid: Supercell and displacements
siesta: k-grid:    1   0   0      0.000
siesta: k-grid:    0   1   0      0.000
siesta: k-grid:    0   0   1      0.000

diag: Algorithm                                     = ELPA-1stage
diag: Parallel over k                               =   F
diag: Use parallel 2D distribution                  =   T
diag: Parallel block-size                           = 9
diag: Parallel distribution                         =     4 x     8
diag: Used triangular part                          = Lower
diag: Absolute tolerance                            =  0.100E-15
diag: Orthogonalization factor                      =  0.100E-05
diag: Memory factor                                 =  1.0000


ts: **************************************************************
ts: Save H and S matrices                           =    F
ts: Save DM and EDM matrices                        =    F
ts: Only save the overlap matrix S                  =    F
ts: **************************************************************

************************ Begin: TS CHECKS AND WARNINGS ************************
************************ End: TS CHECKS AND WARNINGS **************************


                     ====================================
                        Begin MD step =      1
                     ====================================

outcoor: Atomic coordinates (Ang):                          
    2.28494382   -5.19529124    0.00000000   1       1  H
    1.37433094   -4.66471070    0.00000000   2       2  N
   -0.21830245   -5.49458215    0.00000000   3       3  Si
   -0.17484108   -6.98516892    0.00000000   1       4  H
   -1.66171682   -4.58600741    0.00000000   2       5  N
   -1.09026419   -2.87456374    0.00000000   3       6  Si
   -1.53038332   -0.70765692    0.00000000   3       7  Si
   -3.14415959   -0.09186471    0.00000000   2       8  N
   -3.40268075    0.95848335    0.00000000   1       9  H
   -3.95073599   -0.76720972    0.00000000   1      10  H
   -0.17836637    0.41349951    0.00000000   2      11  N
    1.49520211   -0.04739960    0.00000000   3      12  Si
    2.45603905    1.10727302    0.00000000   1      13  H
    2.30451743   -1.58574382    0.00000000   2      14  N
    1.10725559   -2.84610319    0.00000000   3      15  Si
   -0.00985420   11.70754165    0.00000000   1      16  H
   -0.81856488   11.01533577    0.00000000   2      17  N
   -2.47515472   11.72845587    0.00000000   3      18  Si
   -2.37828955   13.23918108    0.00000000   1      19  H
   -4.20131107   10.38540774    0.00000000   3      20  Si
   -6.55576532   10.37742081    0.00000000   3      21  Si
   -7.11818344   11.11191046   -1.20183078   1      22  H
   -6.85557907    8.89832968   -0.08618332   1      23  H
   -7.11829590   10.94225327    1.28814761   1      24  H
   -3.27192043    8.31483651    0.00000000   3      25  Si
   -4.22138879    7.02630038    0.00000000   4      26  O
   -1.48097556    8.14110104    0.00000000   2      27  N
   -1.14998420    7.10874406    0.00000000   1      28  H
   -0.17251734    9.33564746    0.00000000   3      29  Si
    1.39341959    9.06840061    0.00000000   4      30  O

outcell: Unit cell vectors (Ang):
       18.710747    0.000000    0.000000
        0.000000   29.835368    0.000000
        0.000000    0.000000   10.327559

outcell: Cell vector modules (Ang)   :   18.710747   29.835368   10.327559
outcell: Cell angles (23,13,12) (deg):     90.0000     90.0000     90.0000
outcell: Cell volume (Ang**3)        :   5765.2775
<dSpData1D:S at geom step 1
  <sparsity:sparsity for geom step 1
    nrows_g=302 nrows=18 sparsity=.0275 nnzs=2511, refcount: 8>
  <dData1D:(new from dSpData1D) n=2511, refcount: 1>
refcount: 1>
new_DM -- step:     1
Initializing Density Matrix...

Attempting to read DM from file... Failed...
DM filled with atomic data:
<dSpData2D:DM initialized from atoms
  <sparsity:sparsity for geom step 1
    nrows_g=302 nrows=18 sparsity=.0275 nnzs=2511, refcount: 9>
  <dData2D:DM n=2511 m=8, refcount: 1>
refcount: 1>
     spin moment: S , {S} =   56.00000   0.00000   0.00000  56.00000
No. of atoms with KB's overlaping orbs in proc 0. Max # of overlaps:      20     134

Initializing spin-orbit part of the Hamiltonian
  Adding spin-orbit effects for H 
  Adding spin-orbit effects for N 
  Adding spin-orbit effects for Si
  Adding spin-orbit effects for O 


New grid distribution:   1
           1       1:  108    1:   45    1:    8
           2       1:  108    1:   45    9:   16
           3       1:  108    1:   45   17:   24
           4       1:  108    1:   45   25:   32
           5       1:  108    1:   45   33:   39
           6       1:  108    1:   45   40:   46
           7       1:  108    1:   45   47:   53
           8       1:  108    1:   45   54:   60
           9       1:  108   46:   90    1:    8
          10       1:  108   46:   90    9:   16
          11       1:  108   46:   90   17:   24
          12       1:  108   46:   90   25:   32
          13       1:  108   46:   90   33:   39
          14       1:  108   46:   90   40:   46
          15       1:  108   46:   90   47:   53
          16       1:  108   46:   90   54:   60
          17       1:  108   91:  135    1:    8
          18       1:  108   91:  135    9:   16
          19       1:  108   91:  135   17:   24
          20       1:  108   91:  135   25:   32
          21       1:  108   91:  135   33:   39
          22       1:  108   91:  135   40:   46
          23       1:  108   91:  135   47:   53
          24       1:  108   91:  135   54:   60
          25       1:  108  136:  180    1:    8
          26       1:  108  136:  180    9:   16
          27       1:  108  136:  180   17:   24
          28       1:  108  136:  180   25:   32
          29       1:  108  136:  180   33:   39
          30       1:  108  136:  180   40:   46
          31       1:  108  136:  180   47:   53
          32       1:  108  136:  180   54:   60

InitMesh: MESH =   216 x   360 x   120 =     9331200
InitMesh: (bp) =   108 x   180 x    60 =     1166400
InitMesh: Mesh cutoff (required, used) =   340.000   368.321 Ry
ExtMesh (bp) on 0 =   212 x   157 x   116 =     3860944
New grid distribution:   2
           1      57:   87    1:   54    1:   19
           2      88:   98    1:   53    1:   19
           3      98:  108   54:   72    1:   21
           4       1:   57    1:   54   20:   60
           5      58:   87    1:   54   20:   60
           6      10:   81  161:  180    1:   20
           7      99:  108    1:   53    1:   19
           8      88:   97   54:   72    1:   21
           9       1:   56    1:   54    1:   19
          10       1:   72   55:   72    1:   22
          11      73:   87   55:   72    1:   22
          12      73:   87   55:   72   23:   60
          13       1:   72   55:   72   23:   60
          14      88:   98    1:   53   20:   60
          15      98:  108   54:   72   22:   60
          16      88:   97   54:   72   22:   60
          17      82:   99   73:  159    1:   20
          18       1:    9   73:  160    1:   20
          19     100:  108  160:  180    1:   20
          20      10:   81   73:  160   21:   60
          21      82:   99   73:  159   21:   60
          22       1:    9   73:  160   21:   60
          23      82:   99  160:  180    1:   20
          24       1:    9  161:  180    1:   20
          25      10:   81   73:  160    1:   20
          26     100:  108   73:  159    1:   20
          27       1:    9  161:  180   21:   60
          28     100:  108   73:  159   21:   60
          29      10:   81  161:  180   21:   60
          30      99:  108    1:   53   20:   60
          31      82:   99  160:  180   21:   60
          32     100:  108  160:  180   21:   60
New grid distribution:   3
           1       1:   50   48:   71    1:   25
           2      74:   91    1:   42    1:   23
           3      92:  108    1:   42    1:   23
           4      16:   73    1:   47   25:   60
           5      16:   73    1:   47    1:   24
           6      74:   92    1:   42   24:   60
           7      91:  108   43:   71   27:   60
           8      91:  108   43:   71    1:   26
           9      17:   76   72:  147    1:   25
          10       1:   15  148:  180   26:   60
          11      51:   73   48:   71    1:   25
          12       1:   50   48:   71   26:   60
          13      17:   76  148:  180    1:   25
          14       1:   15    1:   47   25:   60
          15      51:   73   48:   71   26:   60
          16      74:   90   43:   71   27:   60
          17      77:   95   72:  143    1:   24
          18      96:  108   72:  143    1:   24
          19       1:   16  148:  180    1:   25
          20      17:   76   72:  147   26:   60
          21      77:   95   72:  143   25:   60
          22      96:  108   72:  143   25:   60
          23       1:   15    1:   47    1:   24
          24      95:  108  144:  180    1:   25
          25       1:   16   72:  147    1:   25
          26      96:  108  144:  180   26:   60
          27      77:   94  144:  180    1:   25
          28      16:   76  148:  180   26:   60
          29       1:   16   72:  147   26:   60
          30      93:  108    1:   42   24:   60
          31      77:   95  144:  180   26:   60
          32      74:   90   43:   71    1:   26
Setting up quadratic distribution...
ExtMesh (bp) on 0 =   135 x   166 x   127 =     2846070
PhiOnMesh: Number of (b)points on node 0 =                31806
PhiOnMesh: nlist on node 0 =               414410

stepf: Fermi-Dirac step function

siesta: Program's energy decomposition (eV):
siesta: Ebs     =      -650.732827
siesta: Eions   =      3553.971015
siesta: Ena     =       374.984508
siesta: Ekin    =      3171.285001
siesta: Enl     =     -2984.671636
siesta: Eso     =        -0.003884
siesta: Edftu   =         0.000000
siesta: DEna    =       129.712857
siesta: DUscf   =        75.725285
siesta: DUext   =         0.000000
siesta: Exc     =     -1168.682741
siesta: eta*DQ  =         0.000000
siesta: Emadel  =         0.000000
siesta: Emeta   =         0.000000
siesta: Emolmec =         0.000000
siesta: Ekinion =         0.000000
siesta: Eharris =     -3884.426223
siesta: Etot    =     -3955.621626
siesta: FreeEng =     -3955.624943

        iscf     Eharris(eV)        E_KS(eV)     FreeEng(eV)     dDmax    Ef(eV) dHmax(eV)
   scf:    1    -3884.426223    -3955.621626    -3955.624943  0.970413 -4.935319 21.514122
     spin moment: S , {S} =    2.02357  -0.00000  -0.00000   2.02357
timer: Routine,Calls,Time,% = IterSCF        1       4.489  10.78
   scf:    2    -3996.407101    -3988.764555    -3988.764572  0.466766 -4.313656 12.115315
     spin moment: S , {S} =    2.00005   0.00000  -0.00000   2.00005
   scf:    3    -3959.664639    -3985.900536    -3985.925464  0.418486 -4.230395 11.481607
     spin moment: S , {S} =    1.97761  -0.00000  -0.00000   1.97761
   scf:    4    -4002.202892    -3997.315559    -3997.315560  0.245057 -3.931673  6.338093
     spin moment: S , {S} =    0.00010  -0.00000   0.00000   0.00010
   scf:    5    -3998.676796    -3998.078920    -3998.078920  0.039008 -3.840723  3.918324
     spin moment: S , {S} =    0.00006  -0.00000   0.00000   0.00006
   scf:    6    -3998.849751    -3998.467984    -3998.467984  0.025463 -3.826238  1.933494
     spin moment: S , {S} =    0.00003  -0.00000   0.00000   0.00003
   scf:    7    -3998.865119    -3998.659698    -3998.659698  0.023121 -3.866428  0.742025
     spin moment: S , {S} =    0.00001  -0.00000   0.00000   0.00001
   scf:    8    -3998.790995    -3998.722678    -3998.722678  0.012569 -3.930658  0.454940
     spin moment: S , {S} =    0.00000  -0.00000   0.00000   0.00000
   scf:    9    -3998.771610    -3998.746013    -3998.746013  0.007099 -3.934723  0.364706
     spin moment: S , {S} =    0.00000  -0.00000   0.00000   0.00000
   scf:   10    -3998.804959    -3998.766646    -3998.766646  0.023077 -3.962510  0.199780
     spin moment: S , {S} =    0.00000  -0.00000  -0.00000  -0.00000
   scf:   11    -3998.771172    -3998.769049    -3998.769049  0.004360 -3.948833  0.069080
     spin moment: S , {S} =    0.00000  -0.00000  -0.00000  -0.00000
   scf:   12    -3998.769752    -3998.769426    -3998.769426  0.001424 -3.946551  0.041134
     spin moment: S , {S} =    0.00000  -0.00000  -0.00000  -0.00000
   scf:   13    -3998.770043    -3998.769732    -3998.769732  0.000768 -3.944844  0.021669
     spin moment: S , {S} =    0.00000  -0.00000  -0.00000  -0.00000
   scf:   14    -3998.770065    -3998.769893    -3998.769893  0.000788 -3.943903  0.013109
     spin moment: S , {S} =    0.00000  -0.00000  -0.00000  -0.00000
   scf:   15    -3998.770021    -3998.769954    -3998.769954  0.000587 -3.943645  0.007807
     spin moment: S , {S} =    0.00000  -0.00000  -0.00000  -0.00000
   scf:   16    -3998.770020    -3998.769984    -3998.769984  0.000542 -3.943622  0.003371
     spin moment: S , {S} =    0.00000   0.00000  -0.00000  -0.00000
   scf:   17    -3998.769996    -3998.769990    -3998.769990  0.000237 -3.943718  0.002845
     spin moment: S , {S} =    0.00000   0.00000  -0.00000   0.00000
   scf:   18    -3998.769995    -3998.769992    -3998.769992  0.000175 -3.943769  0.001913
     spin moment: S , {S} =    0.00000   0.00000  -0.00000   0.00000
   scf:   19    -3998.769994    -3998.769993    -3998.769993  0.000155 -3.943801  0.001277
     spin moment: S , {S} =    0.00000   0.00000  -0.00000   0.00000
   scf:   20    -3998.769994    -3998.769993    -3998.769993  0.000071 -3.943800  0.000893
     spin moment: S , {S} =    0.00000   0.00000   0.00000   0.00000
   scf:   21    -3998.769994    -3998.769994    -3998.769994  0.000062 -3.943820  0.000594
     spin moment: S , {S} =    0.00000   0.00000   0.00000   0.00000
   scf:   22    -3998.769994    -3998.769994    -3998.769994  0.000064 -3.943829  0.000287
     spin moment: S , {S} =    0.00000   0.00000   0.00000   0.00000
   scf:   23    -3998.769994    -3998.769994    -3998.769994  0.000030 -3.943843  0.000191
     spin moment: S , {S} =    0.00000   0.00000   0.00000   0.00000
   scf:   24    -3998.769994    -3998.769994    -3998.769994  0.000028 -3.943841  0.000082
     spin moment: S , {S} =    0.00000   0.00000   0.00000   0.00000
mix: Pulay -- resetting history
   scf:   25    -3998.769994    -3998.769994    -3998.769994  0.000018 -3.943828  0.000033
     spin moment: S , {S} =    0.00000   0.00000   0.00000   0.00000
   scf:   26    -3998.769994    -3998.769994    -3998.769994  0.000003 -3.943827  0.000025
     spin moment: S , {S} =    0.00000   0.00000   0.00000   0.00000
   scf:   27    -3998.769994    -3998.769994    -3998.769994  0.000002 -3.943824  0.000013
     spin moment: S , {S} =    0.00000   0.00000   0.00000   0.00000
   scf:   28    -3998.769994    -3998.769994    -3998.769994  0.000001 -3.943822  0.000008
     spin moment: S , {S} =    0.00000   0.00000   0.00000   0.00000
   scf:   29    -3998.769994    -3998.769994    -3998.769994  0.000000 -3.943841  0.000004
     spin moment: S , {S} =    0.00000   0.00000   0.00000   0.00000
   scf:   30    -3998.769994    -3998.769994    -3998.769994  0.000000 -3.943841  0.000003
     spin moment: S , {S} =    0.00000   0.00000   0.00000   0.00000
   scf:   31    -3998.769994    -3998.769994    -3998.769994  0.000000 -3.943840  0.000002
     spin moment: S , {S} =    0.00000   0.00000   0.00000   0.00000
   scf:   32    -3998.769994    -3998.769994    -3998.769994  0.000000 -3.943840  0.000002
     spin moment: S , {S} =    0.00000   0.00000   0.00000   0.00000
   scf:   33    -3998.769994    -3998.769994    -3998.769994  0.000000 -3.943840  0.000001
     spin moment: S , {S} =    0.00000   0.00000   0.00000   0.00000
   scf:   34    -3998.769994    -3998.769994    -3998.769994  0.000000 -3.943840  0.000001
     spin moment: S , {S} =    0.00000   0.00000   0.00000   0.00000

SCF Convergence by DM+H criterion
max |DM_out - DM_in|         :     0.0000001299
max |H_out - H_in|      (eV) :     0.0000008564
SCF cycle converged after 34 iterations

Using DM_out to compute the final energy and forces
No. of atoms with KB's overlaping orbs in proc 0. Max # of overlaps:      20     134

siesta: E_KS(eV) =            -3998.7700

siesta: E_KS - E_eggbox =     -3998.7700
     spin moment: S , {S} =    0.00000   0.00000   0.00000   0.00000

siesta: Atomic forces (eV/Ang):
     1    0.135203   -0.018352   -0.000000
     2   -0.039504    0.027661    0.000000
     3   -0.028312   -0.008041   -0.000000
     4    0.060568   -0.014582   -0.000000
     5    0.005138   -0.036871    0.000000
     6   -0.189277    0.019102    0.000000
     7    1.057535   -0.018939   -0.000000
     8   -0.653735    1.409908   -0.000000
     9    0.221374   -1.047468   -0.000000
    10   -0.150990    0.167305    0.000000
    11   -0.232833   -0.437225    0.000000
    12   -0.280316    0.056304    0.000000
    13   -0.144145   -0.046669   -0.000000
    14    0.034692   -0.132379   -0.000000
    15    0.109276    0.106915    0.000000
    16   -0.051288   -0.135851   -0.000946
    17    0.064726   -0.091683   -0.000806
    18   -0.172563    0.037431    0.005218
    19    0.085014   -0.093608   -0.001438
    20    0.127831    0.083437   -0.000941
    21    0.030942   -0.030063   -0.006888
    22    0.181557   -0.045213    0.085642
    23    0.054355    0.021556   -0.016655
    24    0.186803    0.027711   -0.063607
    25   -0.666376   -0.402337    0.001020
    26   -2.554019    2.288588    0.000498
    27    0.370106   -0.427477   -0.000551
    28   -0.122769    0.770868   -0.000071
    29    0.108517    0.183874   -0.000228
    30   -2.396207   -0.503460    0.000262
----------------------------------------
   Tot   -4.848697    1.710443    0.000511
----------------------------------------
   Max    2.554019
   Res    0.524030    sqrt( Sum f_i^2 / 3N )
----------------------------------------
   Max    2.554019    constrained

Stress tensor Voigt[x,y,z,yz,xz,xy] (kbar):        0.20        0.72       -0.05       -0.02        0.00        0.30
(Free)E + p*V (eV/cell)    -3999.8128
Target enthalpy (eV/cell)    -3998.7700

siesta: Stress tensor (static) (eV/Ang**3):
         0.000123    0.000186    0.000001
         0.000186    0.000451   -0.000009
         0.000001   -0.000009   -0.000032

siesta: Pressure (static):         -0.28981275  kBar

siesta: Stress tensor (total) (eV/Ang**3):
         0.000123    0.000186    0.000001
         0.000186    0.000451   -0.000009
         0.000001   -0.000009   -0.000032

siesta: Pressure (total):         -0.28981275  kBar

siesta: Temp_ion =       0.000 K

siesta: Eigenvalues (eV):
ik =     1
  -22.9335  -22.9335  -22.3791  -22.3791  -21.7808  -21.7808  -21.3303  -21.3303  -21.1862  -21.1862
  -21.0819  -21.0819  -19.5487  -19.5487  -19.4003  -19.4003  -18.7598  -18.7598  -15.0481  -15.0481
  -14.1283  -14.1283  -13.8050  -13.8050  -13.6199  -13.6199  -13.1152  -13.1152  -13.0553  -13.0553
  -12.6913  -12.6913  -12.3038  -12.3038  -11.9459  -11.9459  -11.7593  -11.7593  -11.5360  -11.5360
  -11.1423  -11.1423  -10.6584  -10.6584  -10.3648  -10.3648   -9.5672   -9.5672   -9.3296   -9.3296
   -9.3098   -9.3098   -9.1149   -9.1149   -9.0714   -9.0714   -8.9573   -8.9573   -8.6390   -8.6390
   -8.4244   -8.4244   -8.3887   -8.3887   -8.2954   -8.2954   -8.0767   -8.0767   -8.0491   -8.0491
   -7.7450   -7.7450   -7.5420   -7.5420   -7.4569   -7.4569   -7.3191   -7.3191   -6.9910   -6.9910
   -6.9093   -6.9093   -6.7625   -6.7625   -6.5703   -6.5703   -6.3239   -6.3239   -6.3005   -6.3005
   -5.9531   -5.9531   -5.7318   -5.7318   -5.6961   -5.6961   -4.3709   -4.3709   -3.5168   -3.5168
   -2.7252   -2.7252   -2.3387   -2.3387   -2.2410   -2.2410   -2.1581   -2.1581   -2.1031   -2.1031
   -2.0121   -2.0121   -1.8597   -1.8597   -1.7427   -1.7427   -1.6656   -1.6656   -1.5612   -1.5612
   -1.1949   -1.1949   -0.7297   -0.7297   -0.4627   -0.4627   -0.3607   -0.3607   -0.1948   -0.1948
   -0.0262   -0.0262    0.0365    0.0365    0.2183    0.2183    0.4231    0.4231    0.4759    0.4759
    0.4848    0.4848    0.7118    0.7118    1.0632    1.0632    1.1236    1.1236    1.2425    1.2425
    1.4287    1.4287    1.5381    1.5381    1.7678    1.7678    1.9191    1.9191    2.0298    2.0298
    2.2900    2.2900    2.6622    2.6622    2.6884    2.6884    2.7215    2.7215    2.7785    2.7785
    2.9312    2.9312    2.9599    2.9599    3.1068    3.1068    3.2320    3.2320    3.2784    3.2784
    3.5202    3.5202    3.8779    3.8779    4.0577    4.0577    4.0694    4.0694    4.2060    4.2060
    4.3192    4.3192    4.5362    4.5362    4.5427    4.5427    4.7613    4.7613    4.9249    4.9249
    5.0372    5.0372    5.0714    5.0714    5.5416    5.5416    5.6124    5.6124    5.6667    5.6667
    5.7308    5.7308    6.0114    6.0114    6.0209    6.0209    6.1802    6.1802    6.1955    6.1955
    6.4813    6.4813    6.5566    6.5566    6.7929    6.7929    7.0122    7.0122    7.0653    7.0653
    7.1147    7.1147    7.3346    7.3346    7.4977    7.4977    7.8114    7.8114    7.8292    7.8292
    7.9508    7.9508    8.1050    8.1050    8.2237    8.2237    8.2334    8.2334    8.6473    8.6473
    8.7865    8.7865    8.8767    8.8767    8.9489    8.9489    9.1432    9.1432    9.5124    9.5124
    9.5788    9.5788    9.7002    9.7002    9.7684    9.7684    9.7738    9.7738    9.9071    9.9071
   10.1398   10.1398   10.3141   10.3141   10.6020   10.6020   10.8462   10.8462   10.9016   10.9016
   11.2586   11.2586   11.2750   11.2750   11.5268   11.5268   11.5589   11.5589   11.6110   11.6110
   11.8929   11.8929   12.1656   12.1656   12.2912   12.2912   12.3671   12.3671   12.6028   12.6028
   12.7880   12.7880   12.9141   12.9141   13.0105   13.0105   13.1344   13.1344   13.3225   13.3225
   13.3653   13.3653   13.5930   13.5930   14.4507   14.4507   14.5999   14.5999   14.6337   14.6337
   14.6708   14.6708   14.7921   14.7921   15.1360   15.1360   16.0776   16.0776   16.5450   16.5450
   16.6420   16.6420   16.7723   16.7723   16.9953   16.9953   17.1586   17.1586   17.3011   17.3011
   18.0816   18.0816   18.2216   18.2216   18.4415   18.4415   18.6939   18.6939   18.7202   18.7202
   18.7205   18.7205   19.5136   19.5136   19.7481   19.7481   19.9907   19.9907   20.2101   20.2101
   20.5785   20.5785   21.0564   21.0564   21.0886   21.0886   21.6877   21.6877   22.1674   22.1674
   22.2469   22.2469   22.8304   22.8304   22.8631   22.8631   23.0366   23.0366   23.8194   23.8194
   24.5682   24.5682   24.6998   24.6998   24.8010   24.8010   25.6632   25.6632   25.9332   25.9332
   25.9981   25.9981   26.4539   26.4539   26.5144   26.5144   27.7474   27.7474   28.0155   28.0155
   28.2803   28.2803   28.4496   28.4496   29.0981   29.0981   29.4619   29.4619   30.3287   30.3287
   30.6968   30.6968   30.7553   30.7553   30.7969   30.7969   31.2500   31.2500   31.5082   31.5082
   31.7310   31.7310   31.8974   31.8974   32.0443   32.0443   33.3371   33.3371   33.3525   33.3525
   33.6953   33.6953   34.0024   34.0024   34.4819   34.4819   34.7588   34.7588   34.8861   34.8861
   35.4568   35.4568   35.9703   35.9703   36.0110   36.0110   37.0353   37.0353   37.4561   37.4561
   37.5155   37.5155   37.6866   37.6866   38.0071   38.0071   38.4011   38.4011   38.4340   38.4340
   39.0867   39.0867   40.1096   40.1096   40.1529   40.1529   40.7241   40.7241   41.0793   41.0793
   41.5882   41.5882   41.7884   41.7884   41.8386   41.8386   43.2747   43.2747   43.3495   43.3495
   43.7722   43.7722   44.4494   44.4494   44.7850   44.7850   44.8448   44.8448   45.0363   45.0363
   45.4871   45.4871   45.7519   45.7519   45.8614   45.8614   46.4726   46.4726   46.8866   46.8866
   47.0640   47.0640   47.3916   47.3916   48.4985   48.4985   48.7718   48.7718   49.3634   49.3634
   49.6716   49.6716   50.1766   50.1766   50.1955   50.1955   50.3100   50.3100   50.3298   50.3298
   51.7091   51.7091   52.5312   52.5312   52.7021   52.7021   53.8289   53.8289   54.3211   54.3211
   54.7538   54.7538   54.8149   54.8149   55.9488   55.9488   56.0619   56.0619   56.1917   56.1917
   56.8104   56.8104   57.6321   57.6321   57.9560   57.9560   58.3687   58.3687   59.5459   59.5459
   59.9261   59.9261   61.0879   61.0879   61.6018   61.6018   62.8279   62.8279   63.2368   63.2368
   65.1472   65.1472   65.4348   65.4348   66.9381   66.9381   67.2570   67.2570   68.3153   68.3153
   68.4021   68.4021   70.5556   70.5556   71.8633   71.8633   76.4177   76.4177   88.6311   88.6311
   91.8493   91.8493   92.9334   92.9334   94.9677   94.9677   96.3941   96.3941  100.0472  100.0472
  100.6766  100.6766  102.4525  102.4525  114.1963  114.1963  118.3199  118.3199  123.1396  123.1396
  132.4343  132.4343  138.6865  138.6865
siesta: Fermi energy =      -3.943840 eV

siesta: Program's energy decomposition (eV):
siesta: Ebs     =     -1120.939779
siesta: Eions   =      3553.971015
siesta: Ena     =       374.984508
siesta: Ekin    =      2743.166004
siesta: Enl     =     -2522.792643
siesta: Eso     =        -0.004664
siesta: Edftu   =         0.000000
siesta: DEna    =        36.840729
siesta: DUscf   =        13.890632
siesta: DUext   =         0.000000
siesta: Exc     =     -1090.883545
siesta: eta*DQ  =         0.000000
siesta: Emadel  =         0.000000
siesta: Emeta   =         0.000000
siesta: Emolmec =         0.000000
siesta: Ekinion =         0.000000
siesta: Eharris =     -3998.769994
siesta: Etot    =     -3998.769994
siesta: FreeEng =     -3998.769994

siesta: Final energy (eV):
siesta:  Band Struct. =   -1120.939779
siesta:       Kinetic =    2743.166004
siesta:       Hartree =    7260.549529
siesta:       Edftu   =       0.000000
siesta:       Eso     =      -0.004664
siesta:    Ext. field =       0.000000
siesta:   Exch.-corr. =   -1090.883545
siesta:  Ion-electron =  -16969.458931
siesta:       Ion-ion =    4057.861613
siesta:       Ekinion =       0.000000
siesta:         Total =   -3998.769994
siesta:         Fermi =      -3.943840

siesta: Atomic forces (eV/Ang):
siesta:      1    0.135203   -0.018352   -0.000000
siesta:      2   -0.039504    0.027661    0.000000
siesta:      3   -0.028312   -0.008041   -0.000000
siesta:      4    0.060568   -0.014582   -0.000000
siesta:      5    0.005138   -0.036871    0.000000
siesta:      6   -0.189277    0.019102    0.000000
siesta:      7    1.057535   -0.018939   -0.000000
siesta:      8   -0.653735    1.409908   -0.000000
siesta:      9    0.221374   -1.047468   -0.000000
siesta:     10   -0.150990    0.167305    0.000000
siesta:     11   -0.232833   -0.437225    0.000000
siesta:     12   -0.280316    0.056304    0.000000
siesta:     13   -0.144145   -0.046669   -0.000000
siesta:     14    0.034692   -0.132379   -0.000000
siesta:     15    0.109276    0.106915    0.000000
siesta:     16   -0.051288   -0.135851   -0.000946
siesta:     17    0.064726   -0.091683   -0.000806
siesta:     18   -0.172563    0.037431    0.005218
siesta:     19    0.085014   -0.093608   -0.001438
siesta:     20    0.127831    0.083437   -0.000941
siesta:     21    0.030942   -0.030063   -0.006888
siesta:     22    0.181557   -0.045213    0.085642
siesta:     23    0.054355    0.021556   -0.016655
siesta:     24    0.186803    0.027711   -0.063607
siesta:     25   -0.666376   -0.402337    0.001020
siesta:     26   -2.554019    2.288588    0.000498
siesta:     27    0.370106   -0.427477   -0.000551
siesta:     28   -0.122769    0.770868   -0.000071
siesta:     29    0.108517    0.183874   -0.000228
siesta:     30   -2.396207   -0.503460    0.000262
siesta: ----------------------------------------
siesta:    Tot   -4.848697    1.710443    0.000511

siesta: Stress tensor (static) (eV/Ang**3):
siesta:     0.000123    0.000186    0.000001
siesta:     0.000186    0.000451   -0.000009
siesta:     0.000001   -0.000009   -0.000032

siesta: Cell volume =       5765.277521 Ang**3

siesta: Pressure (static):
siesta:                Solid            Molecule  Units
siesta:          -0.00000197         -0.00000107  Ry/Bohr**3
siesta:          -0.00018088         -0.00009803  eV/Ang**3
siesta:          -0.28981275         -0.15705858  kBar
(Free)E+ p_basis*V_orbitals  =       -3977.641909
(Free)Eharris+ p_basis*V_orbitals  =       -3977.641909
     spin moment: S , {S} =    0.00000   0.00000   0.00000   0.00000

siesta: Electric dipole (a.u.)  =   -1.250725    1.633520   -0.001807
siesta: Electric dipole (Debye) =   -3.179027    4.151997   -0.004594

cite: Please see "AT.bib" for an exhaustive BiBTeX file.
cite: Please clearly indicate Siesta version in published work: v4.1.5-1-g384057250
cite: This calculation has made use of the following articles
cite: which are encouraged to be cited in a published work.
        Primary SIESTA paper
          DOI: www.doi.org/10.1088/0953-8984/14/11/302
        Spin-orbit coupling (on-site approximation)
          DOI: www.doi.org/10.1088/0953-8984/19/19/489001


WARNING: alloc-realloc-dealloc name mismatch
         Name: atomlist isa
         Size:              -120. Bytes
         Node:     0
         Subsequent mismatches will not be reported
>> End of run:  16-OCT-2023  21:17:47
Job completed
