Siesta Version  : v4.1.5-1-g384057250
Architecture    : gcc
Compiler version: GNU Fortran (Ubuntu 11.4.0-1ubuntu1~22.04) 11.4.0
Compiler flags  : mpifort -O2 -fPIC -ftree-vectorize -fallow-argument-mismatch
PP flags        : -DFC_HAVE_ABORT -DMPI -DSIESTA__FLOOK -DSIESTA__METIS -DSIESTA__MUMPS -DCDF -DNCDF -DNCDF_4 -DNCDF_PARALLEL -DSIESTA__MRRR -DSIESTA__ELPA
Libraries       : libncdf.a libfdict.a  -lflookall -ldl -lnetcdff -lnetcdf -lhdf5_hl -lhdf5 -lhdf5_fortran -lz -lscalapack-openmpi -lopenblas -lmetis -lzmumps -lcmumps -ldmumps -lmumps_common -lpord -lsmumps -lesmumps -lscotch -lscotcherr -fopenmp -lelpa
PARALLEL version
NetCDF support
NetCDF-4 support
NetCDF-4 MPI-IO support
METIS ordering support
Lua support

* Running on 8 nodes in parallel
>> Start of run:   1-FEB-2024  21:09:02

                           ***********************       
                           *  WELCOME TO SIESTA  *       
                           ***********************       

reinit: Reading from standard input
reinit: Dumped input in INPUT_TMP.13275
************************** Dump of input data file ****************************
# mpirun -np 4 siesta-4.1.5 < AT.fdf > AT.out &
SystemLabel      AT
NumberOfAtoms    30
NumberOfSpecies  4
%block ChemicalSpeciesLabel
    1    1  H
    2    7  N
    3   14  Si
    4    8  O
%endblock ChemicalSpeciesLabel
############################################
# This overrides Defaults.fdf configuration
############################################
MD.TypeOfRun                Verlet # CG, Verlet
MD.Steps                    0
MaxSCFIterations            200
SCF.MustConverge            F
AtomicCoordinatesFormat NotScaledCartesianAng
%block AtomicCoordinatesAndAtomicSpecies
    2.28494382 -5.19529124 0.0  1  1  H
    1.37433094 -4.6647107 0.0  2  2  N
    -0.21830245 -5.49458215 0.0  3  3  Si
    -0.17484108 -6.98516892 0.0  1  4  H
    -1.66171682 -4.58600741 0.0  2  5  N
    -1.09026419 -2.87456374 0.0  3  6  Si
    -1.53038332 -0.70765692 0.0  3  7  Si
    -3.14415959 -0.09186471 0.0  2  8  N
    -3.40268075 0.95848335 0.0  1  9  H
    -3.95073599 -0.76720972 0.0  1  10  H
    -0.17836637 0.41349951 0.0  2  11  N
    1.49520211 -0.0473996 0.0  3  12  Si
    2.45603905 1.10727302 0.0  1  13  H
    2.30451743 -1.58574382 0.0  2  14  N
    1.10725559 -2.84610319 0.0  3  15  Si
    -0.010562337268918198 11.712620725631059 0.0  1  16  H
    -0.8192730172689182 11.020414845631059 0.0  2  17  N
    -2.4758628572689183 11.733534945631058 0.0  3  18  Si
    -2.3789976872689182 13.244260155631057 0.0  1  19  H
    -4.202019207268918 10.390486815631057 0.0  3  20  Si
    -6.556473457268918 10.38249988563106 0.0  3  21  Si
    -7.1188915772689185 11.116989535631058 -1.20183078  1  22  H
    -6.8562872072689185 8.903408755631059 -0.08618332  1  23  H
    -7.119004037268918 10.947332345631057 1.28814761  1  24  H
    -3.272628567268918 8.319915585631058 0.0  3  25  Si
    -4.222096927268918 7.031379455631058 0.0  4  26  O
    -1.4816836972689182 8.146180115631058 0.0  2  27  N
    -1.1506923372689182 7.113823135631058 0.0  1  28  H
    -0.17322547726891824 9.340726535631058 0.0  3  29  Si
    1.3927114527310818 9.073479685631058 0.0  4  30  O
%endblock AtomicCoordinatesAndAtomicSpecies
#############
# Unit Cell
#############
LatticeConstant 1.0 Ang
%block LatticeVectors
    30.00000    0.000000    0.000000
    0.000000    45.00000    0.000000
    0.000000    0.000000    10.00000
%endblock LatticeVectors
%include ../../../../Defaults.fdf
************************** End of input data file *****************************

reinit: -----------------------------------------------------------------------
reinit: System Name: 
reinit: -----------------------------------------------------------------------
reinit: System Label: AT
reinit: -----------------------------------------------------------------------

initatom: Reading input for the pseudopotentials and atomic orbitals ----------
Species number:   1 Atomic number:    1 Label: H
Species number:   2 Atomic number:    7 Label: N
Species number:   3 Atomic number:   14 Label: Si
Species number:   4 Atomic number:    8 Label: O

Ground state valence configuration:   1s01
Reading pseudopotential information in formatted form from H.psf

Pseudopotential generated from a relativistic atomic calculation

Valence configuration for pseudopotential generation:
1s( 1.00) rc: 0.01
2p( 0.00) rc: 0.60
3d( 0.00) rc: 1.99
4f( 0.00) rc: 2.49
Ground state valence configuration:   2s02  2p03
Reading pseudopotential information in formatted form from N.psf

Pseudopotential generated from a relativistic atomic calculation

Valence configuration for pseudopotential generation:
2s( 2.00) rc: 0.94
2p( 3.00) rc: 0.59
3d( 0.00) rc: 3.46
4f( 0.00) rc: 2.47
Ground state valence configuration:   3s02  3p02
Reading pseudopotential information in formatted form from Si.psf

Pseudopotential generated from a relativistic atomic calculation

Valence configuration for pseudopotential generation:
3s( 2.00) rc: 1.67
3p( 2.00) rc: 2.04
3d( 0.00) rc: 2.89
4f( 0.00) rc: 2.49
Ground state valence configuration:   2s02  2p04
Reading pseudopotential information in formatted form from O.psf

Pseudopotential generated from a relativistic atomic calculation

Valence configuration for pseudopotential generation:
2s( 2.00) rc: 0.45
2p( 4.00) rc: 0.92
3d( 0.00) rc: 2.24
4f( 0.00) rc: 0.25
For H, standard SIESTA heuristics set lmxkb to 2
 (one more than the basis l, including polarization orbitals).
Use PS.lmax or PS.KBprojectors blocks to override.
For N, standard SIESTA heuristics set lmxkb to 3
 (one more than the basis l, including polarization orbitals).
Use PS.lmax or PS.KBprojectors blocks to override.
For Si, standard SIESTA heuristics set lmxkb to 3
 (one more than the basis l, including polarization orbitals).
Use PS.lmax or PS.KBprojectors blocks to override.
For O, standard SIESTA heuristics set lmxkb to 3
 (one more than the basis l, including polarization orbitals).
Use PS.lmax or PS.KBprojectors blocks to override.

<basis_specs>
===============================================================================
H                    Z=   1    Mass=  1.0100        Charge= 0.17977+309
Lmxo=0 Lmxkb= 2    BasisType=split      Semic=F
L=0  Nsemic=0  Cnfigmx=1
          i=1  nzeta=2  polorb=1  (1s)
            splnorm:   0.62000    
               vcte:    0.0000    
               rinn:    0.0000    
               qcoe:    0.0000    
               qyuk:    0.0000    
               qwid:   0.10000E-01
                rcs:    0.0000      0.0000    
            lambdas:    1.0000      1.0000    
-------------------------------------------------------------------------------
L=0  Nkbl=1  erefs: 0.17977+309
L=1  Nkbl=1  erefs: 0.17977+309
L=2  Nkbl=1  erefs: 0.17977+309
===============================================================================
</basis_specs>

atom: Called for H                     (Z =   1)

read_vps: Pseudopotential generation method:
read_vps: ATM4.2.7  Troullier-Martins                       
Valence charge for ps generation:    1.00000

xc_check: Exchange-correlation functional:
xc_check: GGA Perdew, Burke & Ernzerhof 1996
V l=0 = -2*Zval/r beyond r=  0.0098
V l=1 = -2*Zval/r beyond r=  0.5817
V l=2 = -2*Zval/r beyond r=  1.9372
All V_l potentials equal beyond r=  1.9372
This should be close to max(r_c) in ps generation
All pots = -2*Zval/r beyond r=  1.9372

VLOCAL1: 99.0% of the norm of Vloc inside     11.567 Ry
VLOCAL1: 99.9% of the norm of Vloc inside     26.362 Ry
atom: Maximum radius for 4*pi*r*r*local-pseudopot. charge    2.25106
atom: Maximum radius for r*vlocal+2*Zval:    1.91306
GHOST: No ghost state for L =  0
GHOST: No ghost state for L =  1
GHOST: No ghost state for L =  2

KBgen: Kleinman-Bylander projectors: 
   l= 0   rc=  2.036604   el= -0.477180   Ekb= -6.081590   kbcos= -0.277285
   l= 1   rc=  2.195416   el=  0.001076   Ekb= -0.926943   kbcos= -0.034643
   l= 2   rc=  2.251056   el=  0.002010   Ekb= -0.130941   kbcos= -0.009788

KBgen: Total number of Kleinman-Bylander projectors:    9
atom: -------------------------------------------------------------------------

atom: SANKEY-TYPE ORBITALS:
atom: Selected multiple-zeta basis: split     

SPLIT: Orbitals with angular momentum L= 0

SPLIT: Basis orbitals for state 1s

SPLIT: PAO cut-off radius determined from an
SPLIT: energy shift=  0.002000 Ry

   izeta = 1
                 lambda =    1.000000
                     rc =    6.518340
                 energy =   -0.475305
                kinetic =    0.912139
    potential(screened) =   -1.387444
       potential(ionic) =   -1.907295

   izeta = 2
                 rmatch =    2.141150
              splitnorm =    0.620000
                 energy =    0.566467
                kinetic =    3.772856
    potential(screened) =   -3.206389
       potential(ionic) =   -3.759093

POLgen: Perturbative polarization orbital with L=  1

POLgen: Polarization orbital for state 1s

   izeta = 1
                     rc =    6.518340
                 energy =    0.533861
                kinetic =    1.121086
    potential(screened) =   -0.587225
       potential(ionic) =   -1.053027
atom: Total number of Sankey-type orbitals:  5

atm_pop: Valence configuration (for local Pseudopot. screening):
 1s( 1.00)                                                            
Vna: chval, zval:    1.00000   1.00000

Vna:  Cut-off radius for the neutral-atom potential:   6.518340

atom: _________________________________________________________________________

<basis_specs>
===============================================================================
N                    Z=   7    Mass=  14.010        Charge= 0.17977+309
Lmxo=1 Lmxkb= 3    BasisType=split      Semic=F
L=0  Nsemic=0  Cnfigmx=2
          i=1  nzeta=2  polorb=0  (2s)
            splnorm:   0.28000    
               vcte:    0.0000    
               rinn:    0.0000    
               qcoe:    0.0000    
               qyuk:    0.0000    
               qwid:   0.10000E-01
                rcs:    0.0000      0.0000    
            lambdas:    1.0000      1.0000    
L=1  Nsemic=0  Cnfigmx=2
          i=1  nzeta=2  polorb=1  (2p)
            splnorm:   0.28000    
               vcte:    0.0000    
               rinn:    0.0000    
               qcoe:    0.0000    
               qyuk:    0.0000    
               qwid:   0.10000E-01
                rcs:    0.0000      0.0000    
            lambdas:    1.0000      1.0000    
-------------------------------------------------------------------------------
L=0  Nkbl=1  erefs: 0.17977+309
L=1  Nkbl=1  erefs: 0.17977+309
L=2  Nkbl=1  erefs: 0.17977+309
L=3  Nkbl=1  erefs: 0.17977+309
===============================================================================
</basis_specs>

atom: Called for N                     (Z =   7)

read_vps: Pseudopotential generation method:
read_vps: ATM4.2.7  Troullier-Martins                       
Valence charge for ps generation:    5.00000

xc_check: Exchange-correlation functional:
xc_check: GGA Perdew, Burke & Ernzerhof 1996
V l=0 = -2*Zval/r beyond r=  1.2889
V l=1 = -2*Zval/r beyond r=  1.2889
V l=2 = -2*Zval/r beyond r=  3.4178
V l=3 = -2*Zval/r beyond r=  2.4084
All V_l potentials equal beyond r=  3.3753
This should be close to max(r_c) in ps generation
All pots = -2*Zval/r beyond r=  3.4178

VLOCAL1: 99.0% of the norm of Vloc inside      3.810 Ry
VLOCAL1: 99.9% of the norm of Vloc inside      8.683 Ry
atom: Maximum radius for 4*pi*r*r*local-pseudopot. charge    4.02088
atom: Maximum radius for r*vlocal+2*Zval:    3.54838
GHOST: No ghost state for L =  0
GHOST: No ghost state for L =  1
GHOST: No ghost state for L =  2
GHOST: No ghost state for L =  3

KBgen: Kleinman-Bylander projectors: 
   l= 0   rc=  3.417763   el= -1.365098   Ekb= -4.433130   kbcos= -0.707855
   l= 1   rc=  3.375302   el= -0.521201   Ekb=-13.264039   kbcos= -0.535594
   l= 2   rc=  3.872880   el=  0.001991   Ekb= -0.641094   kbcos= -0.062456
   l= 3   rc=  3.970931   el=  0.003093   Ekb= -0.474517   kbcos= -0.018236

KBgen: Total number of Kleinman-Bylander projectors:   16
atom: -------------------------------------------------------------------------

atom: SANKEY-TYPE ORBITALS:
atom: Selected multiple-zeta basis: split     

SPLIT: Orbitals with angular momentum L= 0

SPLIT: Basis orbitals for state 2s

SPLIT: PAO cut-off radius determined from an
SPLIT: energy shift=  0.002000 Ry

   izeta = 1
                 lambda =    1.000000
                     rc =    4.730425
                 energy =   -1.363399
                kinetic =    1.245246
    potential(screened) =   -2.608645
       potential(ionic) =   -8.121105

   izeta = 2
                 rmatch =    2.531849
              splitnorm =    0.280000
                 energy =   -0.959908
                kinetic =    2.409435
    potential(screened) =   -3.369343
       potential(ionic) =   -9.427975

SPLIT: Orbitals with angular momentum L= 1

SPLIT: Basis orbitals for state 2p

SPLIT: PAO cut-off radius determined from an
SPLIT: energy shift=  0.002000 Ry

   izeta = 1
                 lambda =    1.000000
                     rc =    5.924108
                 energy =   -0.519262
                kinetic =    3.672940
    potential(screened) =   -4.192202
       potential(ionic) =   -9.518354

   izeta = 2
                 rmatch =    2.531849
              splitnorm =    0.280000
                 energy =   -0.104258
                kinetic =    6.807538
    potential(screened) =   -6.911796
       potential(ionic) =  -13.149920

POLgen: Perturbative polarization orbital with L=  2

POLgen: Polarization orbital for state 2p

   izeta = 1
                     rc =    5.924108
                 energy =    1.427508
                kinetic =    2.872379
    potential(screened) =   -1.444871
       potential(ionic) =   -5.563644
atom: Total number of Sankey-type orbitals: 13

atm_pop: Valence configuration (for local Pseudopot. screening):
 2s( 2.00)                                                            
 2p( 3.00)                                                            
Vna: chval, zval:    5.00000   5.00000

Vna:  Cut-off radius for the neutral-atom potential:   5.924108

atom: _________________________________________________________________________

<basis_specs>
===============================================================================
Si                   Z=  14    Mass=  28.090        Charge= 0.17977+309
Lmxo=1 Lmxkb= 3    BasisType=split      Semic=F
L=0  Nsemic=0  Cnfigmx=3
          i=1  nzeta=2  polorb=0  (3s)
            splnorm:   0.28000    
               vcte:    0.0000    
               rinn:    0.0000    
               qcoe:    0.0000    
               qyuk:    0.0000    
               qwid:   0.10000E-01
                rcs:    0.0000      0.0000    
            lambdas:    1.0000      1.0000    
L=1  Nsemic=0  Cnfigmx=3
          i=1  nzeta=2  polorb=1  (3p)
            splnorm:   0.28000    
               vcte:    0.0000    
               rinn:    0.0000    
               qcoe:    0.0000    
               qyuk:    0.0000    
               qwid:   0.10000E-01
                rcs:    0.0000      0.0000    
            lambdas:    1.0000      1.0000    
-------------------------------------------------------------------------------
L=0  Nkbl=1  erefs: 0.17977+309
L=1  Nkbl=1  erefs: 0.17977+309
L=2  Nkbl=1  erefs: 0.17977+309
L=3  Nkbl=1  erefs: 0.17977+309
===============================================================================
</basis_specs>

atom: Called for Si                    (Z =  14)

read_vps: Pseudopotential generation method:
read_vps: ATM4.2.7  Troullier-Martins                       
Valence charge for ps generation:    4.00000

xc_check: Exchange-correlation functional:
xc_check: GGA Perdew, Burke & Ernzerhof 1996
V l=0 = -2*Zval/r beyond r=  2.7826
V l=1 = -2*Zval/r beyond r=  2.7826
V l=2 = -2*Zval/r beyond r=  2.9253
V l=3 = -2*Zval/r beyond r=  2.7826
All V_l potentials equal beyond r=  2.8530
This should be close to max(r_c) in ps generation
All pots = -2*Zval/r beyond r=  2.9253

VLOCAL1: 99.0% of the norm of Vloc inside      5.333 Ry
VLOCAL1: 99.9% of the norm of Vloc inside     12.154 Ry
atom: Maximum radius for 4*pi*r*r*local-pseudopot. charge    3.39869
atom: Maximum radius for r*vlocal+2*Zval:    2.96205
GHOST: No ghost state for L =  0
GHOST: No ghost state for L =  1
GHOST: No ghost state for L =  2
GHOST: No ghost state for L =  3

KBgen: Kleinman-Bylander projectors: 
   l= 0   rc=  3.075247   el= -0.794092   Ekb=  5.879390   kbcos=  0.167461
   l= 1   rc=  3.153101   el= -0.300068   Ekb=  2.642817   kbcos=  0.058301
   l= 2   rc=  3.273594   el=  0.001958   Ekb= -1.185135   kbcos= -0.104411
   l= 3   rc=  3.232927   el=  0.003046   Ekb= -0.497174   kbcos= -0.015889

KBgen: Total number of Kleinman-Bylander projectors:   16
atom: -------------------------------------------------------------------------

atom: SANKEY-TYPE ORBITALS:
atom: Selected multiple-zeta basis: split     

SPLIT: Orbitals with angular momentum L= 0

SPLIT: Basis orbitals for state 3s

SPLIT: PAO cut-off radius determined from an
SPLIT: energy shift=  0.002000 Ry

   izeta = 1
                 lambda =    1.000000
                     rc =    6.429618
                 energy =   -0.792283
                kinetic =    0.525293
    potential(screened) =   -1.317576
       potential(ionic) =   -3.744923

   izeta = 2
                 rmatch =    3.998416
              splitnorm =    0.280000
                 energy =   -0.583081
                kinetic =    1.069570
    potential(screened) =   -1.652651
       potential(ionic) =   -4.235185

SPLIT: Orbitals with angular momentum L= 1

SPLIT: Basis orbitals for state 3p

SPLIT: PAO cut-off radius determined from an
SPLIT: energy shift=  0.002000 Ry

   izeta = 1
                 lambda =    1.000000
                     rc =    8.464845
                 energy =   -0.298236
                kinetic =    0.785360
    potential(screened) =   -1.083596
       potential(ionic) =   -3.273779

   izeta = 2
                 rmatch =    4.587816
              splitnorm =    0.280000
                 energy =   -0.131871
                kinetic =    1.403687
    potential(screened) =   -1.535557
       potential(ionic) =   -4.015310

POLgen: Perturbative polarization orbital with L=  2

POLgen: Polarization orbital for state 3p

   izeta = 1
                     rc =    8.464845
                 energy =    0.321949
                kinetic =    1.055677
    potential(screened) =   -0.733728
       potential(ionic) =   -2.672950
atom: Total number of Sankey-type orbitals: 13

atm_pop: Valence configuration (for local Pseudopot. screening):
 3s( 2.00)                                                            
 3p( 2.00)                                                            
Vna: chval, zval:    4.00000   4.00000

Vna:  Cut-off radius for the neutral-atom potential:   8.464845

atom: _________________________________________________________________________

<basis_specs>
===============================================================================
O                    Z=   8    Mass=  16.000        Charge= 0.17977+309
Lmxo=1 Lmxkb= 3    BasisType=split      Semic=F
L=0  Nsemic=0  Cnfigmx=2
          i=1  nzeta=2  polorb=0  (2s)
            splnorm:   0.28000    
               vcte:    0.0000    
               rinn:    0.0000    
               qcoe:    0.0000    
               qyuk:    0.0000    
               qwid:   0.10000E-01
                rcs:    0.0000      0.0000    
            lambdas:    1.0000      1.0000    
L=1  Nsemic=0  Cnfigmx=2
          i=1  nzeta=2  polorb=1  (2p)
            splnorm:   0.28000    
               vcte:    0.0000    
               rinn:    0.0000    
               qcoe:    0.0000    
               qyuk:    0.0000    
               qwid:   0.10000E-01
                rcs:    0.0000      0.0000    
            lambdas:    1.0000      1.0000    
-------------------------------------------------------------------------------
L=0  Nkbl=1  erefs: 0.17977+309
L=1  Nkbl=1  erefs: 0.17977+309
L=2  Nkbl=1  erefs: 0.17977+309
L=3  Nkbl=1  erefs: 0.17977+309
===============================================================================
</basis_specs>

atom: Called for O                     (Z =   8)

read_vps: Pseudopotential generation method:
read_vps: ATM4.2.7  Troullier-Martins                       
Valence charge for ps generation:    6.00000

xc_check: Exchange-correlation functional:
xc_check: GGA Perdew, Burke & Ernzerhof 1996
V l=0 = -2*Zval/r beyond r=  1.1000
V l=1 = -2*Zval/r beyond r=  1.1000
V l=2 = -2*Zval/r beyond r=  2.2154
V l=3 = -2*Zval/r beyond r=  1.1000
All V_l potentials equal beyond r=  2.2154
This should be close to max(r_c) in ps generation
All pots = -2*Zval/r beyond r=  2.2154

VLOCAL1: 99.0% of the norm of Vloc inside      8.845 Ry
VLOCAL1: 99.9% of the norm of Vloc inside     20.157 Ry
atom: Maximum radius for 4*pi*r*r*local-pseudopot. charge    2.67231
atom: Maximum radius for r*vlocal+2*Zval:    2.32897
GHOST: No ghost state for L =  0
GHOST: No ghost state for L =  1
GHOST: No ghost state for L =  2
GHOST: No ghost state for L =  3

KBgen: Kleinman-Bylander projectors: 
   l= 0   rc=  2.243238   el= -1.759686   Ekb=**********   kbcos= -0.171774
   l= 1   rc=  2.328968   el= -0.663873   Ekb=-14.506792   kbcos= -0.519897
   l= 2   rc=  2.573941   el=  0.002031   Ekb= -1.137373   kbcos= -0.019581
   l= 3   rc=  2.606321   el=  0.003153   Ekb= -1.013546   kbcos= -0.003122

KBgen: Total number of Kleinman-Bylander projectors:   16
atom: -------------------------------------------------------------------------

atom: SANKEY-TYPE ORBITALS:
atom: Selected multiple-zeta basis: split     

SPLIT: Orbitals with angular momentum L= 0

SPLIT: Basis orbitals for state 2s

SPLIT: PAO cut-off radius determined from an
SPLIT: energy shift=  0.002000 Ry

   izeta = 1
                 lambda =    1.000000
                     rc =    4.243912
                 energy =   -1.758270
                kinetic =    3.286084
    potential(screened) =   -5.044353
       potential(ionic) =  -12.921184

   izeta = 2
                 rmatch =    2.187845
              splitnorm =    0.280000
                 energy =   -0.885018
                kinetic =    8.134434
    potential(screened) =   -9.019452
       potential(ionic) =  -17.710645

SPLIT: Orbitals with angular momentum L= 1

SPLIT: Basis orbitals for state 2p

SPLIT: PAO cut-off radius determined from an
SPLIT: energy shift=  0.002000 Ry

   izeta = 1
                 lambda =    1.000000
                     rc =    5.314825
                 energy =   -0.661986
                kinetic =    4.917472
    potential(screened) =   -5.579458
       potential(ionic) =  -13.236259

   izeta = 2
                 rmatch =    2.160663
              splitnorm =    0.280000
                 energy =   -0.068760
                kinetic =    9.183374
    potential(screened) =   -9.252135
       potential(ionic) =  -18.274251

POLgen: Perturbative polarization orbital with L=  2

POLgen: Polarization orbital for state 2p

   izeta = 1
                     rc =    5.314825
                 energy =    1.970580
                kinetic =    3.886128
    potential(screened) =   -1.915547
       potential(ionic) =   -7.749584
atom: Total number of Sankey-type orbitals: 13

atm_pop: Valence configuration (for local Pseudopot. screening):
 2s( 2.00)                                                            
 2p( 4.00)                                                            
Vna: chval, zval:    6.00000   6.00000

Vna:  Cut-off radius for the neutral-atom potential:   5.314825

atom: _________________________________________________________________________

prinput: Basis input ----------------------------------------------------------

PAO.BasisType split     

%block ChemicalSpeciesLabel
    1    1 H                       # Species index, atomic number, species label
    2    7 N                       # Species index, atomic number, species label
    3   14 Si                      # Species index, atomic number, species label
    4    8 O                       # Species index, atomic number, species label
%endblock ChemicalSpeciesLabel

%block PAO.Basis                 # Define Basis set
H                     1                    # Species label, number of l-shells
 n=1   0   2 P   1                   # n, l, Nzeta, Polarization, NzetaPol
   6.518      2.141   
   1.000      1.000   
N                     2                    # Species label, number of l-shells
 n=2   0   2                         # n, l, Nzeta 
   4.730      2.532   
   1.000      1.000   
 n=2   1   2 P   1                   # n, l, Nzeta, Polarization, NzetaPol
   5.924      2.532   
   1.000      1.000   
Si                    2                    # Species label, number of l-shells
 n=3   0   2                         # n, l, Nzeta 
   6.430      3.998   
   1.000      1.000   
 n=3   1   2 P   1                   # n, l, Nzeta, Polarization, NzetaPol
   8.465      4.588   
   1.000      1.000   
O                     2                    # Species label, number of l-shells
 n=2   0   2                         # n, l, Nzeta 
   4.244      2.188   
   1.000      1.000   
 n=2   1   2 P   1                   # n, l, Nzeta, Polarization, NzetaPol
   5.315      2.161   
   1.000      1.000   
%endblock PAO.Basis

prinput: ----------------------------------------------------------------------

Dumping basis to NetCDF file H.ion.nc
Dumping basis to NetCDF file N.ion.nc
Dumping basis to NetCDF file Si.ion.nc
Dumping basis to NetCDF file O.ion.nc
coor:   Atomic-coordinates input format  =     Cartesian coordinates
coor:                                          (in Angstroms)

siesta: Atomic coordinates (Bohr) and species
siesta:      4.31792  -9.81768   0.00000  1        1
siesta:      2.59711  -8.81503   0.00000  2        2
siesta:     -0.41253 -10.38326   0.00000  3        3
siesta:     -0.33040 -13.20006   0.00000  1        4
siesta:     -3.14019  -8.66630   0.00000  2        5
siesta:     -2.06030  -5.43214   0.00000  3        6
siesta:     -2.89201  -1.33728   0.00000  3        7
siesta:     -5.94160  -0.17360   0.00000  2        8
siesta:     -6.43014   1.81127   0.00000  1        9
siesta:     -7.46581  -1.44982   0.00000  1       10
siesta:     -0.33706   0.78140   0.00000  2       11
siesta:      2.82552  -0.08957   0.00000  3       12
siesta:      4.64124   2.09244   0.00000  1       13
siesta:      4.35491  -2.99662   0.00000  2       14
siesta:      2.09241  -5.37836   0.00000  3       15
siesta:     -0.01996  22.13365   0.00000  1       16
siesta:     -1.54820  20.82557   0.00000  2       17
siesta:     -4.67870  22.17318   0.00000  3       18
siesta:     -4.49566  25.02803   0.00000  1       19
siesta:     -7.94067  19.63518   0.00000  3       20
siesta:    -12.38994  19.62009   0.00000  3       21
siesta:    -13.45276  21.00807  -2.27113  1       22
siesta:    -12.95651  16.82501  -0.16286  1       23
siesta:    -13.45297  20.68747   2.43425  1       24
siesta:     -6.18437  15.72237   0.00000  3       25
siesta:     -7.97861  13.28739   0.00000  4       26
siesta:     -2.79998  15.39406   0.00000  2       27
siesta:     -2.17449  13.44318   0.00000  1       28
siesta:     -0.32735  17.65142   0.00000  3       29
siesta:      2.63184  17.14640   0.00000  4       30

siesta: System type = molecule  

initatomlists: Number of atoms, orbitals, and projectors:     30   302   403

siesta: ******************** Simulation parameters ****************************
siesta:
siesta: The following are some of the parameters of the simulation.
siesta: A complete list of the parameters used, including default values,
siesta: can be found in file out.fdf
siesta:
redata: Spin configuration                          = spin-orbit
redata: Number of spin components                   = 8
redata: Time-Reversal Symmetry                      = F
redata: Spin spiral                                 = F
############################################################
This spin-orbit implementation uses a local approximation.
From 4.2 and onwards the full non-local approximation is implemented
You are strongly advised to use >=4.2 versions!
############################################################
redata: Long output                                 =   F
redata: Number of Atomic Species                    =        4
redata: Charge density info will appear in .RHO file
redata: Write Mulliken Pop.                         = NO
redata: Matel table size (NRTAB)                    =     1024
redata: Mesh Cutoff                                 =   340.0000 Ry
redata: Net charge of the system                    =     0.0000 |e|
redata: Min. number of SCF Iter                     =        1
redata: Max. number of SCF Iter                     =      200
redata: SCF mix quantity                            = Hamiltonian
redata: Mix DM or H after convergence               =   F
redata: Recompute H after scf cycle                 =   F
redata: Mix DM in first SCF step                    =   T
redata: Write Pulay info on disk                    =   F
redata: New DM Occupancy tolerance                  = 0.000000000001
redata: No kicks to SCF
redata: DM Mixing Weight for Kicks                  =     0.5000
redata: Require Harris convergence for SCF          =   F
redata: Harris energy tolerance for SCF             =     0.000100 eV
redata: Require DM convergence for SCF              =   T
redata: DM tolerance for SCF                        =     0.000008
redata: Require EDM convergence for SCF             =   F
redata: EDM tolerance for SCF                       =     0.001000 eV
redata: Require H convergence for SCF               =   T
redata: Hamiltonian tolerance for SCF               =     0.000001 eV
redata: Require (free) Energy convergence for SCF   =   F
redata: (free) Energy tolerance for SCF             =     0.000100 eV
redata: Using Saved Data (generic)                  =   F
redata: Use continuation files for DM               =   T
redata: Neglect nonoverlap interactions             =   F
redata: Method of Calculation                       = Diagonalization
redata: Electronic Temperature                      =   299.9978 K
redata: Fix the spin of the system                  =   F
redata: Dynamics option                             = Verlet MD run
redata: Initial MD time step                        =        1
redata:   Final MD time step                        =        1
redata: Length of MD time step                      =     0.5000 fs
redata: Initial Temperature of MD run               =     0.0000 K
redata: Perform a MD quench                         =   F
mix.SCF: Pulay mixing                            = Pulay
mix.SCF:    Variant                              = stable
mix.SCF:    History steps                        = 6
mix.SCF:    Linear mixing weight                 =     0.250000
mix.SCF:    Mixing weight                        =     0.250000
mix.SCF:    SVD condition                        = 0.1000E-07
mix.SCF:    Restart steps                        = 24
mix.SCF:    Restart save steps                   = 3
mix.SCF: Spin-component mixing                   all
redata: Save all siesta data in one NC              =   F
redata: ***********************************************************************

%block SCF.Mixers
  Pulay
%endblock SCF.Mixers

%block SCF.Mixer.Pulay
  # Mixing method
  method pulay
  variant stable

  # Mixing options
  weight 0.2500
  weight.linear 0.2500
  history 6
  restart 24
  restart.save 3
%endblock SCF.Mixer.Pulay

Size of DM history Fstack: 3
Total number of electrons:    98.000000
Total ionic charge:    98.000000

* ProcessorY, Blocksize:    2  24


* Orbital distribution balance (max,min):    48    24


Time-reversal symmetry not used.

siesta: k-grid: Number of k-points =     1
siesta: k-grid: Cutoff (effective) =     5.000 Ang
siesta: k-grid: Supercell and displacements
siesta: k-grid:    1   0   0      0.000
siesta: k-grid:    0   1   0      0.000
siesta: k-grid:    0   0   1      0.000

diag: Algorithm                                     = ELPA-1stage
diag: Parallel over k                               =   F
diag: Use parallel 2D distribution                  =   T
diag: Parallel block-size                           = 24
diag: Parallel distribution                         =     2 x     4
diag: Used triangular part                          = Lower
diag: Absolute tolerance                            =  0.100E-15
diag: Orthogonalization factor                      =  0.100E-05
diag: Memory factor                                 =  1.0000


ts: **************************************************************
ts: Save H and S matrices                           =    F
ts: Save DM and EDM matrices                        =    F
ts: Only save the overlap matrix S                  =    F
ts: **************************************************************

************************ Begin: TS CHECKS AND WARNINGS ************************
************************ End: TS CHECKS AND WARNINGS **************************


                     ====================================
                        Begin MD step =      1
                     ====================================

outcoor: Atomic coordinates (Ang):                          
    2.28494382   -5.19529124    0.00000000   1       1  H
    1.37433094   -4.66471070    0.00000000   2       2  N
   -0.21830245   -5.49458215    0.00000000   3       3  Si
   -0.17484108   -6.98516892    0.00000000   1       4  H
   -1.66171682   -4.58600741    0.00000000   2       5  N
   -1.09026419   -2.87456374    0.00000000   3       6  Si
   -1.53038332   -0.70765692    0.00000000   3       7  Si
   -3.14415959   -0.09186471    0.00000000   2       8  N
   -3.40268075    0.95848335    0.00000000   1       9  H
   -3.95073599   -0.76720972    0.00000000   1      10  H
   -0.17836637    0.41349951    0.00000000   2      11  N
    1.49520211   -0.04739960    0.00000000   3      12  Si
    2.45603905    1.10727302    0.00000000   1      13  H
    2.30451743   -1.58574382    0.00000000   2      14  N
    1.10725559   -2.84610319    0.00000000   3      15  Si
   -0.01056234   11.71262073    0.00000000   1      16  H
   -0.81927302   11.02041485    0.00000000   2      17  N
   -2.47586286   11.73353495    0.00000000   3      18  Si
   -2.37899769   13.24426016    0.00000000   1      19  H
   -4.20201921   10.39048682    0.00000000   3      20  Si
   -6.55647346   10.38249989    0.00000000   3      21  Si
   -7.11889158   11.11698954   -1.20183078   1      22  H
   -6.85628721    8.90340876   -0.08618332   1      23  H
   -7.11900404   10.94733235    1.28814761   1      24  H
   -3.27262857    8.31991559    0.00000000   3      25  Si
   -4.22209693    7.03137946    0.00000000   4      26  O
   -1.48168370    8.14618012    0.00000000   2      27  N
   -1.15069234    7.11382314    0.00000000   1      28  H
   -0.17322548    9.34072654    0.00000000   3      29  Si
    1.39271145    9.07347969    0.00000000   4      30  O

outcell: Unit cell vectors (Ang):
       30.000000    0.000000    0.000000
        0.000000   45.000000    0.000000
        0.000000    0.000000   10.000000

outcell: Cell vector modules (Ang)   :   30.000000   45.000000   10.000000
outcell: Cell angles (23,13,12) (deg):     90.0000     90.0000     90.0000
outcell: Cell volume (Ang**3)        :  13500.0000
<dSpData1D:S at geom step 1
  <sparsity:sparsity for geom step 1
    nrows_g=302 nrows=48 sparsity=.0767 nnzs=6994, refcount: 8>
  <dData1D:(new from dSpData1D) n=6994, refcount: 1>
refcount: 1>
new_DM -- step:     1
Initializing Density Matrix...

Attempting to read DM from file... Failed...
DM filled with atomic data:
<dSpData2D:DM initialized from atoms
  <sparsity:sparsity for geom step 1
    nrows_g=302 nrows=48 sparsity=.0767 nnzs=6994, refcount: 9>
  <dData2D:DM n=6994 m=8, refcount: 1>
refcount: 1>
     spin moment: S , {S} =   56.00000   0.00000   0.00000  56.00000
No. of atoms with KB's overlaping orbs in proc 0. Max # of overlaps:      27     134

Initializing spin-orbit part of the Hamiltonian
  Adding spin-orbit effects for H 
  Adding spin-orbit effects for N 
  Adding spin-orbit effects for Si
  Adding spin-orbit effects for O 


New grid distribution:   1
           1       1:  180    1:  125    1:   15
           2       1:  180    1:  125   16:   30
           3       1:  180    1:  125   31:   45
           4       1:  180    1:  125   46:   60
           5       1:  180  126:  250    1:   15
           6       1:  180  126:  250   16:   30
           7       1:  180  126:  250   31:   45
           8       1:  180  126:  250   46:   60

InitMesh: MESH =   360 x   500 x   120 =    21600000
InitMesh: (bp) =   180 x   250 x    60 =     2700000
InitMesh: Mesh cutoff (required, used) =   340.000   341.206 Ry
ExtMesh (bp) on 0 =   288 x   225 x   123 =     7970400
New grid distribution:   2
           1       1:  158    1:   50    1:   60
           2       1:  151  233:  250    1:   60
           3       1:  158   51:   67    1:   60
           4     159:  180   50:   67    1:   60
           5       1:  151   68:  232    1:   60
           6     152:  180   68:  231    1:   60
           7     159:  180    1:   49    1:   60
           8     152:  180  232:  250    1:   60
New grid distribution:   3
           1       1:  144    1:   44    1:   60
           2       1:  146  221:  250    1:   60
           3       1:  144   45:   66    1:   60
           4     145:  180   40:   66    1:   60
           5       1:  146   67:  220    1:   60
           6     147:  180   67:  216    1:   60
           7     145:  180    1:   39    1:   60
           8     147:  180  217:  250    1:   60
Setting up quadratic distribution...
ExtMesh (bp) on 0 =   266 x   150 x   168 =     6703200
PhiOnMesh: Number of (b)points on node 0 =               474000
PhiOnMesh: nlist on node 0 =              1797815

stepf: Fermi-Dirac step function

siesta: Program's energy decomposition (eV):
siesta: Ebs     =      -628.685609
siesta: Eions   =      3553.971015
siesta: Ena     =       374.984508
siesta: Ekin    =      3171.330051
siesta: Enl     =     -2984.701913
siesta: Eso     =        -0.003884
siesta: Edftu   =         0.000000
siesta: DEna    =       129.704728
siesta: DUscf   =        75.699786
siesta: DUext   =         0.000000
siesta: Exc     =     -1168.701217
siesta: eta*DQ  =         0.000000
siesta: Emadel  =         0.000000
siesta: Emeta   =         0.000000
siesta: Emolmec =         0.000000
siesta: Ekinion =         0.000000
siesta: Eharris =     -3884.527490
siesta: Etot    =     -3955.658955
siesta: FreeEng =     -3955.662273

        iscf     Eharris(eV)        E_KS(eV)     FreeEng(eV)     dDmax    Ef(eV) dHmax(eV)
   scf:    1    -3884.527490    -3955.658955    -3955.662273  0.970543 -4.935307 21.630687
     spin moment: S , {S} =    2.02357  -0.00000  -0.00000   2.02357
timer: Routine,Calls,Time,% = IterSCF        1      15.891  28.94
   scf:    2    -3994.852473    -3988.297797    -3988.297805  0.466014 -4.257086 12.119687
     spin moment: S , {S} =    2.00008   0.00000  -0.00000   2.00008
   scf:    3    -3955.701540    -3984.967769    -3984.997941  0.421931 -4.220363 12.629441
     spin moment: S , {S} =    1.99830  -0.00000  -0.00000   1.99830
   scf:    4    -4002.443347    -3997.298231    -3997.298232  0.217570 -3.867936  6.204573
     spin moment: S , {S} =    0.00010  -0.00000   0.00000   0.00010
   scf:    5    -3998.709171    -3998.077397    -3998.077397  0.038427 -3.749153  3.973373
     spin moment: S , {S} =    0.00006  -0.00000   0.00000   0.00006
   scf:    6    -3998.870673    -3998.473896    -3998.473896  0.026633 -3.727680  1.915610
     spin moment: S , {S} =    0.00003  -0.00000   0.00000   0.00003
   scf:    7    -3998.860154    -3998.661182    -3998.661182  0.022451 -3.754453  0.789740
     spin moment: S , {S} =    0.00001  -0.00000   0.00000   0.00001
   scf:    8    -3998.793950    -3998.725241    -3998.725241  0.012584 -3.816917  0.525491
     spin moment: S , {S} =    0.00000  -0.00000   0.00000   0.00000
   scf:    9    -3998.776126    -3998.749527    -3998.749527  0.007259 -3.840048  0.420059
     spin moment: S , {S} =    0.00000  -0.00000   0.00000   0.00000
   scf:   10    -3998.811150    -3998.768956    -3998.768956  0.025913 -3.873760  0.240338
     spin moment: S , {S} =    0.00000  -0.00000  -0.00000  -0.00000
   scf:   11    -3998.775694    -3998.772519    -3998.772519  0.004275 -3.857153  0.089045
     spin moment: S , {S} =    0.00000  -0.00000  -0.00000  -0.00000
   scf:   12    -3998.773878    -3998.773234    -3998.773235  0.001131 -3.853760  0.052313
     spin moment: S , {S} =    0.00000   0.00000  -0.00000  -0.00000
   scf:   13    -3998.774415    -3998.773812    -3998.773813  0.001175 -3.851447  0.028426
     spin moment: S , {S} =    0.00000   0.00000  -0.00000   0.00000
   scf:   14    -3998.774375    -3998.774082    -3998.774083  0.000955 -3.850292  0.017764
     spin moment: S , {S} =    0.00000   0.00000  -0.00000  -0.00000
   scf:   15    -3998.774314    -3998.774191    -3998.774192  0.000633 -3.849925  0.010293
     spin moment: S , {S} =    0.00000   0.00000  -0.00000  -0.00000
   scf:   16    -3998.774287    -3998.774235    -3998.774235  0.000494 -3.849886  0.004112
     spin moment: S , {S} =    0.00000   0.00000   0.00000  -0.00000
   scf:   17    -3998.774250    -3998.774242    -3998.774242  0.000163 -3.850064  0.002047
     spin moment: S , {S} =    0.00000   0.00000   0.00000   0.00000
   scf:   18    -3998.774249    -3998.774245    -3998.774246  0.000129 -3.850192  0.001326
     spin moment: S , {S} =    0.00000   0.00000   0.00000   0.00000
   scf:   19    -3998.774247    -3998.774246    -3998.774247  0.000083 -3.850231  0.000746
     spin moment: S , {S} =    0.00000   0.00000   0.00000   0.00000
   scf:   20    -3998.774247    -3998.774246    -3998.774247  0.000039 -3.850255  0.000532
     spin moment: S , {S} =    0.00000   0.00000   0.00000   0.00000
   scf:   21    -3998.774247    -3998.774246    -3998.774247  0.000033 -3.850270  0.000328
     spin moment: S , {S} =    0.00000   0.00000   0.00000   0.00000
   scf:   22    -3998.774247    -3998.774247    -3998.774247  0.000034 -3.850288  0.000154
     spin moment: S , {S} =    0.00000   0.00000   0.00000   0.00000
   scf:   23    -3998.774247    -3998.774247    -3998.774247  0.000012 -3.850293  0.000124
     spin moment: S , {S} =    0.00000   0.00000   0.00000   0.00000
   scf:   24    -3998.774247    -3998.774247    -3998.774247  0.000011 -3.850292  0.000071
     spin moment: S , {S} =    0.00000   0.00000   0.00000   0.00000
mix: Pulay -- resetting history
   scf:   25    -3998.774247    -3998.774247    -3998.774247  0.000009 -3.850289  0.000038
     spin moment: S , {S} =    0.00000   0.00000   0.00000   0.00000
   scf:   26    -3998.774247    -3998.774247    -3998.774247  0.000004 -3.850286  0.000025
     spin moment: S , {S} =    0.00000   0.00000   0.00000   0.00000
   scf:   27    -3998.774247    -3998.774247    -3998.774247  0.000003 -3.850286  0.000017
     spin moment: S , {S} =    0.00000   0.00000   0.00000   0.00000
   scf:   28    -3998.774247    -3998.774247    -3998.774247  0.000002 -3.850285  0.000009
     spin moment: S , {S} =    0.00000   0.00000   0.00000   0.00000
   scf:   29    -3998.774247    -3998.774247    -3998.774247  0.000001 -3.850284  0.000006
     spin moment: S , {S} =    0.00000   0.00000   0.00000   0.00000
   scf:   30    -3998.774247    -3998.774247    -3998.774247  0.000001 -3.850287  0.000004
     spin moment: S , {S} =    0.00000   0.00000   0.00000   0.00000
   scf:   31    -3998.774247    -3998.774247    -3998.774247  0.000000 -3.850287  0.000003
     spin moment: S , {S} =    0.00000   0.00000   0.00000   0.00000
   scf:   32    -3998.774247    -3998.774247    -3998.774247  0.000000 -3.850286  0.000002
     spin moment: S , {S} =    0.00000   0.00000   0.00000  -0.00000
   scf:   33    -3998.774247    -3998.774247    -3998.774247  0.000000 -3.850286  0.000001
     spin moment: S , {S} =    0.00000   0.00000   0.00000  -0.00000
   scf:   34    -3998.774247    -3998.774247    -3998.774247  0.000000 -3.850286  0.000000
     spin moment: S , {S} =    0.00000   0.00000  -0.00000  -0.00000

SCF Convergence by DM+H criterion
max |DM_out - DM_in|         :     0.0000001199
max |H_out - H_in|      (eV) :     0.0000004671
SCF cycle converged after 34 iterations

Using DM_out to compute the final energy and forces
No. of atoms with KB's overlaping orbs in proc 0. Max # of overlaps:      27     134

siesta: E_KS(eV) =            -3998.7742

siesta: E_KS - E_eggbox =     -3998.7742
     spin moment: S , {S} =    0.00000   0.00000  -0.00000  -0.00000

siesta: Atomic forces (eV/Ang):
     1    0.143178   -0.027243    0.000000
     2   -0.035766    0.043968    0.000000
     3   -0.031070   -0.017932   -0.000000
     4    0.068468   -0.134393   -0.000000
     5    0.054239    0.005161   -0.000000
     6   -0.194579    0.018841    0.000000
     7    1.080936   -0.043341   -0.000000
     8   -0.660340    1.419017    0.000000
     9    0.171560   -1.016507   -0.000000
    10   -0.111439    0.134949    0.000000
    11   -0.195552   -0.378049    0.000000
    12   -0.281228    0.050574   -0.000000
    13   -0.123263   -0.052192    0.000000
    14    0.031341   -0.119236   -0.000000
    15    0.112183    0.096951    0.000000
    16   -0.014524   -0.154755   -0.000950
    17    0.047240   -0.081609   -0.000794
    18   -0.155608    0.039794    0.005204
    19    0.057022   -0.143302   -0.001423
    20    0.126714    0.080347   -0.001055
    21    0.056193   -0.028202   -0.007076
    22    0.071766    0.004222    0.115248
    23    0.101699    0.087687   -0.005428
    24    0.066851    0.063214   -0.091187
    25   -0.651438   -0.398134    0.001045
    26   -1.141749   -2.622144    0.000502
    27    0.360360   -0.445131   -0.000554
    28   -0.276774    0.701641   -0.000073
    29    0.142261    0.169492   -0.000224
    30    1.914083    3.448636    0.000252
----------------------------------------
   Tot    0.732765    0.702324    0.013487
----------------------------------------
   Max    3.448636
   Res    0.582601    sqrt( Sum f_i^2 / 3N )
----------------------------------------
   Max    3.448636    constrained

Stress tensor Voigt[x,y,z,yz,xz,xy] (kbar):        0.14        0.23       -0.01       -0.01        0.00        0.12
(Free)E + p*V (eV/cell)    -3999.7682
Target enthalpy (eV/cell)    -3998.7742

siesta: Stress tensor (static) (eV/Ang**3):
         0.000085    0.000078    0.000000
         0.000078    0.000145   -0.000004
         0.000000   -0.000004   -0.000009

siesta: Pressure (static):         -0.11796129  kBar

siesta: Stress tensor (total) (eV/Ang**3):
         0.000085    0.000078    0.000000
         0.000078    0.000145   -0.000004
         0.000000   -0.000004   -0.000009

siesta: Pressure (total):         -0.11796129  kBar

siesta: Temp_ion =       0.000 K

siesta: Eigenvalues (eV):
ik =     1
  -22.8497  -22.8497  -22.3361  -22.3361  -21.7214  -21.7214  -21.2754  -21.2754  -21.0330  -21.0330
  -20.9595  -20.9595  -19.4089  -19.4089  -19.2458  -19.2458  -18.6219  -18.6219  -15.0105  -15.0105
  -14.0985  -14.0985  -13.6604  -13.6604  -13.5647  -13.5647  -13.0677  -13.0677  -12.9013  -12.9013
  -12.5481  -12.5481  -12.1790  -12.1790  -11.9010  -11.9010  -11.6238  -11.6238  -11.4812  -11.4812
  -11.0009  -11.0009  -10.6072  -10.6072  -10.2142  -10.2142   -9.5334   -9.5334   -9.3147   -9.3147
   -9.1691   -9.1691   -9.0871   -9.0871   -9.0160   -9.0160   -8.8054   -8.8054   -8.5916   -8.5916
   -8.3852   -8.3852   -8.2472   -8.2472   -8.1440   -8.1440   -7.9970   -7.9970   -7.9317   -7.9317
   -7.7058   -7.7058   -7.4083   -7.4083   -7.3127   -7.3127   -7.2589   -7.2589   -6.8540   -6.8540
   -6.8349   -6.8349   -6.7105   -6.7105   -6.4207   -6.4207   -6.2543   -6.2543   -6.1778   -6.1778
   -5.8173   -5.8173   -5.6906   -5.6906   -5.5550   -5.5550   -4.2258   -4.2258   -3.4748   -3.4748
   -2.6877   -2.6877   -2.1911   -2.1911   -2.1831   -2.1831   -2.1092   -2.1092   -1.9763   -1.9763
   -1.9543   -1.9543   -1.7201   -1.7201   -1.6173   -1.6173   -1.5994   -1.5994   -1.4122   -1.4122
   -1.1462   -1.1462   -0.5858   -0.5858   -0.3214   -0.3214   -0.2116   -0.2116   -0.1708   -0.1708
   -0.0065   -0.0065    0.0638    0.0638    0.2598    0.2598    0.5323    0.5323    0.5646    0.5646
    0.6256    0.6256    0.7595    0.7595    1.2075    1.2075    1.2659    1.2659    1.3003    1.3003
    1.4603    1.4603    1.5801    1.5801    1.9080    1.9080    1.9646    1.9646    2.1701    2.1701
    2.4269    2.4269    2.7611    2.7611    2.7940    2.7940    2.8191    2.8191    2.8403    2.8403
    3.0722    3.0722    3.1074    3.1074    3.1509    3.1509    3.2627    3.2627    3.3243    3.3243
    3.6744    3.6744    3.9257    3.9257    4.2041    4.2041    4.2102    4.2102    4.2463    4.2463
    4.3760    4.3760    4.6803    4.6803    4.6859    4.6859    4.8121    4.8121    5.0668    5.0668
    5.0771    5.0771    5.2141    5.2141    5.5682    5.5682    5.7146    5.7146    5.7448    5.7448
    5.8873    5.8873    6.0696    6.0696    6.1570    6.1570    6.2290    6.2290    6.3190    6.3190
    6.6030    6.6030    6.6105    6.6105    6.8321    6.8321    7.0525    7.0525    7.2138    7.2138
    7.2579    7.2579    7.4767    7.4767    7.6322    7.6322    7.8581    7.8581    7.9792    7.9792
    7.9964    7.9964    8.1712    8.1712    8.3613    8.3613    8.3737    8.3737    8.6975    8.6975
    8.9322    8.9322    8.9872    8.9872    9.0124    9.0124    9.2869    9.2869    9.6209    9.6209
    9.6608    9.6608    9.8070    9.8070    9.8329    9.8329    9.9215    9.9215    9.9489    9.9489
   10.1800   10.1800   10.4595   10.4595   10.6562   10.6562   10.9531   10.9531   10.9774   10.9774
   11.3050   11.3050   11.4228   11.4228   11.6349   11.6349   11.6717   11.6717   11.6911   11.6911
   11.9356   11.9356   12.3036   12.3036   12.3425   12.3425   12.4141   12.4141   12.6367   12.6367
   12.9332   12.9332   12.9549   12.9549   13.0542   13.0542   13.2748   13.2748   13.4033   13.4033
   13.4657   13.4657   13.7350   13.7350   14.5077   14.5077   14.6645   14.6645   14.7398   14.7398
   14.8099   14.8099   14.9416   14.9416   15.1558   15.1558   16.1109   16.1109   16.5644   16.5644
   16.7978   16.7978   16.9153   16.9153   17.0293   17.0293   17.1904   17.1904   17.4430   17.4430
   18.2323   18.2323   18.2606   18.2606   18.5759   18.5759   18.7644   18.7644   18.8407   18.8407
   18.8892   18.8892   19.5493   19.5493   19.8787   19.8787   20.0272   20.0272   20.2562   20.2562
   20.7221   20.7221   21.1164   21.1164   21.1895   21.1895   21.7046   21.7046   22.2863   22.2863
   22.3164   22.3164   22.8950   22.8950   22.9837   22.9837   23.1904   23.1904   23.8439   23.8439
   24.5954   24.5954   24.8327   24.8327   24.8463   24.8463   25.7990   25.7990   25.9443   25.9443
   26.1404   26.1404   26.5605   26.5605   26.6008   26.6008   27.7772   27.7772   28.0565   28.0565
   28.4181   28.4181   28.5005   28.5005   29.2246   29.2246   29.5157   29.5157   30.4749   30.4749
   30.8060   30.8060   30.8499   30.8499   30.9451   30.9451   31.3928   31.3928   31.6377   31.6377
   31.7807   31.7807   32.0303   32.0303   32.1768   32.1768   33.3989   33.3989   33.4911   33.4911
   33.7507   33.7507   34.0813   34.0813   34.5201   34.5201   34.9005   34.9005   34.9368   34.9368
   35.5159   35.5159   36.0237   36.0237   36.1605   36.1605   37.1867   37.1867   37.5776   37.5776
   37.5779   37.5779   37.8173   37.8173   38.1443   38.1443   38.4625   38.4625   38.4948   38.4948
   39.1474   39.1474   40.2594   40.2594   40.2922   40.2922   40.7763   40.7763   41.2062   41.2062
   41.7252   41.7252   41.8957   41.8957   41.9312   41.9312   43.3326   43.3326   43.4862   43.4862
   43.9245   43.9245   44.5879   44.5879   44.8988   44.8988   44.9307   44.9307   45.1874   45.1874
   45.6160   45.6160   45.8066   45.8066   45.9924   45.9924   46.6209   46.6209   47.0388   47.0388
   47.1244   47.1244   47.4500   47.4500   48.6444   48.6444   48.8263   48.8263   49.3930   49.3930
   49.7275   49.7275   50.2429   50.2429   50.3164   50.3164   50.3488   50.3488   50.4658   50.4658
   51.7639   51.7639   52.6727   52.6727   52.7592   52.7592   53.9737   53.9737   54.3877   54.3877
   54.8705   54.8705   54.9030   54.9030   56.0811   56.0811   56.1227   56.1227   56.2433   56.2433
   56.9388   56.9388   57.7712   57.7712   58.0147   58.0147   58.4191   58.4191   59.6891   59.6891
   60.0591   60.0591   61.2383   61.2383   61.7415   61.7415   62.8685   62.8685   63.3629   63.3629
   65.2972   65.2972   65.4693   65.4693   67.0809   67.0809   67.3162   67.3162   68.4474   68.4474
   68.4561   68.4561   70.6042   70.6042   72.0153   72.0153   76.5504   76.5504   88.6862   88.6862
   91.9043   91.9043   93.0827   93.0827   95.1100   95.1100   96.5002   96.5002  100.1948  100.1948
  100.7362  100.7362  102.5980  102.5980  114.3241  114.3241  118.3731  118.3731  123.2933  123.2933
  132.4891  132.4891  138.8071  138.8071
siesta: Fermi energy =      -3.850286 eV

siesta: Program's energy decomposition (eV):
siesta: Ebs     =     -1111.518551
siesta: Eions   =      3553.971015
siesta: Ena     =       374.984508
siesta: Ekin    =      2743.186334
siesta: Enl     =     -2522.827336
siesta: Eso     =        -0.004664
siesta: Edftu   =         0.000000
siesta: DEna    =        36.853145
siesta: DUscf   =        13.899128
siesta: DUext   =         0.000000
siesta: Exc     =     -1090.894347
siesta: eta*DQ  =         0.000000
siesta: Emadel  =         0.000000
siesta: Emeta   =         0.000000
siesta: Emolmec =         0.000000
siesta: Ekinion =         0.000000
siesta: Eharris =     -3998.774247
siesta: Etot    =     -3998.774247
siesta: FreeEng =     -3998.774247

siesta: Final energy (eV):
siesta:  Band Struct. =   -1111.518551
siesta:       Kinetic =    2743.186334
siesta:       Hartree =   11841.988376
siesta:       Edftu   =       0.000000
siesta:       Eso     =      -0.004664
siesta:    Ext. field =       0.000000
siesta:   Exch.-corr. =   -1090.894347
siesta:  Ion-electron =  -26122.918809
siesta:       Ion-ion =    8629.868864
siesta:       Ekinion =       0.000000
siesta:         Total =   -3998.774247
siesta:         Fermi =      -3.850286

siesta: Atomic forces (eV/Ang):
siesta:      1    0.143178   -0.027243    0.000000
siesta:      2   -0.035766    0.043968    0.000000
siesta:      3   -0.031070   -0.017932   -0.000000
siesta:      4    0.068468   -0.134393   -0.000000
siesta:      5    0.054239    0.005161   -0.000000
siesta:      6   -0.194579    0.018841    0.000000
siesta:      7    1.080936   -0.043341   -0.000000
siesta:      8   -0.660340    1.419017    0.000000
siesta:      9    0.171560   -1.016507   -0.000000
siesta:     10   -0.111439    0.134949    0.000000
siesta:     11   -0.195552   -0.378049    0.000000
siesta:     12   -0.281228    0.050574   -0.000000
siesta:     13   -0.123263   -0.052192    0.000000
siesta:     14    0.031341   -0.119236   -0.000000
siesta:     15    0.112183    0.096951    0.000000
siesta:     16   -0.014524   -0.154755   -0.000950
siesta:     17    0.047240   -0.081609   -0.000794
siesta:     18   -0.155608    0.039794    0.005204
siesta:     19    0.057022   -0.143302   -0.001423
siesta:     20    0.126714    0.080347   -0.001055
siesta:     21    0.056193   -0.028202   -0.007076
siesta:     22    0.071766    0.004222    0.115248
siesta:     23    0.101699    0.087687   -0.005428
siesta:     24    0.066851    0.063214   -0.091187
siesta:     25   -0.651438   -0.398134    0.001045
siesta:     26   -1.141749   -2.622144    0.000502
siesta:     27    0.360360   -0.445131   -0.000554
siesta:     28   -0.276774    0.701641   -0.000073
siesta:     29    0.142261    0.169492   -0.000224
siesta:     30    1.914083    3.448636    0.000252
siesta: ----------------------------------------
siesta:    Tot    0.732765    0.702324    0.013487

siesta: Stress tensor (static) (eV/Ang**3):
siesta:     0.000085    0.000078    0.000000
siesta:     0.000078    0.000145   -0.000004
siesta:     0.000000   -0.000004   -0.000009

siesta: Cell volume =      13500.000000 Ang**3

siesta: Pressure (static):
siesta:                Solid            Molecule  Units
siesta:          -0.00000080         -0.00000492  Ry/Bohr**3
siesta:          -0.00007362         -0.00045138  eV/Ang**3
siesta:          -0.11796129         -0.72319729  kBar
(Free)E+ p_basis*V_orbitals  =       -3977.646162
(Free)Eharris+ p_basis*V_orbitals  =       -3977.646162
     spin moment: S , {S} =    0.00000   0.00000  -0.00000  -0.00000

siesta: Electric dipole (a.u.)  =   -1.166603    1.559846   -0.001847
siesta: Electric dipole (Debye) =   -2.965212    3.964736   -0.004695

cite: Please see "AT.bib" for an exhaustive BiBTeX file.
cite: Please clearly indicate Siesta version in published work: v4.1.5-1-g384057250
cite: This calculation has made use of the following articles
cite: which are encouraged to be cited in a published work.
        Primary SIESTA paper
          DOI: www.doi.org/10.1088/0953-8984/14/11/302
        Spin-orbit coupling (on-site approximation)
          DOI: www.doi.org/10.1088/0953-8984/19/19/489001


WARNING: alloc-realloc-dealloc name mismatch
         Name: atomlist isa
         Size:              -120. Bytes
         Node:     0
         Subsequent mismatches will not be reported
>> End of run:   1-FEB-2024  21:15:50
Job completed
