Executable      : siesta-5
Version         : 5.1-MaX-41-g6ad11e234
Architecture    : x86_64
Compiler version: GNU-11.4.0
Compiler flags  : -DSIESTA__METIS -fallow-argument-mismatch -O3 -march=native
Parallelisations: MPI, OpenMP
* OpenMP version: 201511
NetCDF support
NetCDF-4 support
NetCDF-4 MPI-IO support
METIS ordering support
Lua support
Native ELPA support
DFT-D3 support
Wannier90 wrapper support

Runtime information:
* Directory : /home/wind/Documents/Si_DNA2/C/Bases/Cytosine_GGA_OP
* Running on 8 nodes in parallel.
* Running 1 OpenMP threads.
* Running 8 processes.
* OpenMP NOT bound (please bind threads!)
* OpenMP runtime schedule DYNAMIC, chunks 1
** Changing chunk size:
** OpenMP runtime schedule DYNAMIC, chunks 32
** OpenMP (trying to FORCE nesting)
* OpenMP allows 255 nested levels.
>> Start of run:   1-SEP-2024  23:16:39

                           *********************** 
                           *  WELCOME TO SIESTA  * 
                           *********************** 

 NOTE: Siesta V5 introduces some new defaults for basis-set generation
 NOTE: which might lead to slightly different numerical results.
 NOTE: Please see the manual for full details and compatibility measures.


reinit: Reading from standard input
reinit: Dumping input in INPUT_TMP.58643
************************** Dump of input data file ****************************
# mpirun -np 8 siesta-5 < Cytosine.fdf > Cytosine.out
SystemLabel      Cytosine
NumberOfAtoms    13
NumberOfSpecies  4
%block ChemicalSpeciesLabel
    1    1  H   ../../../Pseudos/PBE/H/H.psml
    2    6  C   ../../../Pseudos/PBE/C/C.psml
    3    7  N   ../../../Pseudos/PBE/N/N.psml
    4    8  O   ../../../Pseudos/PBE/O/O.psml
%endblock ChemicalSpeciesLabel
############################################
# This overrides Defaults.fdf configuration
############################################
MD.Steps                1000
%block Geometry.Constraints
    atom all 0.0 0.0 1.0 # constrain along z Cartesian vector
    atom [5]
%endblock
AtomicCoordinatesFormat NotScaledCartesianAng
%block AtomicCoordinatesAndAtomicSpecies
    2.2134    1.1188    0.0000 4
   -0.0595    0.9816    0.0000 3
   -2.4422    0.9214    0.0000 3
    1.2935   -0.9744    0.0000 3
   -1.2406    0.2676    0.0000 2
   -1.1643   -1.0726    0.0000 2
    1.2088    0.4056    0.0000 2
    0.1908   -1.6478    0.0000 2
   -0.1331    1.9946    0.0000 1
   -2.0223   -1.7317    0.0000 1
    0.2351   -2.7487    0.0000 1
   -3.3089    0.3984    0.0000 1
   -2.4533    1.9332    0.0000 1
%endblock AtomicCoordinatesAndAtomicSpecies
#############
# Unit Cell
#############
LatticeConstant 1.0 Ang
%block LatticeVectors
    12.190149   0.000000    0.000000
    0.000000    11.937874   0.000000
    0.000000    0.000000    6.994977
%endblock LatticeVectors
%include ../../../Defaults.fdf
************************** End of input data file *****************************

reinit: -----------------------------------------------------------------------
reinit: System Name: 
reinit: -----------------------------------------------------------------------
reinit: System Label: Cytosine
reinit: -----------------------------------------------------------------------

NOTE on units for spin output: 
{S} is the spin magnetic moment, in units of the Bohr magneton,
assuming a g-factor for the electron spin of exactly 2.
The spin magnetic moment is then numerically equal to the charge inbalance,
in units of electrons, between the spin-up and -down channels.


initatom: Reading input for the pseudopotentials and atomic orbitals ----------
Species number:   1 Atomic number:    1 Label: H
Species number:   2 Atomic number:    6 Label: C
Species number:   3 Atomic number:    7 Label: N
Species number:   4 Atomic number:    8 Label: O

Ground state valence configuration (from tables):   1s01  2p00  3d00  4f00
Ground state valence configuration (from tables):   2s02  2p02  3d00  4f00
Ground state valence configuration (from tables):   2s02  2p03  3d00  4f00
Ground state valence configuration (from tables):   2s02  2p04  3d00  4f00

---- Processing specs for species: H
Reading pseudopotential information in PSML from:
  ../../../Pseudos/PBE/H/H.psml
PSML file version: 1.1
Using libxc ids:  101 130
GGA--PBE XC_GGA_X_PBE--XC_GGA_C_PBE pb
PSML uuid: d073b020-3e16-11ef-6770-6689b1f74d2d

---- Processing specs for species: C
Reading pseudopotential information in PSML from:
  ../../../Pseudos/PBE/C/C.psml
PSML file version: 1.1
Using libxc ids:  101 130
GGA--PBE XC_GGA_X_PBE--XC_GGA_C_PBE pb
PSML uuid: b2c727b0-3e65-11ef-7b18-4b3656dbbbdf

---- Processing specs for species: N
Reading pseudopotential information in PSML from:
  ../../../Pseudos/PBE/N/N.psml
PSML file version: 1.1
Using libxc ids:  101 130
GGA--PBE XC_GGA_X_PBE--XC_GGA_C_PBE pb
PSML uuid: c22083e0-3e3e-11ef-7253-eaffe77f5605

---- Processing specs for species: O
Reading pseudopotential information in PSML from:
  ../../../Pseudos/PBE/O/O.psml
PSML file version: 1.1
Using libxc ids:  101 130
GGA--PBE XC_GGA_X_PBE--XC_GGA_C_PBE pb
PSML uuid: 09fbd140-685d-11ef-4271-a98e77ff8e27

---- Pseudopotential check for H 

Pseudopotential generated from a fully relativistic atomic calculation
There are spin-orbit semi-local pseudopotentials available

Pseudized shells:
1s( 1.00) rc: 0.05
Valence configuration for ps generation: 1s: Total charge:   1.000000

---- Pseudopotential check for C 

Pseudopotential generated from a fully relativistic atomic calculation
There are spin-orbit semi-local pseudopotentials available

Pseudized shells:
2s( 2.00) rc: 1.10
2p( 2.00) rc: 1.00
3d( 0.00) rc: 0.96
Valence configuration for ps generation: 2s:2p: Total charge:   4.000000

---- Pseudopotential check for N 

Pseudopotential generated from a fully relativistic atomic calculation
There are spin-orbit semi-local pseudopotentials available

Pseudized shells:
2s( 2.00) rc: 1.02
2p( 3.00) rc: 1.36
3d( 0.00) rc: 3.29
Valence configuration for ps generation: 2s:2p: Total charge:   5.000000

---- Pseudopotential check for O 

Pseudopotential generated from a fully relativistic atomic calculation
There are spin-orbit semi-local pseudopotentials available

Pseudized shells:
2s( 2.00) rc: 1.05
2p( 4.00) rc: 1.02
Valence configuration for ps generation: 2s:2p: Total charge:   6.000000
For H, standard SIESTA heuristics set lmxkb to 2
 (one more than the basis l, including polarization orbitals).
Use PS.lmax or PS.KBprojectors blocks to override.
For C, standard SIESTA heuristics set lmxkb to 3
 (one more than the basis l, including polarization orbitals).
Use PS.lmax or PS.KBprojectors blocks to override.
For N, standard SIESTA heuristics set lmxkb to 3
 (one more than the basis l, including polarization orbitals).
Use PS.lmax or PS.KBprojectors blocks to override.
For O, standard SIESTA heuristics set lmxkb to 3
 (one more than the basis l, including polarization orbitals).
Use PS.lmax or PS.KBprojectors blocks to override.
../../../Pseudos/PBE/H/H.psml pseudopotential only contains V_ls up to l=0 -- lmxkb reset.
../../../Pseudos/PBE/C/C.psml pseudopotential only contains V_ls up to l=2 -- lmxkb reset.
../../../Pseudos/PBE/N/N.psml pseudopotential only contains V_ls up to l=2 -- lmxkb reset.
../../../Pseudos/PBE/O/O.psml pseudopotential only contains V_ls up to l=1 -- lmxkb reset.

<basis_specs>
===============================================================================
H                    Z=   1    Mass=  1.0080        Charge= 0.17977+309
Lmxo=1 Lmxkb= 0    BasisType=split      Semic=F
L=0  Nsemic=0  Cnfigmx=1
          i=1  nzeta=2  polorb=1  (1s)  (to be polarized perturbatively)
            splnorm:   0.62000    
               vcte:    40.000    
               rinn:  -0.90000    
               qcoe:    0.0000    
               qyuk:    0.0000    
               qwid:   0.10000E-01
                rcs:    0.0000      0.0000    
            lambdas:    1.0000      1.0000    
L=1  Nsemic=0  Cnfigmx=2
          i=1  nzeta=0  polorb=0  (2p)  (perturbative polarization orbital) (from 1s)
===============================================================================
</basis_specs>

Filter: Requested cutoff:  290.000000 Ry
Using PAO.SplitTailNorm
atom: Called for H                     (Z =   1)
NOTE: H pseudopotential has channels up to l= 0
NOTE: PAOs with higher l will be generated with V_local
Maximum radius (at nrval) set to   50.00000 8518

read_vps: Pseudopotential generation method:
read_vps: ATM4.2.7  Troullier-Martins                       
Valence charge in pseudo generation:    1.00000

xc_check: Exchange-correlation functional:
xc_check: GGA Perdew, Burke & Ernzerhof 1996
V l=0 = -2*Zval/r beyond r=  0.0665
All V_l potentials equal beyond r=  0.0665
This should be close to max(r_c) in ps generation
All pots = -2*Zval/r beyond r=  0.0665
Using small-core scheme (local charge) for Vlocal

VLOCAL_FROM_CHLOCAL: 99.0% of the norm of Vloc inside   9809.099 Ry
VLOCAL_FROM_CHLOCAL: 99.9% of the norm of Vloc inside  22355.118 Ry
atom: Maximum radius for chlocal:    0.08171
atom: Maximum radius for r*vlocal+2*Zval:    0.07045

KBgen: Kleinman-Bylander projectors: 
GHOST: No ghost state for L =  0
KBproj: WARNING: Rc(0)=      0.2584
KBproj: WARNING: Cut off radius for the KB projector too small
   l= 0   rc=  0.258429   el= -0.477182   Ekb=-40.187490   kbcos= -0.006063

KBgen: Total number of Kleinman-Bylander projectors:   1
atom: -------------------------------------------------------------------------

atom: SANKEY-TYPE ORBITALS:
atom: Selected multiple-zeta basis: split     

SPLIT: Orbitals with angular momentum L= 0

SPLIT: Basis orbitals for state 1s

SPLIT: PAO cut-off radius determined from an
SPLIT: energy shift=  0.005000 Ry
Split based on tail norm

   izeta = 1
                 lambda =    1.000000
                     rc =    5.772464
                 energy =   -0.471503
                kinetic =    0.941611
    potential(screened) =   -1.413114
       potential(ionic) =   -1.936122
PAO Filter: Cutoff used:  142.10 Ry
PAO Filter: diagnostic kin energy tol:    0.003000 Ry
PAO Filter: Nominal cutoff (before filtering):  107.24 Ry
Filter:    Number of eigenfunctions  of the
           filtering kernel (total, used)= 55 20

   izeta = 2
                 rmatch =    1.661681
              splitnorm =    0.620000
                 energy =    1.741021
                kinetic =    5.838313
    potential(screened) =   -4.097292
       potential(ionic) =   -4.634502
PAO Filter: Cutoff used:  142.10 Ry
PAO Filter: diagnostic kin energy tol:    0.003000 Ry
PAO Filter: Nominal cutoff (before filtering):  829.51 Ry
Filter:    Number of eigenfunctions  of the
           filtering kernel (total, used)= 23  5
*Note: V_local used for l= 1

** Using vlocal for PAOs with L= 1

POLgen: Perturbative polarization orbital with L=  1

POLgen: Polarization orbital for state 1s
*Note: V_local used for lpol= 1

** Using vlocal for PAOs with L= 1
Split based on tail norm

   izeta = 1
                     rc =    5.772464
                 energy =    0.606793
                kinetic =    1.227790
    potential(screened) =   -0.620997
       potential(ionic) =   -1.099517
PAO Filter: diagnostic kin energy tol:    0.003000 Ry
PAO Filter: Nominal cutoff (before filtering):   49.50 Ry
Filter:    Number of eigenfunctions  of the
           filtering kernel (total, used)= 55 20
atom: Total number of Sankey-type orbitals:  5

atm_pop: Valence configuration (for local Pseudopot. screening):
 1s( 1.00)                                                            
 2p( 0.00)                                                            
Vna: chval, zval:    1.00000   1.00000

Vna:  Cut-off radius for the neutral-atom potential:   5.772464
VNA Filter: diagnostic kinetic energy tol:    0.003000 Ry
VNA Filter: Nominal cutoff (before filtering):22953.69 Ry
VNA Filter: Cutoff used:   290.00 Ry
Filter:    Number of eigenfunctions  of the
           filtering kernel (total, used)= 74 30

atom: _________________________________________________________________________

<basis_specs>
===============================================================================
C                    Z=   6    Mass=  12.011        Charge= 0.17977+309
Lmxo=2 Lmxkb= 2    BasisType=split      Semic=F
L=0  Nsemic=0  Cnfigmx=2
          i=1  nzeta=2  polorb=0  (2s)
            splnorm:   0.28000    
               vcte:    40.000    
               rinn:  -0.90000    
               qcoe:    0.0000    
               qyuk:    0.0000    
               qwid:   0.10000E-01
                rcs:    0.0000      0.0000    
            lambdas:    1.0000      1.0000    
L=1  Nsemic=0  Cnfigmx=2
          i=1  nzeta=2  polorb=1  (2p)  (to be polarized perturbatively)
            splnorm:   0.28000    
               vcte:    40.000    
               rinn:  -0.90000    
               qcoe:    0.0000    
               qyuk:    0.0000    
               qwid:   0.10000E-01
                rcs:    0.0000      0.0000    
            lambdas:    1.0000      1.0000    
L=2  Nsemic=0  Cnfigmx=3
          i=1  nzeta=0  polorb=0  (3d)  (perturbative polarization orbital) (from 2p)
-------------------------------------------------------------------------------
L=0  Nkbl=1  erefs: 0.17977+309
L=1  Nkbl=1  erefs: 0.17977+309
L=2  Nkbl=1  erefs: 0.17977+309
===============================================================================
</basis_specs>

Filter: Requested cutoff:  290.000000 Ry
Using PAO.SplitTailNorm
atom: Called for C                     (Z =   6)
Maximum radius (at nrval) set to   50.00000 8518

read_vps: Pseudopotential generation method:
read_vps: ATM4.2.7  Troullier-Martins                       
Valence charge in pseudo generation:    4.00000

xc_check: Exchange-correlation functional:
xc_check: GGA Perdew, Burke & Ernzerhof 1996
V l=0 = -2*Zval/r beyond r=  1.5440
V l=1 = -2*Zval/r beyond r=  1.5440
V l=2 = -2*Zval/r beyond r=  1.5440
All V_l potentials equal beyond r=  1.0917
This should be close to max(r_c) in ps generation
All pots = -2*Zval/r beyond r=  1.5440
Using large-core scheme (fit) for Vlocal

atom: Estimated core radius    1.54400

atom: Including non-local core corrections could be a good idea
Fit of Vlocal with continuous 2nd derivative
Fitting vlocal at       1.0950
Choosing vlocal chloc cutoff:  5160  1.729904
qtot up to nchloc:    3.99992261
atom: Maximum radius for chlocal:    1.72990
atom: Maximum radius for r*vlocal+2*Zval:    1.72990

KBgen: Kleinman-Bylander projectors: 
GHOST: No ghost state for L =  0
   l= 0   rc=  1.092775   el= -1.010231   Ekb=  9.458959   kbcos=  0.268546
GHOST: No ghost state for L =  1
j- l= 1   rc=  1.124089   el= -0.388958   Ekb= -6.558040   kbcos= -0.208835
GHOST: No ghost state for L =  1
j+ l= 1   rc=  1.124089   el= -0.388361   Ekb= -6.536878   kbcos= -0.208625
GHOST: No ghost state for L =  2
j- l= 2   rc=  1.141229   el=  0.012917   Ekb= -2.945149   kbcos= -0.002285
GHOST: No ghost state for L =  2
j+ l= 2   rc=  1.141229   el=  0.012917   Ekb= -2.779662   kbcos= -0.002340

KBgen: Total number of Kleinman-Bylander projectors:  17
atom: -------------------------------------------------------------------------

atom: SANKEY-TYPE ORBITALS:
atom: Selected multiple-zeta basis: split     

SPLIT: Orbitals with angular momentum L= 0

SPLIT: Basis orbitals for state 2s

SPLIT: PAO cut-off radius determined from an
SPLIT: energy shift=  0.005000 Ry
Split based on tail norm

   izeta = 1
                 lambda =    1.000000
                     rc =    4.858714
                 energy =   -1.004485
                kinetic =    0.905437
    potential(screened) =   -1.909922
       potential(ionic) =   -5.480972
PAO Filter: Cutoff used:  142.10 Ry
PAO Filter: diagnostic kin energy tol:    0.003000 Ry
PAO Filter: Nominal cutoff (before filtering):   37.27 Ry
Filter:    Number of eigenfunctions  of the
           filtering kernel (total, used)= 48 17

   izeta = 2
                 rmatch =    2.567525
              splitnorm =    0.280000
                 energy =   -0.342998
                kinetic =    2.329205
    potential(screened) =   -2.672203
       potential(ionic) =   -6.653639
PAO Filter: Cutoff used:  142.10 Ry
PAO Filter: diagnostic kin energy tol:    0.003000 Ry
PAO Filter: Nominal cutoff (before filtering):   92.37 Ry
Filter:    Number of eigenfunctions  of the
           filtering kernel (total, used)= 30  8

SPLIT: Orbitals with angular momentum L= 1

SPLIT: Basis orbitals for state 2p

SPLIT: PAO cut-off radius determined from an
SPLIT: energy shift=  0.005000 Ry
Split based on tail norm

   izeta = 1
                 lambda =    1.000000
                     rc =    6.008450
                 energy =   -0.382852
                kinetic =    2.496059
    potential(screened) =   -2.878912
       potential(ionic) =   -6.319668
PAO Filter: Cutoff used:  142.10 Ry
PAO Filter: diagnostic kin energy tol:    0.003000 Ry
PAO Filter: Nominal cutoff (before filtering):   75.63 Ry
Filter:    Number of eigenfunctions  of the
           filtering kernel (total, used)= 57 21

   izeta = 2
                 rmatch =    3.113112
              splitnorm =    0.280000
                 energy =   -0.102258
                kinetic =    4.484352
    potential(screened) =   -4.586610
       potential(ionic) =   -8.555446
PAO Filter: Cutoff used:  142.10 Ry
PAO Filter: diagnostic kin energy tol:    0.003000 Ry
PAO Filter: Nominal cutoff (before filtering):   84.16 Ry
Filter:    Number of eigenfunctions  of the
           filtering kernel (total, used)= 34 10

POLgen: Perturbative polarization orbital with L=  2

POLgen: Polarization orbital for state 2p
Split based on tail norm

   izeta = 1
                     rc =    6.008450
                 energy =    1.072034
                kinetic =    2.197141
    potential(screened) =   -1.125106
       potential(ionic) =   -3.913062
PAO Filter: diagnostic kin energy tol:    0.003000 Ry
PAO Filter: Nominal cutoff (before filtering):   65.81 Ry
Filter:    Number of eigenfunctions  of the
           filtering kernel (total, used)= 57 20
atom: Total number of Sankey-type orbitals: 13

atm_pop: Valence configuration (for local Pseudopot. screening):
 2s( 2.00)                                                            
 2p( 2.00)                                                            
 3d( 0.00)                                                            
Vna: chval, zval:    4.00000   4.00000

Vna:  Cut-off radius for the neutral-atom potential:   6.008450
VNA Filter: diagnostic kinetic energy tol:    0.003000 Ry
VNA Filter: Nominal cutoff (before filtering):   48.87 Ry
VNA Filter: Cutoff used:   290.00 Ry
Filter:    Number of eigenfunctions  of the
           filtering kernel (total, used)= 77 31

atom: _________________________________________________________________________

<basis_specs>
===============================================================================
N                    Z=   7    Mass=  14.007        Charge= 0.17977+309
Lmxo=2 Lmxkb= 2    BasisType=split      Semic=F
L=0  Nsemic=0  Cnfigmx=2
          i=1  nzeta=2  polorb=0  (2s)
            splnorm:   0.28000    
               vcte:    40.000    
               rinn:  -0.90000    
               qcoe:    0.0000    
               qyuk:    0.0000    
               qwid:   0.10000E-01
                rcs:    0.0000      0.0000    
            lambdas:    1.0000      1.0000    
L=1  Nsemic=0  Cnfigmx=2
          i=1  nzeta=2  polorb=1  (2p)  (to be polarized perturbatively)
            splnorm:   0.28000    
               vcte:    40.000    
               rinn:  -0.90000    
               qcoe:    0.0000    
               qyuk:    0.0000    
               qwid:   0.10000E-01
                rcs:    0.0000      0.0000    
            lambdas:    1.0000      1.0000    
L=2  Nsemic=0  Cnfigmx=3
          i=1  nzeta=0  polorb=0  (3d)  (perturbative polarization orbital) (from 2p)
-------------------------------------------------------------------------------
L=0  Nkbl=1  erefs: 0.17977+309
L=1  Nkbl=1  erefs: 0.17977+309
L=2  Nkbl=1  erefs: 0.17977+309
===============================================================================
</basis_specs>

Filter: Requested cutoff:  290.000000 Ry
Using PAO.SplitTailNorm
atom: Called for N                     (Z =   7)
Maximum radius (at nrval) set to   50.00000 8518

read_vps: Pseudopotential generation method:
read_vps: ATM4.2.7  Troullier-Martins                       
Valence charge in pseudo generation:    5.00000

xc_check: Exchange-correlation functional:
xc_check: GGA Perdew, Burke & Ernzerhof 1996
V l=0 = -2*Zval/r beyond r=  1.3505
V l=1 = -2*Zval/r beyond r=  1.3655
V l=2 = -2*Zval/r beyond r=  3.2536
All V_l potentials equal beyond r=  3.2406
This should be close to max(r_c) in ps generation
All pots = -2*Zval/r beyond r=  3.2536
Using small-core scheme (local charge) for Vlocal

VLOCAL_FROM_CHLOCAL: 99.0% of the norm of Vloc inside      4.134 Ry
VLOCAL_FROM_CHLOCAL: 99.9% of the norm of Vloc inside      9.420 Ry
atom: Maximum radius for chlocal:    3.83522
atom: Maximum radius for r*vlocal+2*Zval:    3.56452

KBgen: Kleinman-Bylander projectors: 
GHOST: No ghost state for L =  0
   l= 0   rc=  3.286396   el= -1.364990   Ekb= -4.084395   kbcos= -0.707149
GHOST: No ghost state for L =  1
j- l= 1   rc=  3.273237   el= -0.522099   Ekb= -9.337483   kbcos= -0.603568
GHOST: No ghost state for L =  1
j+ l= 1   rc=  3.273237   el= -0.520710   Ekb= -9.322891   kbcos= -0.603256
GHOST: No ghost state for L =  2
j- l= 2   rc=  3.699250   el=  0.012944   Ekb= -0.680922   kbcos= -0.059812
GHOST: No ghost state for L =  2
j+ l= 2   rc=  3.699250   el=  0.012944   Ekb= -0.679799   kbcos= -0.059842

KBgen: Total number of Kleinman-Bylander projectors:  17
atom: -------------------------------------------------------------------------

atom: SANKEY-TYPE ORBITALS:
atom: Selected multiple-zeta basis: split     

SPLIT: Orbitals with angular momentum L= 0

SPLIT: Basis orbitals for state 2s

SPLIT: PAO cut-off radius determined from an
SPLIT: energy shift=  0.005000 Ry
Split based on tail norm

   izeta = 1
                 lambda =    1.000000
                     rc =    4.256654
                 energy =   -1.359295
                kinetic =    1.255415
    potential(screened) =   -2.614710
       potential(ionic) =   -8.142669
PAO Filter: Cutoff used:  142.10 Ry
PAO Filter: diagnostic kin energy tol:    0.003000 Ry
PAO Filter: Nominal cutoff (before filtering):   67.41 Ry
Filter:    Number of eigenfunctions  of the
           filtering kernel (total, used)= 43 14

   izeta = 2
                 rmatch =    2.177654
              splitnorm =    0.280000
                 energy =   -0.492898
                kinetic =    3.145026
    potential(screened) =   -3.637923
       potential(ionic) =   -9.831650
PAO Filter: Cutoff used:  142.10 Ry
PAO Filter: diagnostic kin energy tol:    0.003000 Ry
PAO Filter: Nominal cutoff (before filtering):  127.34 Ry
Filter:    Number of eigenfunctions  of the
           filtering kernel (total, used)= 27  7

SPLIT: Orbitals with angular momentum L= 1

SPLIT: Basis orbitals for state 2p

SPLIT: PAO cut-off radius determined from an
SPLIT: energy shift=  0.005000 Ry
Split based on tail norm

   izeta = 1
                 lambda =    1.000000
                     rc =    5.274774
                 energy =   -0.515520
                kinetic =    3.486851
    potential(screened) =   -4.002371
       potential(ionic) =   -9.345231
PAO Filter: Cutoff used:  142.10 Ry
PAO Filter: diagnostic kin energy tol:    0.003000 Ry
PAO Filter: Nominal cutoff (before filtering):   56.62 Ry
Filter:    Number of eigenfunctions  of the
           filtering kernel (total, used)= 51 18

   izeta = 2
                 rmatch =    2.619595
              splitnorm =    0.280000
                 energy =   -0.135315
                kinetic =    6.112412
    potential(screened) =   -6.247726
       potential(ionic) =  -12.409759
PAO Filter: Cutoff used:  142.10 Ry
PAO Filter: diagnostic kin energy tol:    0.003000 Ry
PAO Filter: Nominal cutoff (before filtering):   63.34 Ry
Filter:    Number of eigenfunctions  of the
           filtering kernel (total, used)= 30  8

POLgen: Perturbative polarization orbital with L=  2

POLgen: Polarization orbital for state 2p
Split based on tail norm

   izeta = 1
                     rc =    5.274774
                 energy =    1.560155
                kinetic =    2.548459
    potential(screened) =   -0.988304
       potential(ionic) =   -5.056663
PAO Filter: diagnostic kin energy tol:    0.003000 Ry
PAO Filter: Nominal cutoff (before filtering):   61.33 Ry
Filter:    Number of eigenfunctions  of the
           filtering kernel (total, used)= 51 17
atom: Total number of Sankey-type orbitals: 13

atm_pop: Valence configuration (for local Pseudopot. screening):
 2s( 2.00)                                                            
 2p( 3.00)                                                            
 3d( 0.00)                                                            
Vna: chval, zval:    5.00000   5.00000

Vna:  Cut-off radius for the neutral-atom potential:   5.274774
VNA Filter: diagnostic kinetic energy tol:    0.003000 Ry
VNA Filter: Nominal cutoff (before filtering):   50.50 Ry
VNA Filter: Cutoff used:   290.00 Ry
Filter:    Number of eigenfunctions  of the
           filtering kernel (total, used)= 68 27

atom: _________________________________________________________________________

<basis_specs>
===============================================================================
O                    Z=   8    Mass=  15.999        Charge= 0.17977+309
Lmxo=2 Lmxkb= 1    BasisType=split      Semic=F
L=0  Nsemic=0  Cnfigmx=2
          i=1  nzeta=2  polorb=0  (2s)
            splnorm:   0.28000    
               vcte:    40.000    
               rinn:  -0.90000    
               qcoe:    0.0000    
               qyuk:    0.0000    
               qwid:   0.10000E-01
                rcs:    0.0000      0.0000    
            lambdas:    1.0000      1.0000    
L=1  Nsemic=0  Cnfigmx=2
          i=1  nzeta=2  polorb=1  (2p)  (to be polarized perturbatively)
            splnorm:   0.28000    
               vcte:    40.000    
               rinn:  -0.90000    
               qcoe:    0.0000    
               qyuk:    0.0000    
               qwid:   0.10000E-01
                rcs:    0.0000      0.0000    
            lambdas:    1.0000      1.0000    
L=2  Nsemic=0  Cnfigmx=3
          i=1  nzeta=0  polorb=0  (3d)  (perturbative polarization orbital) (from 2p)
-------------------------------------------------------------------------------
L=0  Nkbl=1  erefs: 0.17977+309
L=1  Nkbl=1  erefs: 0.17977+309
===============================================================================
</basis_specs>

Filter: Requested cutoff:  290.000000 Ry
Using PAO.SplitTailNorm
atom: Called for O                     (Z =   8)
NOTE: O pseudopotential has channels up to l= 1
NOTE: PAOs with higher l will be generated with V_local
Maximum radius (at nrval) set to   50.00000 8518

read_vps: Pseudopotential generation method:
read_vps: ATM4.2.7  Troullier-Martins                       
Valence charge in pseudo generation:    6.00000

xc_check: Exchange-correlation functional:
xc_check: GGA Perdew, Burke & Ernzerhof 1996
V l=0 = -2*Zval/r beyond r=  1.1230
V l=1 = -2*Zval/r beyond r=  1.1184
All V_l potentials equal beyond r=  1.0390
This should be close to max(r_c) in ps generation
All pots = -2*Zval/r beyond r=  1.1230
Using small-core scheme (local charge) for Vlocal

VLOCAL_FROM_CHLOCAL: 99.0% of the norm of Vloc inside     40.211 Ry
VLOCAL_FROM_CHLOCAL: 99.9% of the norm of Vloc inside     91.641 Ry
atom: Maximum radius for chlocal:    1.25723
atom: Maximum radius for r*vlocal+2*Zval:    1.14816

KBgen: Kleinman-Bylander projectors: 
GHOST: No ghost state for L =  0
   l= 0   rc=  1.272524   el= -1.759797   Ekb= 11.287271   kbcos=  0.312215
GHOST: No ghost state for L =  1
j- l= 1   rc=  1.269961   el= -0.665560   Ekb= -8.895322   kbcos= -0.351626
GHOST: No ghost state for L =  1
j+ l= 1   rc=  1.271242   el= -0.662923   Ekb= -8.864233   kbcos= -0.351011

KBgen: Total number of Kleinman-Bylander projectors:   7
atom: -------------------------------------------------------------------------

atom: SANKEY-TYPE ORBITALS:
atom: Selected multiple-zeta basis: split     

SPLIT: Orbitals with angular momentum L= 0

SPLIT: Basis orbitals for state 2s

SPLIT: PAO cut-off radius determined from an
SPLIT: energy shift=  0.005000 Ry
Split based on tail norm

   izeta = 1
                 lambda =    1.000000
                     rc =    3.812214
                 energy =   -1.754187
                kinetic =    1.612054
    potential(screened) =   -3.366241
       potential(ionic) =  -11.288798
PAO Filter: Cutoff used:  142.10 Ry
PAO Filter: diagnostic kin energy tol:    0.003000 Ry
PAO Filter: Nominal cutoff (before filtering):   62.68 Ry
Filter:    Number of eigenfunctions  of the
           filtering kernel (total, used)= 40 13

   izeta = 2
                 rmatch =    1.895663
              splitnorm =    0.280000
                 energy =   -0.709709
                kinetic =    3.823914
    potential(screened) =   -4.533623
       potential(ionic) =  -13.470361
PAO Filter: Cutoff used:  142.10 Ry
PAO Filter: diagnostic kin energy tol:    0.003000 Ry
PAO Filter: Nominal cutoff (before filtering):  121.35 Ry
Filter:    Number of eigenfunctions  of the
           filtering kernel (total, used)= 25  6

SPLIT: Orbitals with angular momentum L= 1

SPLIT: Basis orbitals for state 2p

SPLIT: PAO cut-off radius determined from an
SPLIT: energy shift=  0.005000 Ry
Split based on tail norm

   izeta = 1
                 lambda =    1.000000
                     rc =    4.733759
                 energy =   -0.658185
                kinetic =    4.925190
    potential(screened) =   -5.583375
       potential(ionic) =  -13.277097
PAO Filter: Cutoff used:  142.10 Ry
PAO Filter: diagnostic kin energy tol:    0.003000 Ry
PAO Filter: Nominal cutoff (before filtering):   97.34 Ry
Filter:    Number of eigenfunctions  of the
           filtering kernel (total, used)= 47 16

   izeta = 2
                 rmatch =    2.269212
              splitnorm =    0.280000
                 energy =   -0.173027
                kinetic =    8.566037
    potential(screened) =   -8.739063
       potential(ionic) =  -17.643478
PAO Filter: Cutoff used:  142.10 Ry
PAO Filter: diagnostic kin energy tol:    0.003000 Ry
PAO Filter: Nominal cutoff (before filtering):  105.19 Ry
Filter:    Number of eigenfunctions  of the
           filtering kernel (total, used)= 28  6
*Note: V_local used for l= 2

** Using vlocal for PAOs with L= 2

POLgen: Perturbative polarization orbital with L=  2

POLgen: Polarization orbital for state 2p
*Note: V_local used for lpol= 2

** Using vlocal for PAOs with L= 2
Split based on tail norm

   izeta = 1
                     rc =    4.733759
                 energy =    2.106194
                kinetic =    3.893912
    potential(screened) =   -1.787718
       potential(ionic) =   -7.731298
PAO Filter: diagnostic kin energy tol:    0.003000 Ry
PAO Filter: Nominal cutoff (before filtering):  104.86 Ry
Filter:    Number of eigenfunctions  of the
           filtering kernel (total, used)= 47 15
atom: Total number of Sankey-type orbitals: 13

atm_pop: Valence configuration (for local Pseudopot. screening):
 2s( 2.00)                                                            
 2p( 4.00)                                                            
 3d( 0.00)                                                            
Vna: chval, zval:    6.00000   6.00000

Vna:  Cut-off radius for the neutral-atom potential:   4.733759
VNA Filter: diagnostic kinetic energy tol:    0.003000 Ry
VNA Filter: Nominal cutoff (before filtering):   51.69 Ry
VNA Filter: Cutoff used:   290.00 Ry
Filter:    Number of eigenfunctions  of the
           filtering kernel (total, used)= 62 24

atom: _________________________________________________________________________

prinput: Basis input 

PAO.BasisType split     

%block ChemicalSpeciesLabel
    1    1 H                       # Species index, atomic number, species label
    2    6 C                       # Species index, atomic number, species label
    3    7 N                       # Species index, atomic number, species label
    4    8 O                       # Species index, atomic number, species label
%endblock ChemicalSpeciesLabel

%block PAO.Basis                 # Define Basis set
# WARNING: This information might be incomplete!
H                     1                    # Species label, number of l-shells
 n=1   0   2 P   1                   # n, l, Nzeta, Polarization, NzetaPol
   5.772      1.662   
   1.000      1.000   
C                     2                    # Species label, number of l-shells
 n=2   0   2                         # n, l, Nzeta 
   4.859      2.568   
   1.000      1.000   
 n=2   1   2 P   1                   # n, l, Nzeta, Polarization, NzetaPol
   6.008      3.113   
   1.000      1.000   
N                     2                    # Species label, number of l-shells
 n=2   0   2                         # n, l, Nzeta 
   4.257      2.178   
   1.000      1.000   
 n=2   1   2 P   1                   # n, l, Nzeta, Polarization, NzetaPol
   5.275      2.620   
   1.000      1.000   
O                     2                    # Species label, number of l-shells
 n=2   0   2                         # n, l, Nzeta 
   3.812      1.896   
   1.000      1.000   
 n=2   1   2 P   1                   # n, l, Nzeta, Polarization, NzetaPol
   4.734      2.269   
   1.000      1.000   
%endblock PAO.Basis

prinput: ----------------------------------------------------------------------

Dumping basis to NetCDF file H.ion.nc
Dumping basis to NetCDF file C.ion.nc
Dumping basis to NetCDF file N.ion.nc
Dumping basis to NetCDF file O.ion.nc
coor:   Atomic-coordinates input format  =     Cartesian coordinates
coor:                                          (in Angstroms)

siesta: Atomic coordinates (Bohr) and species
siesta:      4.18272   2.11423   0.00000  4        1
siesta:     -0.11244   1.85496   0.00000  3        2
siesta:     -4.61509   1.74119   0.00000  3        3
siesta:      2.44436  -1.84135   0.00000  3        4
siesta:     -2.34439   0.50569   0.00000  2        5
siesta:     -2.20021  -2.02692   0.00000  2        6
siesta:      2.28430   0.76647   0.00000  2        7
siesta:      0.36056  -3.11389   0.00000  2        8
siesta:     -0.25152   3.76925   0.00000  1        9
siesta:     -3.82159  -3.27244   0.00000  1       10
siesta:      0.44427  -5.19429   0.00000  1       11
siesta:     -6.25291   0.75287   0.00000  1       12
siesta:     -4.63607   3.65322   0.00000  1       13

siesta: System type = molecule  

initatomlists: Number of atoms, orbitals, and projectors:     13   129   131

siesta: ******************** Simulation parameters ****************************
siesta:
siesta: The following are some of the parameters of the simulation.
siesta: A complete list of the parameters used, including default values,
siesta: can be found in file out.fdf
siesta:
redata: Spin configuration                          = spin-orbit+offsite
redata: Number of spin components                   = 8
redata: Time-Reversal Symmetry                      = F
redata: Spin spiral                                 = F
redata: Long output                                 =   F
redata: Number of Atomic Species                    =        4
redata: Charge density info will appear in .RHO file
redata: Write Mulliken Pop.                         = NO
redata: Matel table size (NRTAB)                    =     1024
redata: Mesh Cutoff                                 =   300.0000 Ry
redata: Net charge of the system                    =     0.0000 |e|
redata: Min. number of SCF Iter                     =        1
redata: Max. number of SCF Iter                     =      200
redata: SCF convergence failure will abort job
redata: SCF mix quantity                            = Hamiltonian
redata: Mix DM or H after convergence               =   F
redata: Recompute H after scf cycle                 =   F
redata: Mix DM in first SCF step                    =   T
redata: Write Pulay info on disk                    =   F
redata: New DM Occupancy tolerance                  = 0.000000000001
redata: No kicks to SCF
redata: DM Mixing Weight for Kicks                  =     0.5000
redata: Require Harris convergence for SCF          =   F
redata: Harris energy tolerance for SCF             =     0.000100 eV
redata: Require DM convergence for SCF              =   T
redata: DM tolerance for SCF                        =     0.000008
redata: Require EDM convergence for SCF             =   F
redata: EDM tolerance for SCF                       =     0.001000 eV
redata: Require H convergence for SCF               =   T
redata: Hamiltonian tolerance for SCF               =     0.000001 eV
redata: Require (free) Energy convergence for SCF   =   F
redata: (free) Energy tolerance for SCF             =     0.000100 eV
redata: Using DFT-D3 dispersion                     =   F
redata: Using Saved Data (generic)                  =   F
redata: Use continuation files for DM               =   T
redata: Neglect nonoverlap interactions             =   F
redata: Method of Calculation                       = Diagonalization
redata: Electronic Temperature                      =     0.0000 K
redata: Fix the spin of the system                  =   F
redata: Split SR and SO contributions               =   F
redata: Max. number of TDED Iter                    =        1
redata: Number of TDED substeps                     =        3
redata: Dynamics option                             = Broyden coord. optimization
redata: Variable cell                               =   F
redata: Maximum number of optimization moves        =     1000
redata: Force tolerance                             =     0.0080 eV/Ang
mix.SCF: Pulay mixing                            = Pulay
mix.SCF:    Variant                              = stable
mix.SCF:    History steps                        = 6
mix.SCF:    Linear mixing weight                 =     0.250000
mix.SCF:    Mixing weight                        =     0.250000
mix.SCF:    SVD condition                        = 0.1000E-07
mix.SCF:    Restart steps                        = 24
mix.SCF:    Restart save steps                   = 3
mix.SCF: Spin-component mixing                   all
redata: Save all siesta data in one NC              =   F
redata: ***********************************************************************

%block SCF.Mixers
  Pulay
%endblock SCF.Mixers

%block SCF.Mixer.Pulay
  # Mixing method
  method pulay
  variant stable

  # Mixing options
  weight 0.2500
  weight.linear 0.2500
  history 6
  restart 24
  restart.save 3
%endblock SCF.Mixer.Pulay

DM_history_depth set to one: no extrapolation allowed by default for geometry relaxation
Size of DM history Fstack: 1
Total number of electrons:    42.000000
Total ionic charge:    42.000000

* ProcessorY, Blocksize:    4  17


* Orbital distribution balance (max,min):    17    10


siesta: k-grid: Number of k-points = 1
siesta: k-point is Gamma-only

diag: Algorithm                                     = ELPA-2stage
diag: ELPA GPU string key                           = nvidia-gpu
diag: Parallel over k                               =   F
diag: Use parallel 2D distribution                  =   T
diag: Parallel block-size                           = 17
diag: Parallel distribution                         =     2 x     4
diag: Used triangular part                          = Lower
diag: Absolute tolerance                            =  0.100E-15
diag: Orthogonalization factor                      =  0.100E-05
diag: Memory factor                                 =  1.0000

siesta: Constraints applied in the following order:
siesta: Constraint v=[  0.00000,  0.00000,  1.00000] (13): pos-dir
  [ 1 -- 13 ]
siesta: Constraint (1): pos
  [ 5 ]


ts: **************************************************************
ts: Save H and S matrices                           =    F
ts: Save DM and EDM matrices                        =    F
ts: Only save the overlap matrix S                  =    F
ts: **************************************************************

************************ Begin: TS CHECKS AND WARNINGS ************************
************************ End: TS CHECKS AND WARNINGS **************************


                     ====================================
                        Begin Broyden opt. move =      0
                     ====================================

outcell: Unit cell vectors (Ang):
       12.190149    0.000000    0.000000
        0.000000   11.937874    0.000000
        0.000000    0.000000    6.994977

outcell: Cell vector modules (Ang)   :   12.190149   11.937874    6.994977
outcell: Cell angles (23,13,12) (deg):     90.0000     90.0000     90.0000
outcell: Cell volume (Ang**3)        :   1017.9403
<dSpData1D:S at geom step 0
  <sparsity:sparsity for geom step 0
    nrows_g=129 nrows=17 sparsity=.1302 nnzs=2167, refcount: 8>
  <dData1D:(new from dSpData1D) n=2167, refcount: 1>
refcount: 1>
new_DM -- step:     1
Initializing Density Matrix...

Attempting to read DM from file... Failed...
DM filled with atomic data:
<dSpData2D:DM initialized from atoms
  <sparsity:sparsity for geom step 0
    nrows_g=129 nrows=17 sparsity=.1302 nnzs=2167, refcount: 9>
  <dData2D:DM n=2167 m=8, refcount: 1>
refcount: 1>
     spin moment: {S} , |S| = {    0.00000    0.00000   24.00000 }    24.00000

InitMesh: MESH = 128 x 128 x 80 = 1310720
InitMesh: Mesh cutoff (required, used) =   300.000   304.722 Ry
New grid distribution [1]: sub = 2
New grid distribution [2]: sub = 2
New grid distribution [3]: sub = 2
Setting up quadratic distribution...

stepf: Fermi-Dirac step function

siesta: Program's energy decomposition (eV):
siesta: Ebs     =      -436.817037
siesta: Eions   =      4731.031154
siesta: Ena     =      1536.917161
siesta: Ekin    =      1569.659781
siesta: Enl(+so)=      -859.017066
siesta: Eso(nil)=         0.000000
siesta: Edftu   =         0.000000
siesta: DEna    =       -26.493877
siesta: DUscf   =        19.571266
siesta: DUext   =         0.000000
siesta: Ex      =      -518.636285
siesta: Ec      =       -44.022755
siesta: Exc     =      -562.659040
siesta: EbV     =         0.000000
siesta: eta*DQ  =         0.000000
siesta: Emadel  =         0.000000
siesta: Emeta   =         0.000000
siesta: Emolmec =         0.000000
siesta: Ekinion =         0.000000
siesta: Eharris =     -3039.381198
siesta: Etot    =     -3053.052930
siesta: FreeEng =     -3053.052930

        iscf     Eharris(eV)        E_KS(eV)     FreeEng(eV)     dDmax    Ef(eV) dHmax(eV)
   scf:    1    -3039.381198    -3053.052930    -3053.052930  0.928228 -5.461395 37.272436
     spin moment: {S} , |S| = {   -0.00000   -0.00000    0.00002 }     0.00002
timer: Routine,Calls,Time,% = IterSCF        1       0.886   5.93
   scf:    2    -3064.676776    -3059.770364    -3059.770364  0.058972 -4.421190 28.257564
     spin moment: {S} , |S| = {   -0.00000   -0.00000    0.00002 }     0.00002
   scf:    3    -3062.895449    -3061.880320    -3061.880320  0.061202 -3.162668 13.744326
     spin moment: {S} , |S| = {    0.00000   -0.00000    0.00001 }     0.00001
   scf:    4    -3062.490153    -3062.207209    -3062.207209  0.053793 -4.130414  7.969239
     spin moment: {S} , |S| = {    0.00000   -0.00000    0.00000 }     0.00000
   scf:    5    -3062.698831    -3062.455957    -3062.455957  0.117693 -1.598602  0.852307
     spin moment: {S} , |S| = {    0.00000   -0.00000    0.00000 }     0.00000
   scf:    6    -3062.478436    -3062.471647    -3062.471647  0.007349 -1.723282  0.312634
     spin moment: {S} , |S| = {    0.00000   -0.00000    0.00000 }     0.00000
   scf:    7    -3062.481504    -3062.477051    -3062.477051  0.005948 -1.730529  0.169737
     spin moment: {S} , |S| = {    0.00000   -0.00000    0.00000 }     0.00000
   scf:    8    -3062.481358    -3062.479208    -3062.479208  0.002105 -1.763623  0.063418
     spin moment: {S} , |S| = {    0.00000   -0.00000    0.00000 }     0.00000
   scf:    9    -3062.480242    -3062.479714    -3062.479714  0.001192 -1.760233  0.043733
     spin moment: {S} , |S| = {    0.00000   -0.00000    0.00000 }     0.00000
   scf:   10    -3062.480185    -3062.479939    -3062.479939  0.000826 -1.762181  0.024733
     spin moment: {S} , |S| = {   -0.00000   -0.00000   -0.00000 }     0.00000
   scf:   11    -3062.480239    -3062.480073    -3062.480073  0.001066 -1.763617  0.015850
     spin moment: {S} , |S| = {   -0.00000   -0.00000   -0.00000 }     0.00000
   scf:   12    -3062.480125    -3062.480097    -3062.480097  0.000598 -1.762671  0.007255
     spin moment: {S} , |S| = {   -0.00000   -0.00000   -0.00000 }     0.00000
   scf:   13    -3062.480110    -3062.480103    -3062.480103  0.000323 -1.762164  0.003198
     spin moment: {S} , |S| = {   -0.00000   -0.00000   -0.00000 }     0.00000
   scf:   14    -3062.480106    -3062.480104    -3062.480104  0.000135 -1.762021  0.002085
     spin moment: {S} , |S| = {   -0.00000   -0.00000   -0.00000 }     0.00000
   scf:   15    -3062.480107    -3062.480105    -3062.480105  0.000164 -1.761759  0.000885
     spin moment: {S} , |S| = {   -0.00000   -0.00000   -0.00000 }     0.00000
   scf:   16    -3062.480106    -3062.480105    -3062.480105  0.000065 -1.761735  0.000374
     spin moment: {S} , |S| = {   -0.00000   -0.00000   -0.00000 }     0.00000
   scf:   17    -3062.480105    -3062.480105    -3062.480105  0.000026 -1.761765  0.000270
     spin moment: {S} , |S| = {   -0.00000   -0.00000   -0.00000 }     0.00000
   scf:   18    -3062.480105    -3062.480105    -3062.480105  0.000013 -1.761791  0.000119
     spin moment: {S} , |S| = {    0.00000   -0.00000   -0.00000 }     0.00000
   scf:   19    -3062.480105    -3062.480105    -3062.480105  0.000004 -1.761794  0.000049
     spin moment: {S} , |S| = {    0.00000   -0.00000   -0.00000 }     0.00000
   scf:   20    -3062.480105    -3062.480105    -3062.480105  0.000002 -1.761796  0.000025
     spin moment: {S} , |S| = {    0.00000   -0.00000    0.00000 }     0.00000
   scf:   21    -3062.480105    -3062.480105    -3062.480105  0.000001 -1.761795  0.000011
     spin moment: {S} , |S| = {    0.00000   -0.00000    0.00000 }     0.00000
   scf:   22    -3062.480105    -3062.480105    -3062.480105  0.000000 -1.761795  0.000007
     spin moment: {S} , |S| = {    0.00000   -0.00000    0.00000 }     0.00000
   scf:   23    -3062.480105    -3062.480105    -3062.480105  0.000000 -1.761794  0.000004
     spin moment: {S} , |S| = {    0.00000   -0.00000    0.00000 }     0.00000
   scf:   24    -3062.480105    -3062.480105    -3062.480105  0.000000 -1.761794  0.000002
     spin moment: {S} , |S| = {    0.00000   -0.00000    0.00000 }     0.00000
mix: Pulay -- resetting history
   scf:   25    -3062.480105    -3062.480105    -3062.480105  0.000000 -1.761794  0.000002
     spin moment: {S} , |S| = {    0.00000   -0.00000    0.00000 }     0.00000
   scf:   26    -3062.480105    -3062.480105    -3062.480105  0.000000 -1.761794  0.000001
     spin moment: {S} , |S| = {    0.00000    0.00000    0.00000 }     0.00000

SCF Convergence by DM+H criterion
max |DM_out - DM_in|         :     0.0000001228
max |H_out - H_in|      (eV) :     0.0000008245
SCF cycle converged after 26 iterations

Using DM_out to compute the final energy and forces

siesta: E_KS(eV) =            -3062.4801

siesta: E_KS - E_eggbox =     -3062.4801
     spin moment: {S} , |S| = {    0.00000    0.00000    0.00000 }     0.00000

siesta: Atomic forces (eV/Ang):
     1    0.455710    0.782788    0.000000
     2   -1.576862    2.122466    0.000000
     3   -1.255146    1.539836   -0.000000
     4    4.552721   -1.020380   -0.000000
     5   -0.329620   -1.594393   -0.000000
     6    2.025137   -3.001474    0.000000
     7    3.540835    1.516292    0.000000
     8   -5.994661   -2.137547    0.000000
     9    3.235451    1.718605    0.000000
    10   -0.109578   -0.955884    0.000000
    11    0.456294   -0.392459    0.000000
    12   -3.059460   -1.169365    0.000000
    13   -1.863935    2.502718   -0.000000
----------------------------------------
   Tot    0.076886   -0.088797   -0.000000
----------------------------------------
   Max    5.994661
   Res    1.893338    sqrt( Sum f_i^2 / 3N )
----------------------------------------
   Max    5.994661    constrained

Stress tensor Voigt[x,y,z,yz,xz,xy] (kbar):      -39.99      -36.02       -0.10        0.00        0.00       -4.57
(Free)E + p*V (eV/cell)    -3046.3618
Target enthalpy (eV/cell)    -3062.4801

Broyden_optim: max_history for broyden:   5
Broyden_optim: cycle on maxit: T
Broyden_optim: initial inverse jacobian:   1.0000

Broyden_optim: No of elements:     39

                     ====================================
                        Begin Broyden opt. move =      1
                     ====================================

outcell: Unit cell vectors (Ang):
       12.190149    0.000000    0.000000
        0.000000   11.937874    0.000000
        0.000000    0.000000    6.994977

outcell: Cell vector modules (Ang)   :   12.190149   11.937874    6.994977
outcell: Cell angles (23,13,12) (deg):     90.0000     90.0000     90.0000
outcell: Cell volume (Ang**3)        :   1017.9403
<dSpData1D:S at geom step 1
  <sparsity:sparsity for geom step 1
    nrows_g=129 nrows=17 sparsity=.1302 nnzs=2167, refcount: 8>
  <dData1D:(new from dSpData1D) n=2167, refcount: 1>
refcount: 1>
new_DM -- step:     2
Re-using DM from previous geometries...
Number of DMs in history: 1
 DM extrapolation coefficients: 
1   1.00000
New DM after history re-use:
<dSpData2D:SpM extrapolated using coords
  <sparsity:sparsity for geom step 1
    nrows_g=129 nrows=17 sparsity=.1302 nnzs=2167, refcount: 10>
  <dData2D:(temp array for extrapolation) n=2167 m=8, refcount: 1>
refcount: 1>
     spin moment: {S} , |S| = {   -0.00000   -0.00000   -0.00000 }     0.00000
Note: For starting DM, Qtot, Tr[D*S] =         42.00000000         41.78225619

InitMesh: MESH = 128 x 128 x 80 = 1310720
InitMesh: Mesh cutoff (required, used) =   300.000   304.722 Ry
New grid distribution [1]: sub = 2
New grid distribution [2]: sub = 2
New grid distribution [3]: sub = 2
Setting up quadratic distribution...

        iscf     Eharris(eV)        E_KS(eV)     FreeEng(eV)     dDmax    Ef(eV) dHmax(eV)
   scf:    1    -3055.099877    -3059.906493    -3059.906493  0.232478 -2.588820  8.896177
     spin moment: {S} , |S| = {   -0.00000    0.00000    0.00000 }     0.00000
   scf:    2    -2937.694034    -3022.932475    -3022.932475  0.531563 -1.086701 36.179263
     spin moment: {S} , |S| = {   -0.00000    0.00000   -0.00000 }     0.00000
   scf:    3    -3068.833279    -3062.640542    -3062.640542  0.407992 -3.157960  1.444883
     spin moment: {S} , |S| = {   -0.00000    0.00000    0.00000 }     0.00000
   scf:    4    -3062.759974    -3062.710822    -3062.710822  0.016413 -3.117749  0.566803
     spin moment: {S} , |S| = {   -0.00000    0.00000    0.00000 }     0.00000
   scf:    5    -3062.739933    -3062.730109    -3062.730109  0.011543 -3.091173  0.104880
     spin moment: {S} , |S| = {    0.00000    0.00000    0.00000 }     0.00000
   scf:    6    -3062.733075    -3062.731887    -3062.731887  0.002627 -3.097971  0.039291
     spin moment: {S} , |S| = {    0.00000    0.00000    0.00000 }     0.00000
   scf:    7    -3062.732019    -3062.731984    -3062.731984  0.000501 -3.107002  0.012986
     spin moment: {S} , |S| = {   -0.00000   -0.00000    0.00000 }     0.00000
   scf:    8    -3062.732005    -3062.731995    -3062.731995  0.000271 -3.107670  0.007456
     spin moment: {S} , |S| = {   -0.00000    0.00000    0.00000 }     0.00000
   scf:    9    -3062.732000    -3062.731998    -3062.731998  0.000233 -3.107752  0.001818
     spin moment: {S} , |S| = {   -0.00000   -0.00000    0.00000 }     0.00000
   scf:   10    -3062.731999    -3062.731999    -3062.731999  0.000058 -3.107678  0.000729
     spin moment: {S} , |S| = {   -0.00000    0.00000    0.00000 }     0.00000
   scf:   11    -3062.731999    -3062.731999    -3062.731999  0.000025 -3.107636  0.000237
     spin moment: {S} , |S| = {    0.00000    0.00000    0.00000 }     0.00000
   scf:   12    -3062.731999    -3062.731999    -3062.731999  0.000008 -3.107598  0.000107
     spin moment: {S} , |S| = {    0.00000   -0.00000    0.00000 }     0.00000
   scf:   13    -3062.731999    -3062.731999    -3062.731999  0.000003 -3.107575  0.000034
     spin moment: {S} , |S| = {   -0.00000    0.00000    0.00000 }     0.00000
   scf:   14    -3062.731999    -3062.731999    -3062.731999  0.000001 -3.107568  0.000014
     spin moment: {S} , |S| = {   -0.00000    0.00000    0.00000 }     0.00000
   scf:   15    -3062.731999    -3062.731999    -3062.731999  0.000000 -3.107563  0.000003
     spin moment: {S} , |S| = {    0.00000    0.00000    0.00000 }     0.00000
   scf:   16    -3062.731999    -3062.731999    -3062.731999  0.000000 -3.107562  0.000002
     spin moment: {S} , |S| = {   -0.00000    0.00000    0.00000 }     0.00000
   scf:   17    -3062.731999    -3062.731999    -3062.731999  0.000000 -3.107562  0.000001
     spin moment: {S} , |S| = {   -0.00000    0.00000    0.00000 }     0.00000

SCF Convergence by DM+H criterion
max |DM_out - DM_in|         :     0.0000000733
max |H_out - H_in|      (eV) :     0.0000007287
SCF cycle converged after 17 iterations

Using DM_out to compute the final energy and forces

siesta: E_KS(eV) =            -3062.7320
     spin moment: {S} , |S| = {   -0.00000    0.00000    0.00000 }     0.00000

siesta: Atomic forces (eV/Ang):
     1    3.999830    3.983826    0.000000
     2    1.074847   -0.505246    0.000000
     3   -1.875363   -0.667167   -0.000000
     4   -2.293145   -1.994698   -0.000000
     5   -0.841684   -1.085009   -0.000000
     6   -3.865314    1.625602    0.000000
     7   -2.280599   -3.495488    0.000000
     8    6.387296   -0.159618   -0.000000
     9   -2.715230    1.591524    0.000000
    10    0.377290   -1.762889   -0.000000
    11    0.404500   -0.870512    0.000000
    12    1.031848    5.529790    0.000000
    13    0.668530   -2.181833   -0.000000
----------------------------------------
   Tot    0.072807    0.008283   -0.000000
----------------------------------------
   Max    6.387296
   Res    2.119014    sqrt( Sum f_i^2 / 3N )
----------------------------------------
   Max    6.387296    constrained

Stress tensor Voigt[x,y,z,yz,xz,xy] (kbar):      -11.13      -13.12       -0.12        0.00        0.00       11.27
(Free)E + p*V (eV/cell)    -3057.5713
Target enthalpy (eV/cell)    -3062.7320

                     ====================================
                        Begin Broyden opt. move =      2
                     ====================================

outcell: Unit cell vectors (Ang):
       12.190149    0.000000    0.000000
        0.000000   11.937874    0.000000
        0.000000    0.000000    6.994977

outcell: Cell vector modules (Ang)   :   12.190149   11.937874    6.994977
outcell: Cell angles (23,13,12) (deg):     90.0000     90.0000     90.0000
outcell: Cell volume (Ang**3)        :   1017.9403
<dSpData1D:S at geom step 2
  <sparsity:sparsity for geom step 2
    nrows_g=129 nrows=17 sparsity=.1302 nnzs=2167, refcount: 8>
  <dData1D:(new from dSpData1D) n=2167, refcount: 1>
refcount: 1>
new_DM -- step:     3
Re-using DM from previous geometries...
Number of DMs in history: 1
 DM extrapolation coefficients: 
1   1.00000
New DM after history re-use:
<dSpData2D:SpM extrapolated using coords
  <sparsity:sparsity for geom step 2
    nrows_g=129 nrows=17 sparsity=.1302 nnzs=2167, refcount: 10>
  <dData2D:(temp array for extrapolation) n=2167 m=8, refcount: 1>
refcount: 1>
     spin moment: {S} , |S| = {   -0.00000    0.00000    0.00000 }     0.00000
Note: For starting DM, Qtot, Tr[D*S] =         42.00000000         41.95009257

InitMesh: MESH = 128 x 128 x 80 = 1310720
InitMesh: Mesh cutoff (required, used) =   300.000   304.722 Ry
New grid distribution [1]: sub = 2
New grid distribution [2]: sub = 2
New grid distribution [3]: sub = 2
Setting up quadratic distribution...

        iscf     Eharris(eV)        E_KS(eV)     FreeEng(eV)     dDmax    Ef(eV) dHmax(eV)
   scf:    1    -3061.190575    -3062.598885    -3062.598885  0.117349 -3.542127  5.667803
     spin moment: {S} , |S| = {    0.00000   -0.00000    0.00000 }     0.00000
   scf:    2    -2961.003234    -3029.809730    -3029.809730  0.345996 -2.940976 34.853112
     spin moment: {S} , |S| = {    0.00000   -0.00000    0.00000 }     0.00000
   scf:    3    -3065.411495    -3063.318928    -3063.318928  0.324426 -3.152860  2.892726
     spin moment: {S} , |S| = {    0.00000    0.00000   -0.00000 }     0.00000
   scf:    4    -3063.496080    -3063.414590    -3063.414590  0.012522 -3.029989  1.922459
     spin moment: {S} , |S| = {    0.00000   -0.00000   -0.00000 }     0.00000
   scf:    5    -3063.524332    -3063.488534    -3063.488534  0.023058 -2.856734  0.342457
     spin moment: {S} , |S| = {    0.00000    0.00000   -0.00000 }     0.00000
   scf:    6    -3063.492159    -3063.491212    -3063.491212  0.006921 -2.814594  0.038765
     spin moment: {S} , |S| = {    0.00000    0.00000   -0.00000 }     0.00000
   scf:    7    -3063.491175    -3063.491249    -3063.491249  0.001083 -2.815881  0.073601
     spin moment: {S} , |S| = {    0.00000    0.00000   -0.00000 }     0.00000
   scf:    8    -3063.491419    -3063.491353    -3063.491353  0.001422 -2.808326  0.018589
     spin moment: {S} , |S| = {    0.00000    0.00000   -0.00000 }     0.00000
   scf:    9    -3063.491362    -3063.491359    -3063.491359  0.000244 -2.806331  0.002519
     spin moment: {S} , |S| = {    0.00000    0.00000   -0.00000 }     0.00000
   scf:   10    -3063.491360    -3063.491359    -3063.491359  0.000036 -2.806066  0.000683
     spin moment: {S} , |S| = {    0.00000    0.00000   -0.00000 }     0.00000
   scf:   11    -3063.491359    -3063.491359    -3063.491359  0.000021 -2.805915  0.000309
     spin moment: {S} , |S| = {   -0.00000    0.00000   -0.00000 }     0.00000
   scf:   12    -3063.491359    -3063.491359    -3063.491359  0.000007 -2.805839  0.000068
     spin moment: {S} , |S| = {    0.00000   -0.00000    0.00000 }     0.00000
   scf:   13    -3063.491359    -3063.491359    -3063.491359  0.000003 -2.805828  0.000014
     spin moment: {S} , |S| = {    0.00000    0.00000    0.00000 }     0.00000
   scf:   14    -3063.491359    -3063.491359    -3063.491359  0.000000 -2.805827  0.000008
     spin moment: {S} , |S| = {    0.00000    0.00000   -0.00000 }     0.00000
   scf:   15    -3063.491359    -3063.491359    -3063.491359  0.000001 -2.805826  0.000003
     spin moment: {S} , |S| = {    0.00000   -0.00000    0.00000 }     0.00000
   scf:   16    -3063.491359    -3063.491359    -3063.491359  0.000000 -2.805826  0.000001
     spin moment: {S} , |S| = {    0.00000    0.00000   -0.00000 }     0.00000

SCF Convergence by DM+H criterion
max |DM_out - DM_in|         :     0.0000001952
max |H_out - H_in|      (eV) :     0.0000009547
SCF cycle converged after 16 iterations

Using DM_out to compute the final energy and forces

siesta: E_KS(eV) =            -3063.4914
     spin moment: {S} , |S| = {    0.00000    0.00000   -0.00000 }     0.00000

siesta: Atomic forces (eV/Ang):
     1   -1.738054   -0.896337    0.000000
     2    0.739954    0.305411    0.000000
     3    0.453533    0.068569   -0.000000
     4   -0.515387   -1.202680   -0.000000
     5   -1.721861   -1.221218   -0.000000
     6    0.992356   -0.395733    0.000000
     7    3.129246    1.851852    0.000000
     8    0.436680    0.835604   -0.000000
     9   -1.976401    0.307810    0.000000
    10   -1.026805   -0.027875   -0.000000
    11    0.245398   -0.673710    0.000000
    12   -0.581512   -0.724726    0.000000
    13    1.545604    1.757841   -0.000000
----------------------------------------
   Tot   -0.017249   -0.015192   -0.000000
----------------------------------------
   Max    3.129246
   Res    0.987199    sqrt( Sum f_i^2 / 3N )
----------------------------------------
   Max    3.129246    constrained

Stress tensor Voigt[x,y,z,yz,xz,xy] (kbar):        1.28       -8.90       -0.11        0.00        0.00        2.38
(Free)E + p*V (eV/cell)    -3061.8528
Target enthalpy (eV/cell)    -3063.4914

                     ====================================
                        Begin Broyden opt. move =      3
                     ====================================

outcell: Unit cell vectors (Ang):
       12.190149    0.000000    0.000000
        0.000000   11.937874    0.000000
        0.000000    0.000000    6.994977

outcell: Cell vector modules (Ang)   :   12.190149   11.937874    6.994977
outcell: Cell angles (23,13,12) (deg):     90.0000     90.0000     90.0000
outcell: Cell volume (Ang**3)        :   1017.9403
<dSpData1D:S at geom step 3
  <sparsity:sparsity for geom step 3
    nrows_g=129 nrows=17 sparsity=.1302 nnzs=2167, refcount: 8>
  <dData1D:(new from dSpData1D) n=2167, refcount: 1>
refcount: 1>
new_DM -- step:     4
Re-using DM from previous geometries...
Number of DMs in history: 1
 DM extrapolation coefficients: 
1   1.00000
New DM after history re-use:
<dSpData2D:SpM extrapolated using coords
  <sparsity:sparsity for geom step 3
    nrows_g=129 nrows=17 sparsity=.1302 nnzs=2167, refcount: 10>
  <dData2D:(temp array for extrapolation) n=2167 m=8, refcount: 1>
refcount: 1>
     spin moment: {S} , |S| = {   -0.00000   -0.00000   -0.00000 }     0.00000

InitMesh: MESH = 128 x 128 x 80 = 1310720
InitMesh: Mesh cutoff (required, used) =   300.000   304.722 Ry
New grid distribution [1]: sub = 2
New grid distribution [2]: sub = 2
New grid distribution [3]: sub = 2
Setting up quadratic distribution...

        iscf     Eharris(eV)        E_KS(eV)     FreeEng(eV)     dDmax    Ef(eV) dHmax(eV)
   scf:    1    -3062.697908    -3063.354482    -3063.354482  0.077314 -2.709212  3.598648
     spin moment: {S} , |S| = {   -0.00000    0.00000    0.00000 }     0.00000
   scf:    2    -3057.559618    -3061.738388    -3061.738388  0.139666 -4.561074  9.543605
     spin moment: {S} , |S| = {    0.00000    0.00000    0.00000 }     0.00000
   scf:    3    -3064.129490    -3063.602669    -3063.602669  0.101262 -3.119042  0.195508
     spin moment: {S} , |S| = {    0.00000    0.00000    0.00000 }     0.00000
   scf:    4    -3063.605326    -3063.605000    -3063.605000  0.001516 -3.145097  0.114776
     spin moment: {S} , |S| = {    0.00000    0.00000    0.00000 }     0.00000
   scf:    5    -3063.605623    -3063.605356    -3063.605356  0.001784 -3.167094  0.039361
     spin moment: {S} , |S| = {   -0.00000   -0.00000    0.00000 }     0.00000
   scf:    6    -3063.605537    -3063.605465    -3063.605465  0.001400 -3.176427  0.007598
     spin moment: {S} , |S| = {    0.00000    0.00000    0.00000 }     0.00000
   scf:    7    -3063.605476    -3063.605471    -3063.605471  0.000323 -3.177987  0.002663
     spin moment: {S} , |S| = {   -0.00000   -0.00000    0.00000 }     0.00000
   scf:    8    -3063.605472    -3063.605471    -3063.605471  0.000099 -3.178326  0.001027
     spin moment: {S} , |S| = {   -0.00000    0.00000    0.00000 }     0.00000
   scf:    9    -3063.605472    -3063.605472    -3063.605472  0.000042 -3.178483  0.000399
     spin moment: {S} , |S| = {   -0.00000    0.00000    0.00000 }     0.00000
   scf:   10    -3063.605472    -3063.605472    -3063.605472  0.000016 -3.178575  0.000135
     spin moment: {S} , |S| = {   -0.00000    0.00000    0.00000 }     0.00000
   scf:   11    -3063.605472    -3063.605472    -3063.605472  0.000004 -3.178588  0.000058
     spin moment: {S} , |S| = {   -0.00000    0.00000    0.00000 }     0.00000
   scf:   12    -3063.605472    -3063.605472    -3063.605472  0.000002 -3.178585  0.000015
     spin moment: {S} , |S| = {   -0.00000    0.00000    0.00000 }     0.00000
   scf:   13    -3063.605472    -3063.605472    -3063.605472  0.000001 -3.178587  0.000008
     spin moment: {S} , |S| = {    0.00000    0.00000    0.00000 }     0.00000
   scf:   14    -3063.605472    -3063.605472    -3063.605472  0.000000 -3.178589  0.000004
     spin moment: {S} , |S| = {    0.00000    0.00000    0.00000 }     0.00000
   scf:   15    -3063.605472    -3063.605472    -3063.605472  0.000000 -3.178589  0.000002
     spin moment: {S} , |S| = {    0.00000   -0.00000   -0.00000 }     0.00000
   scf:   16    -3063.605472    -3063.605472    -3063.605472  0.000000 -3.178589  0.000001
     spin moment: {S} , |S| = {   -0.00000    0.00000    0.00000 }     0.00000

SCF Convergence by DM+H criterion
max |DM_out - DM_in|         :     0.0000000491
max |H_out - H_in|      (eV) :     0.0000006148
SCF cycle converged after 16 iterations

Using DM_out to compute the final energy and forces

siesta: E_KS(eV) =            -3063.6055
     spin moment: {S} , |S| = {   -0.00000    0.00000    0.00000 }     0.00000

siesta: Atomic forces (eV/Ang):
     1    1.001369    0.917197    0.000000
     2    0.409194    0.321158    0.000000
     3   -0.029377    0.670505   -0.000000
     4    0.485513   -0.057024   -0.000000
     5   -1.179015   -1.433269   -0.000000
     6    0.360708   -0.197557    0.000000
     7    0.041881   -0.685423    0.000000
     8   -0.087155   -0.119861   -0.000000
     9    0.870787    0.296876    0.000000
    10   -1.320533    0.362875    0.000000
    11    1.055102   -0.672831    0.000000
    12    1.059594    2.268585    0.000000
    13   -2.644203   -1.657360   -0.000000
----------------------------------------
   Tot    0.023866    0.013871   -0.000000
----------------------------------------
   Max    2.644203
   Res    0.835229    sqrt( Sum f_i^2 / 3N )
----------------------------------------
   Max    2.644203    constrained

Stress tensor Voigt[x,y,z,yz,xz,xy] (kbar):      -14.89       -2.07       -0.10        0.00        0.00        4.88
(Free)E + p*V (eV/cell)    -3059.9935
Target enthalpy (eV/cell)    -3063.6055

                     ====================================
                        Begin Broyden opt. move =      4
                     ====================================

outcell: Unit cell vectors (Ang):
       12.190149    0.000000    0.000000
        0.000000   11.937874    0.000000
        0.000000    0.000000    6.994977

outcell: Cell vector modules (Ang)   :   12.190149   11.937874    6.994977
outcell: Cell angles (23,13,12) (deg):     90.0000     90.0000     90.0000
outcell: Cell volume (Ang**3)        :   1017.9403
<dSpData1D:S at geom step 4
  <sparsity:sparsity for geom step 4
    nrows_g=129 nrows=17 sparsity=.1302 nnzs=2167, refcount: 8>
  <dData1D:(new from dSpData1D) n=2167, refcount: 1>
refcount: 1>
new_DM -- step:     5
Re-using DM from previous geometries...
Number of DMs in history: 1
 DM extrapolation coefficients: 
1   1.00000
New DM after history re-use:
<dSpData2D:SpM extrapolated using coords
  <sparsity:sparsity for geom step 4
    nrows_g=129 nrows=17 sparsity=.1302 nnzs=2167, refcount: 10>
  <dData2D:(temp array for extrapolation) n=2167 m=8, refcount: 1>
refcount: 1>
     spin moment: {S} , |S| = {   -0.00000    0.00000   -0.00000 }     0.00000

InitMesh: MESH = 128 x 128 x 80 = 1310720
InitMesh: Mesh cutoff (required, used) =   300.000   304.722 Ry
New grid distribution [1]: sub = 2
New grid distribution [2]: sub = 2
New grid distribution [3]: sub = 2
Setting up quadratic distribution...

        iscf     Eharris(eV)        E_KS(eV)     FreeEng(eV)     dDmax    Ef(eV) dHmax(eV)
   scf:    1    -3063.753399    -3063.690165    -3063.690165  0.009337 -3.251854  0.257015
     spin moment: {S} , |S| = {    0.00000   -0.00000    0.00000 }     0.00000
   scf:    2    -3063.655823    -3063.681057    -3063.681057  0.009915 -3.209176  0.381421
     spin moment: {S} , |S| = {    0.00000    0.00000    0.00000 }     0.00000
   scf:    3    -3063.695504    -3063.692477    -3063.692477  0.006408 -3.232050  0.058652
     spin moment: {S} , |S| = {    0.00000    0.00000    0.00000 }     0.00000
   scf:    4    -3063.692580    -3063.692535    -3063.692535  0.000520 -3.228655  0.016520
     spin moment: {S} , |S| = {    0.00000    0.00000    0.00000 }     0.00000
   scf:    5    -3063.692545    -3063.692541    -3063.692541  0.000180 -3.228528  0.003489
     spin moment: {S} , |S| = {   -0.00000   -0.00000    0.00000 }     0.00000
   scf:    6    -3063.692542    -3063.692541    -3063.692541  0.000067 -3.228700  0.000979
     spin moment: {S} , |S| = {    0.00000    0.00000    0.00000 }     0.00000
   scf:    7    -3063.692541    -3063.692541    -3063.692541  0.000024 -3.228705  0.000340
     spin moment: {S} , |S| = {    0.00000    0.00000    0.00000 }     0.00000
   scf:    8    -3063.692541    -3063.692541    -3063.692541  0.000014 -3.228690  0.000106
     spin moment: {S} , |S| = {    0.00000    0.00000   -0.00000 }     0.00000
   scf:    9    -3063.692541    -3063.692541    -3063.692541  0.000005 -3.228680  0.000034
     spin moment: {S} , |S| = {   -0.00000   -0.00000    0.00000 }     0.00000
   scf:   10    -3063.692541    -3063.692541    -3063.692541  0.000002 -3.228677  0.000018
     spin moment: {S} , |S| = {    0.00000    0.00000    0.00000 }     0.00000
   scf:   11    -3063.692541    -3063.692541    -3063.692541  0.000001 -3.228678  0.000010
     spin moment: {S} , |S| = {    0.00000    0.00000   -0.00000 }     0.00000
   scf:   12    -3063.692541    -3063.692541    -3063.692541  0.000000 -3.228678  0.000005
     spin moment: {S} , |S| = {    0.00000    0.00000    0.00000 }     0.00000
   scf:   13    -3063.692541    -3063.692541    -3063.692541  0.000000 -3.228678  0.000001
     spin moment: {S} , |S| = {    0.00000    0.00000    0.00000 }     0.00000
   scf:   14    -3063.692541    -3063.692541    -3063.692541  0.000000 -3.228678  0.000001
     spin moment: {S} , |S| = {   -0.00000    0.00000    0.00000 }     0.00000

SCF Convergence by DM+H criterion
max |DM_out - DM_in|         :     0.0000000391
max |H_out - H_in|      (eV) :     0.0000005737
SCF cycle converged after 14 iterations

Using DM_out to compute the final energy and forces

siesta: E_KS(eV) =            -3063.6925
     spin moment: {S} , |S| = {   -0.00000    0.00000    0.00000 }     0.00000

siesta: Atomic forces (eV/Ang):
     1    1.009389    0.807867    0.000000
     2    0.197689    0.057066    0.000000
     3    0.481903    0.108448   -0.000000
     4    0.504771    0.088991   -0.000000
     5   -0.901358   -1.214498   -0.000000
     6   -0.283988   -0.093089    0.000000
     7   -0.082705   -0.617669    0.000000
     8    0.218519   -0.531417   -0.000000
     9   -0.677457    0.345242    0.000000
    10   -1.772183    0.765644    0.000000
    11    1.759460   -0.772123    0.000000
    12   -1.365015   -1.374118    0.000000
    13    0.951037    2.457125   -0.000000
----------------------------------------
   Tot    0.040062    0.027467   -0.000000
----------------------------------------
   Max    2.457125
   Res    0.784564    sqrt( Sum f_i^2 / 3N )
----------------------------------------
   Max    2.457125    constrained

Stress tensor Voigt[x,y,z,yz,xz,xy] (kbar):      -14.39      -11.21       -0.10        0.00        0.00        1.38
(Free)E + p*V (eV/cell)    -3058.2496
Target enthalpy (eV/cell)    -3063.6925

                     ====================================
                        Begin Broyden opt. move =      5
                     ====================================

outcell: Unit cell vectors (Ang):
       12.190149    0.000000    0.000000
        0.000000   11.937874    0.000000
        0.000000    0.000000    6.994977

outcell: Cell vector modules (Ang)   :   12.190149   11.937874    6.994977
outcell: Cell angles (23,13,12) (deg):     90.0000     90.0000     90.0000
outcell: Cell volume (Ang**3)        :   1017.9403
<dSpData1D:S at geom step 5
  <sparsity:sparsity for geom step 5
    nrows_g=129 nrows=17 sparsity=.1302 nnzs=2167, refcount: 8>
  <dData1D:(new from dSpData1D) n=2167, refcount: 1>
refcount: 1>
new_DM -- step:     6
Re-using DM from previous geometries...
Number of DMs in history: 1
 DM extrapolation coefficients: 
1   1.00000
New DM after history re-use:
<dSpData2D:SpM extrapolated using coords
  <sparsity:sparsity for geom step 5
    nrows_g=129 nrows=17 sparsity=.1302 nnzs=2167, refcount: 10>
  <dData2D:(temp array for extrapolation) n=2167 m=8, refcount: 1>
refcount: 1>
     spin moment: {S} , |S| = {    0.00000    0.00000    0.00000 }     0.00000

InitMesh: MESH = 128 x 128 x 80 = 1310720
InitMesh: Mesh cutoff (required, used) =   300.000   304.722 Ry
New grid distribution [1]: sub = 2
New grid distribution [2]: sub = 2
New grid distribution [3]: sub = 2
Setting up quadratic distribution...

        iscf     Eharris(eV)        E_KS(eV)     FreeEng(eV)     dDmax    Ef(eV) dHmax(eV)
   scf:    1    -3063.912414    -3063.760213    -3063.760213  0.013093 -3.210002  0.421338
     spin moment: {S} , |S| = {   -0.00000    0.00000    0.00000 }     0.00000
   scf:    2    -3063.603525    -3063.716215    -3063.716215  0.026214 -3.073542  1.370323
     spin moment: {S} , |S| = {    0.00000    0.00000    0.00000 }     0.00000
   scf:    3    -3063.779535    -3063.767007    -3063.767007  0.019367 -3.173737  0.023357
     spin moment: {S} , |S| = {   -0.00000    0.00000    0.00000 }     0.00000
   scf:    4    -3063.767078    -3063.767050    -3063.767050  0.000509 -3.174562  0.010406
     spin moment: {S} , |S| = {   -0.00000    0.00000    0.00000 }     0.00000
   scf:    5    -3063.767060    -3063.767055    -3063.767055  0.000197 -3.174548  0.004387
     spin moment: {S} , |S| = {   -0.00000    0.00000    0.00000 }     0.00000
   scf:    6    -3063.767058    -3063.767057    -3063.767057  0.000135 -3.173620  0.001378
     spin moment: {S} , |S| = {   -0.00000    0.00000    0.00000 }     0.00000
   scf:    7    -3063.767057    -3063.767057    -3063.767057  0.000040 -3.173302  0.000291
     spin moment: {S} , |S| = {   -0.00000    0.00000    0.00000 }     0.00000
   scf:    8    -3063.767057    -3063.767057    -3063.767057  0.000007 -3.173257  0.000098
     spin moment: {S} , |S| = {   -0.00000    0.00000    0.00000 }     0.00000
   scf:    9    -3063.767057    -3063.767057    -3063.767057  0.000005 -3.173244  0.000039
     spin moment: {S} , |S| = {    0.00000    0.00000    0.00000 }     0.00000
   scf:   10    -3063.767057    -3063.767057    -3063.767057  0.000001 -3.173242  0.000029
     spin moment: {S} , |S| = {   -0.00000    0.00000    0.00000 }     0.00000
   scf:   11    -3063.767057    -3063.767057    -3063.767057  0.000001 -3.173241  0.000014
     spin moment: {S} , |S| = {   -0.00000    0.00000    0.00000 }     0.00000
   scf:   12    -3063.767057    -3063.767057    -3063.767057  0.000000 -3.173240  0.000004
     spin moment: {S} , |S| = {   -0.00000    0.00000    0.00000 }     0.00000
   scf:   13    -3063.767057    -3063.767057    -3063.767057  0.000000 -3.173240  0.000002
     spin moment: {S} , |S| = {   -0.00000    0.00000    0.00000 }     0.00000
   scf:   14    -3063.767057    -3063.767057    -3063.767057  0.000000 -3.173240  0.000001
     spin moment: {S} , |S| = {    0.00000    0.00000    0.00000 }     0.00000

SCF Convergence by DM+H criterion
max |DM_out - DM_in|         :     0.0000000169
max |H_out - H_in|      (eV) :     0.0000007700
SCF cycle converged after 14 iterations

Using DM_out to compute the final energy and forces

siesta: E_KS(eV) =            -3063.7671
     spin moment: {S} , |S| = {    0.00000    0.00000    0.00000 }     0.00000

siesta: Atomic forces (eV/Ang):
     1    0.378963    0.274669    0.000000
     2    0.141480    0.026641    0.000000
     3   -0.043046    0.342156   -0.000000
     4    0.420523    0.043817   -0.000000
     5   -0.772118   -1.176347   -0.000000
     6   -0.281154   -0.214204    0.000000
     7    0.486244    0.011226    0.000000
     8    0.168636   -0.543928   -0.000000
     9   -0.318102    0.269426    0.000000
    10   -0.782025    0.048405    0.000000
    11    1.234029   -0.492285    0.000000
    12   -0.452352    0.854932    0.000000
    13   -0.147309    0.571431   -0.000000
----------------------------------------
   Tot    0.033769    0.015941   -0.000000
----------------------------------------
   Max    1.234029
   Res    0.424863    sqrt( Sum f_i^2 / 3N )
----------------------------------------
   Max    1.234029    constrained

Stress tensor Voigt[x,y,z,yz,xz,xy] (kbar):      -11.02       -7.58       -0.10        0.00        0.00        4.78
(Free)E + p*V (eV/cell)    -3059.8075
Target enthalpy (eV/cell)    -3063.7671

                     ====================================
                        Begin Broyden opt. move =      6
                     ====================================

outcell: Unit cell vectors (Ang):
       12.190149    0.000000    0.000000
        0.000000   11.937874    0.000000
        0.000000    0.000000    6.994977

outcell: Cell vector modules (Ang)   :   12.190149   11.937874    6.994977
outcell: Cell angles (23,13,12) (deg):     90.0000     90.0000     90.0000
outcell: Cell volume (Ang**3)        :   1017.9403
<dSpData1D:S at geom step 6
  <sparsity:sparsity for geom step 6
    nrows_g=129 nrows=17 sparsity=.1302 nnzs=2167, refcount: 8>
  <dData1D:(new from dSpData1D) n=2167, refcount: 1>
refcount: 1>
new_DM -- step:     7
Re-using DM from previous geometries...
Number of DMs in history: 1
 DM extrapolation coefficients: 
1   1.00000
New DM after history re-use:
<dSpData2D:SpM extrapolated using coords
  <sparsity:sparsity for geom step 6
    nrows_g=129 nrows=17 sparsity=.1302 nnzs=2167, refcount: 10>
  <dData2D:(temp array for extrapolation) n=2167 m=8, refcount: 1>
refcount: 1>
     spin moment: {S} , |S| = {    0.00000    0.00000    0.00000 }     0.00000

InitMesh: MESH = 128 x 128 x 80 = 1310720
InitMesh: Mesh cutoff (required, used) =   300.000   304.722 Ry
New grid distribution [1]: sub = 2
New grid distribution [2]: sub = 2
New grid distribution [3]: sub = 2
Setting up quadratic distribution...

        iscf     Eharris(eV)        E_KS(eV)     FreeEng(eV)     dDmax    Ef(eV) dHmax(eV)
   scf:    1    -3063.932847    -3063.784667    -3063.784667  0.015774 -3.174138  0.895785
     spin moment: {S} , |S| = {    0.00000    0.00000    0.00000 }     0.00000
   scf:    2    -3063.377936    -3063.669358    -3063.669358  0.038550 -3.632433  2.517679
     spin moment: {S} , |S| = {    0.00000    0.00000    0.00000 }     0.00000
   scf:    3    -3063.833913    -3063.800287    -3063.800287  0.028042 -3.296667  0.030083
     spin moment: {S} , |S| = {    0.00000    0.00000    0.00000 }     0.00000
   scf:    4    -3063.800393    -3063.800354    -3063.800354  0.000280 -3.306656  0.013432
     spin moment: {S} , |S| = {   -0.00000   -0.00000    0.00000 }     0.00000
   scf:    5    -3063.800369    -3063.800363    -3063.800363  0.000330 -3.309466  0.004723
     spin moment: {S} , |S| = {    0.00000    0.00000    0.00000 }     0.00000
   scf:    6    -3063.800368    -3063.800366    -3063.800366  0.000136 -3.310751  0.001785
     spin moment: {S} , |S| = {   -0.00000    0.00000    0.00000 }     0.00000
   scf:    7    -3063.800366    -3063.800366    -3063.800366  0.000081 -3.311129  0.000570
     spin moment: {S} , |S| = {   -0.00000    0.00000    0.00000 }     0.00000
   scf:    8    -3063.800366    -3063.800366    -3063.800366  0.000019 -3.311165  0.000157
     spin moment: {S} , |S| = {    0.00000    0.00000    0.00000 }     0.00000
[...]
   scf:    4    -3063.863190    -3063.863190    -3063.863190  0.000005 -3.410047  0.000108
     spin moment: {S} , |S| = {    0.00000    0.00000   -0.00000 }     0.00000
   scf:    5    -3063.863190    -3063.863190    -3063.863190  0.000004 -3.410082  0.000038
     spin moment: {S} , |S| = {   -0.00000    0.00000   -0.00000 }     0.00000
   scf:    6    -3063.863190    -3063.863190    -3063.863190  0.000001 -3.410094  0.000013
     spin moment: {S} , |S| = {    0.00000    0.00000   -0.00000 }     0.00000
   scf:    7    -3063.863190    -3063.863190    -3063.863190  0.000000 -3.410097  0.000004
     spin moment: {S} , |S| = {    0.00000    0.00000   -0.00000 }     0.00000
   scf:    8    -3063.863190    -3063.863190    -3063.863190  0.000000 -3.410097  0.000001
     spin moment: {S} , |S| = {    0.00000    0.00000   -0.00000 }     0.00000
   scf:    9    -3063.863190    -3063.863190    -3063.863190  0.000000 -3.410098  0.000001
     spin moment: {S} , |S| = {   -0.00000   -0.00000   -0.00000 }     0.00000

SCF Convergence by DM+H criterion
max |DM_out - DM_in|         :     0.0000000330
max |H_out - H_in|      (eV) :     0.0000005311
SCF cycle converged after 9 iterations

Using DM_out to compute the final energy and forces

siesta: E_KS(eV) =            -3063.8632
     spin moment: {S} , |S| = {   -0.00000   -0.00000   -0.00000 }     0.00000

siesta: Atomic forces (eV/Ang):
     1    0.005328    0.002880    0.000000
     2    0.002170    0.001469    0.000000
     3    0.001806    0.002127   -0.000000
     4   -0.000814   -0.001448   -0.000000
     5    0.001938   -0.037453   -0.000000
     6   -0.000699   -0.001608    0.000000
     7   -0.004620   -0.004664    0.000000
     8    0.000428   -0.002305   -0.000000
     9    0.007219    0.002956    0.000000
    10   -0.002009    0.001396    0.000000
    11   -0.004000   -0.007679    0.000000
    12    0.009460    0.012393    0.000000
    13    0.001653   -0.007725   -0.000000
----------------------------------------
   Tot    0.017861   -0.039660    0.000000
----------------------------------------
   Max    0.037453
   Res    0.007088    sqrt( Sum f_i^2 / 3N )
----------------------------------------
   Max    0.012393    constrained

Stress tensor Voigt[x,y,z,yz,xz,xy] (kbar):        0.51       -0.17       -0.09        0.00        0.00       -0.04
(Free)E + p*V (eV/cell)    -3063.9158
Target enthalpy (eV/cell)    -3063.8632

                     ====================================
                        Begin Broyden opt. move =     30
                     ====================================

outcell: Unit cell vectors (Ang):
       12.190149    0.000000    0.000000
        0.000000   11.937874    0.000000
        0.000000    0.000000    6.994977

outcell: Cell vector modules (Ang)   :   12.190149   11.937874    6.994977
outcell: Cell angles (23,13,12) (deg):     90.0000     90.0000     90.0000
outcell: Cell volume (Ang**3)        :   1017.9403
<dSpData1D:S at geom step 30
  <sparsity:sparsity for geom step 30
    nrows_g=129 nrows=17 sparsity=.1302 nnzs=2167, refcount: 8>
  <dData1D:(new from dSpData1D) n=2167, refcount: 1>
refcount: 1>
new_DM -- step:    31
Re-using DM from previous geometries...
Number of DMs in history: 1
 DM extrapolation coefficients: 
1   1.00000
New DM after history re-use:
<dSpData2D:SpM extrapolated using coords
  <sparsity:sparsity for geom step 30
    nrows_g=129 nrows=17 sparsity=.1302 nnzs=2167, refcount: 10>
  <dData2D:(temp array for extrapolation) n=2167 m=8, refcount: 1>
refcount: 1>
     spin moment: {S} , |S| = {   -0.00000   -0.00000    0.00000 }     0.00000

InitMesh: MESH = 128 x 128 x 80 = 1310720
InitMesh: Mesh cutoff (required, used) =   300.000   304.722 Ry
New grid distribution [1]: sub = 2
New grid distribution [2]: sub = 2
New grid distribution [3]: sub = 2
Setting up quadratic distribution...

        iscf     Eharris(eV)        E_KS(eV)     FreeEng(eV)     dDmax    Ef(eV) dHmax(eV)
   scf:    1    -3063.863169    -3063.863197    -3063.863197  0.000140 -3.410778  0.006545
     spin moment: {S} , |S| = {   -0.00000   -0.00000   -0.00000 }     0.00000
   scf:    2    -3063.863174    -3063.863190    -3063.863190  0.000217 -3.406336  0.015763
     spin moment: {S} , |S| = {    0.00000    0.00000   -0.00000 }     0.00000
   scf:    3    -3063.863200    -3063.863198    -3063.863198  0.000151 -3.409386  0.000612
     spin moment: {S} , |S| = {   -0.00000   -0.00000    0.00000 }     0.00000
   scf:    4    -3063.863198    -3063.863198    -3063.863198  0.000007 -3.409254  0.000256
     spin moment: {S} , |S| = {    0.00000   -0.00000    0.00000 }     0.00000
   scf:    5    -3063.863198    -3063.863198    -3063.863198  0.000003 -3.409216  0.000109
     spin moment: {S} , |S| = {    0.00000    0.00000    0.00000 }     0.00000
   scf:    6    -3063.863198    -3063.863198    -3063.863198  0.000002 -3.409200  0.000008
     spin moment: {S} , |S| = {    0.00000   -0.00000   -0.00000 }     0.00000
   scf:    7    -3063.863198    -3063.863198    -3063.863198  0.000000 -3.409200  0.000005
     spin moment: {S} , |S| = {    0.00000   -0.00000   -0.00000 }     0.00000
   scf:    8    -3063.863198    -3063.863198    -3063.863198  0.000000 -3.409199  0.000001
     spin moment: {S} , |S| = {    0.00000   -0.00000   -0.00000 }     0.00000
   scf:    9    -3063.863198    -3063.863198    -3063.863198  0.000000 -3.409198  0.000000
     spin moment: {S} , |S| = {   -0.00000   -0.00000   -0.00000 }     0.00000

SCF Convergence by DM+H criterion
max |DM_out - DM_in|         :     0.0000000807
max |H_out - H_in|      (eV) :     0.0000003197
SCF cycle converged after 9 iterations

Using DM_out to compute the final energy and forces

siesta: E_KS(eV) =            -3063.8632
     spin moment: {S} , |S| = {   -0.00000   -0.00000   -0.00000 }     0.00000

siesta: Atomic forces (eV/Ang):
     1    0.000753   -0.001729    0.000000
     2    0.000996    0.000509    0.000000
     3    0.003064    0.001596   -0.000000
     4   -0.001949   -0.002714   -0.000000
     5    0.008347   -0.035353   -0.000000
     6    0.000766   -0.000463    0.000000
     7   -0.001441   -0.001367    0.000000
     8   -0.000234   -0.002448   -0.000000
     9    0.000723    0.003214    0.000000
    10   -0.001417   -0.000103    0.000000
    11   -0.004186   -0.007070    0.000000
    12   -0.001054   -0.000983    0.000000
    13    0.012716    0.006840   -0.000000
----------------------------------------
   Tot    0.017084   -0.040070    0.000000
----------------------------------------
   Max    0.035353
   Res    0.006503    sqrt( Sum f_i^2 / 3N )
----------------------------------------
   Max    0.012716    constrained

Stress tensor Voigt[x,y,z,yz,xz,xy] (kbar):        0.53       -0.20       -0.09        0.00        0.00       -0.04
(Free)E + p*V (eV/cell)    -3063.9142
Target enthalpy (eV/cell)    -3063.8632

                     ====================================
                        Begin Broyden opt. move =     31
                     ====================================

outcell: Unit cell vectors (Ang):
       12.190149    0.000000    0.000000
        0.000000   11.937874    0.000000
        0.000000    0.000000    6.994977

outcell: Cell vector modules (Ang)   :   12.190149   11.937874    6.994977
outcell: Cell angles (23,13,12) (deg):     90.0000     90.0000     90.0000
outcell: Cell volume (Ang**3)        :   1017.9403
<dSpData1D:S at geom step 31
  <sparsity:sparsity for geom step 31
    nrows_g=129 nrows=17 sparsity=.1302 nnzs=2167, refcount: 8>
  <dData1D:(new from dSpData1D) n=2167, refcount: 1>
refcount: 1>
new_DM -- step:    32
Re-using DM from previous geometries...
Number of DMs in history: 1
 DM extrapolation coefficients: 
1   1.00000
New DM after history re-use:
<dSpData2D:SpM extrapolated using coords
  <sparsity:sparsity for geom step 31
    nrows_g=129 nrows=17 sparsity=.1302 nnzs=2167, refcount: 10>
  <dData2D:(temp array for extrapolation) n=2167 m=8, refcount: 1>
refcount: 1>
     spin moment: {S} , |S| = {   -0.00000   -0.00000   -0.00000 }     0.00000

InitMesh: MESH = 128 x 128 x 80 = 1310720
InitMesh: Mesh cutoff (required, used) =   300.000   304.722 Ry
New grid distribution [1]: sub = 2
New grid distribution [2]: sub = 2
New grid distribution [3]: sub = 2
Setting up quadratic distribution...

        iscf     Eharris(eV)        E_KS(eV)     FreeEng(eV)     dDmax    Ef(eV) dHmax(eV)
   scf:    1    -3063.863738    -3063.863205    -3063.863205  0.000109 -3.409448  0.004994
     spin moment: {S} , |S| = {   -0.00000    0.00000   -0.00000 }     0.00000
   scf:    2    -3063.863191    -3063.863201    -3063.863201  0.000179 -3.406305  0.013102
     spin moment: {S} , |S| = {    0.00000    0.00000   -0.00000 }     0.00000
   scf:    3    -3063.863207    -3063.863205    -3063.863205  0.000130 -3.408510  0.000383
     spin moment: {S} , |S| = {   -0.00000   -0.00000   -0.00000 }     0.00000
   scf:    4    -3063.863205    -3063.863205    -3063.863205  0.000004 -3.408448  0.000186
     spin moment: {S} , |S| = {    0.00000    0.00000   -0.00000 }     0.00000
   scf:    5    -3063.863205    -3063.863205    -3063.863205  0.000003 -3.408414  0.000040
     spin moment: {S} , |S| = {    0.00000   -0.00000    0.00000 }     0.00000
   scf:    6    -3063.863205    -3063.863205    -3063.863205  0.000001 -3.408410  0.000008
     spin moment: {S} , |S| = {    0.00000    0.00000   -0.00000 }     0.00000
   scf:    7    -3063.863205    -3063.863205    -3063.863205  0.000000 -3.408410  0.000004
     spin moment: {S} , |S| = {    0.00000    0.00000   -0.00000 }     0.00000
   scf:    8    -3063.863205    -3063.863205    -3063.863205  0.000000 -3.408410  0.000001
     spin moment: {S} , |S| = {    0.00000    0.00000    0.00000 }     0.00000

SCF Convergence by DM+H criterion
max |DM_out - DM_in|         :     0.0000001075
max |H_out - H_in|      (eV) :     0.0000009056
SCF cycle converged after 8 iterations

Using DM_out to compute the final energy and forces

siesta: E_KS(eV) =            -3063.8632
     spin moment: {S} , |S| = {    0.00000    0.00000    0.00000 }     0.00000

siesta: Atomic forces (eV/Ang):
     1   -0.003720   -0.006131    0.000000
     2   -0.000407   -0.000148    0.000000
     3    0.002118    0.002030   -0.000000
     4   -0.001781   -0.002805   -0.000000
     5    0.014581   -0.034494   -0.000000
     6    0.001244    0.000573    0.000000
     7    0.001985    0.001743    0.000000
     8   -0.001729   -0.003851   -0.000000
     9    0.008230    0.003244    0.000000
    10   -0.003179    0.001693    0.000000
    11   -0.002583   -0.006224    0.000000
    12    0.002846    0.006333    0.000000
    13   -0.001975   -0.000529   -0.000000
----------------------------------------
   Tot    0.015629   -0.038566    0.000000
----------------------------------------
   Max    0.034494
   Res    0.006582    sqrt( Sum f_i^2 / 3N )
----------------------------------------
   Max    0.008230    constrained

Stress tensor Voigt[x,y,z,yz,xz,xy] (kbar):        0.51       -0.17       -0.09        0.00        0.00       -0.02
(Free)E + p*V (eV/cell)    -3063.9161
Target enthalpy (eV/cell)    -3063.8632

                     ====================================
                        Begin Broyden opt. move =     32
                     ====================================

outcell: Unit cell vectors (Ang):
       12.190149    0.000000    0.000000
        0.000000   11.937874    0.000000
        0.000000    0.000000    6.994977

outcell: Cell vector modules (Ang)   :   12.190149   11.937874    6.994977
outcell: Cell angles (23,13,12) (deg):     90.0000     90.0000     90.0000
outcell: Cell volume (Ang**3)        :   1017.9403
<dSpData1D:S at geom step 32
  <sparsity:sparsity for geom step 32
    nrows_g=129 nrows=17 sparsity=.1302 nnzs=2167, refcount: 8>
  <dData1D:(new from dSpData1D) n=2167, refcount: 1>
refcount: 1>
new_DM -- step:    33
Re-using DM from previous geometries...
Number of DMs in history: 1
 DM extrapolation coefficients: 
1   1.00000
New DM after history re-use:
<dSpData2D:SpM extrapolated using coords
  <sparsity:sparsity for geom step 32
    nrows_g=129 nrows=17 sparsity=.1302 nnzs=2167, refcount: 10>
  <dData2D:(temp array for extrapolation) n=2167 m=8, refcount: 1>
refcount: 1>
     spin moment: {S} , |S| = {    0.00000    0.00000    0.00000 }     0.00000

InitMesh: MESH = 128 x 128 x 80 = 1310720
InitMesh: Mesh cutoff (required, used) =   300.000   304.722 Ry
New grid distribution [1]: sub = 2
New grid distribution [2]: sub = 2
New grid distribution [3]: sub = 2
Setting up quadratic distribution...

        iscf     Eharris(eV)        E_KS(eV)     FreeEng(eV)     dDmax    Ef(eV) dHmax(eV)
   scf:    1    -3063.862792    -3063.863209    -3063.863209  0.000117 -3.408351  0.005266
     spin moment: {S} , |S| = {    0.00000    0.00000    0.00000 }     0.00000
   scf:    2    -3063.863188    -3063.863203    -3063.863203  0.000282 -3.410660  0.015913
     spin moment: {S} , |S| = {    0.00000    0.00000    0.00000 }     0.00000
   scf:    3    -3063.863212    -3063.863210    -3063.863210  0.000210 -3.408986  0.000188
     spin moment: {S} , |S| = {    0.00000   -0.00000    0.00000 }     0.00000
   scf:    4    -3063.863210    -3063.863210    -3063.863210  0.000004 -3.409034  0.000103
     spin moment: {S} , |S| = {    0.00000   -0.00000    0.00000 }     0.00000
   scf:    5    -3063.863210    -3063.863210    -3063.863210  0.000003 -3.409060  0.000030
     spin moment: {S} , |S| = {   -0.00000   -0.00000   -0.00000 }     0.00000
   scf:    6    -3063.863210    -3063.863210    -3063.863210  0.000001 -3.409063  0.000011
     spin moment: {S} , |S| = {    0.00000   -0.00000   -0.00000 }     0.00000
   scf:    7    -3063.863210    -3063.863210    -3063.863210  0.000000 -3.409064  0.000001
     spin moment: {S} , |S| = {    0.00000   -0.00000   -0.00000 }     0.00000
   scf:    8    -3063.863210    -3063.863210    -3063.863210  0.000000 -3.409064  0.000001
     spin moment: {S} , |S| = {    0.00000   -0.00000   -0.00000 }     0.00000

SCF Convergence by DM+H criterion
max |DM_out - DM_in|         :     0.0000000329
max |H_out - H_in|      (eV) :     0.0000006745
SCF cycle converged after 8 iterations

Using DM_out to compute the final energy and forces

siesta: E_KS(eV) =            -3063.8632
     spin moment: {S} , |S| = {    0.00000   -0.00000   -0.00000 }     0.00000

siesta: Atomic forces (eV/Ang):
     1    0.000775   -0.002692    0.000000
     2   -0.000140    0.000544    0.000000
     3    0.002905    0.001755   -0.000000
     4   -0.001259   -0.002328   -0.000000
     5    0.017894   -0.033803   -0.000000
     6   -0.000366    0.000227    0.000000
     7   -0.003309   -0.003503    0.000000
     8   -0.001620   -0.004221   -0.000000
     9    0.004177    0.002467    0.000000
    10    0.000060    0.001429    0.000000
    11   -0.004974   -0.003771    0.000000
    12    0.000181    0.002183    0.000000
    13    0.002220    0.003568   -0.000000
----------------------------------------
   Tot    0.016545   -0.038146    0.000000
----------------------------------------
   Max    0.033803
   Res    0.006446    sqrt( Sum f_i^2 / 3N )
----------------------------------------
   Max    0.004974    constrained

Stress tensor Voigt[x,y,z,yz,xz,xy] (kbar):        0.52       -0.17       -0.09        0.00        0.00       -0.02
(Free)E + p*V (eV/cell)    -3063.9182
Target enthalpy (eV/cell)    -3063.8632

outcoor: Relaxed atomic coordinates (Ang):                  
    2.31136821    1.19107586    0.00000000   4       1  O
   -0.04286568    1.02993544    0.00000000   3       2  N
   -2.47023105    0.99985655    0.00000000   3       3  N
    1.40593889   -1.02778066    0.00000000   3       4  N
   -1.24060000    0.26760000    0.00000000   2       5  C
   -1.12743026   -1.11952595    0.00000000   2       6  C
    1.35327370    0.42904199    0.00000000   2       7  C
    0.16909436   -1.68361770    0.00000000   2       8  C
   -0.11648925    2.06390777    0.00000000   1       9  H
   -2.05097240   -1.70976259    0.00000000   1      10  H
    0.28361657   -2.78174148    0.00000000   1      11  H
   -3.37191888    0.50008342    0.00000000   1      12  H
   -2.48804998    2.04062191    0.00000000   1      13  H

siesta: Program's energy decomposition (eV):
siesta: Ebs     =      -556.009239
siesta: Eions   =      4731.031154
siesta: Ena     =      1528.241387
siesta: Ekin    =      1433.880446
siesta: Enl(+so)=      -745.728840
siesta: Eso(nil)=         0.000000
siesta: Edftu   =         0.000000
siesta: DEna    =       -18.529983
siesta: DUscf   =         4.829567
siesta: DUext   =         0.000000
siesta: Ex      =      -492.304101
siesta: Ec      =       -43.220533
siesta: Exc     =      -535.524633
siesta: EbV     =         0.000000
siesta: eta*DQ  =         0.000000
siesta: Emadel  =         0.000000
siesta: Emeta   =         0.000000
siesta: Emolmec =         0.000000
siesta: Ekinion =         0.000000
siesta: Eharris =     -3063.863210
siesta: Etot    =     -3063.863210
siesta: FreeEng =     -3063.863210

siesta: Final energy (eV):
siesta:  Band Struct. =    -556.009239
siesta:       Kinetic =    1433.880446
siesta:       Hartree =    3242.177512
siesta:         Edftu =       0.000000
siesta:      Eso(nil) =       0.000000
siesta:    Ext. field =       0.000000
siesta:         Exch. =    -492.304101
siesta:         Corr. =     -43.220533
siesta:     Bulk bias =       0.000000
siesta:   Exch.-corr. =    -535.524633
siesta:  Ion-electron =   -7778.705073
siesta:       Ion-ion =     574.308539
siesta:       Ekinion =       0.000000
siesta: D3 dispersion =       0.000000
siesta:         Total =   -3063.863210
siesta:         Fermi =      -3.409064

siesta: Atomic forces (eV/Ang):
siesta:      1    0.000775   -0.002692    0.000000
siesta:      2   -0.000140    0.000544    0.000000
siesta:      3    0.002905    0.001755   -0.000000
siesta:      4   -0.001259   -0.002328   -0.000000
siesta:      5    0.017894   -0.033803   -0.000000
siesta:      6   -0.000366    0.000227    0.000000
siesta:      7   -0.003309   -0.003503    0.000000
siesta:      8   -0.001620   -0.004221   -0.000000
siesta:      9    0.004177    0.002467    0.000000
siesta:     10    0.000060    0.001429    0.000000
siesta:     11   -0.004974   -0.003771    0.000000
siesta:     12    0.000181    0.002183    0.000000
siesta:     13    0.002220    0.003568   -0.000000
siesta: ----------------------------------------
siesta:    Tot    0.016545   -0.038146    0.000000

siesta: Stress tensor (static) (eV/Ang**3):
siesta:     0.000325   -0.000015   -0.000000
siesta:    -0.000015   -0.000105    0.000000
siesta:     0.000000    0.000000   -0.000058

siesta: Cell volume =       1017.940270 Ang**3

siesta: Pressure (static):
siesta:                Solid            Molecule  Units
siesta:          -0.00000059         -0.00000054  Ry/Bohr**3
siesta:          -0.00005399         -0.00004989  eV/Ang**3
siesta:          -0.08650584         -0.07992762  kBar
(Free)E+ p_basis*V_orbitals  =       -3059.359992
(Free)Eharris+ p_basis*V_orbitals  =       -3059.359992
     spin moment: {S} , |S| = {    0.00000   -0.00000   -0.00000 }     0.00000

siesta: Electric dipole (a.u.)  =   -2.936781    0.619485   -0.000000
siesta: Electric dipole (Debye) =   -7.464552    1.574575   -0.000000

cite: Please see "Cytosine.bib" for an exhaustive BiBTeX file.
cite: Please clearly indicate Siesta version in published work: 5.1-MaX-41-g6ad11e234
cite: This calculation has made use of the following articles
cite: which are encouraged to be cited in a published work.
        Primary SIESTA paper
          DOI: www.doi.org/10.1088/0953-8984/14/11/302
        Spin-orbit coupling (off-site approximation)
          DOI: www.doi.org/10.1088/0953-8984/24/8/086005
        ELPA library
          DOI: www.doi.org/10.1088/0953-8984/26/21/213201


>> End of run:   1-SEP-2024  23:23:52
Job completed
