Siesta Version  : v4.1.5-1-g384057250
Architecture    : gcc
Compiler version: GNU Fortran (Debian 10.2.1-6) 10.2.1 20210110
Compiler flags  : mpifort -O2 -fPIC -ftree-vectorize -fallow-argument-mismatch
PP flags        : -DFC_HAVE_ABORT -DMPI -DSIESTA__FLOOK -DSIESTA__METIS -DSIESTA__MUMPS -DCDF -DNCDF -DNCDF_4 -DNCDF_PARALLEL -DSIESTA__MRRR -DSIESTA__ELPA
Libraries       : libncdf.a libfdict.a  -lflookall -ldl -lnetcdff -lnetcdf -lhdf5_hl -lhdf5 -lhdf5_fortran -lz -lscalapack-openmpi -lopenblas -lmetis -lzmumps -lcmumps -ldmumps -lmumps_common -lpord -lsmumps -lesmumps -lscotch -lscotcherr -fopenmp -lelpa
PARALLEL version
NetCDF support
NetCDF-4 support
NetCDF-4 MPI-IO support
METIS ordering support
Lua support

* Running on 6 nodes in parallel
>> Start of run:  16-OCT-2023  18:43:13

                           ***********************       
                           *  WELCOME TO SIESTA  *       
                           ***********************       

reinit: Reading from standard input
reinit: Dumped input in INPUT_TMP.49150
************************** Dump of input data file ****************************
# mpirun -np 4 siesta-4.1.5 < GC.fdf > GC.out &
SystemLabel      GC
NumberOfAtoms    29
NumberOfSpecies  4
%block ChemicalSpeciesLabel
    1    1  H
    2    7  N
    3   14  Si
    4    8  O
%endblock ChemicalSpeciesLabel
############################################
# This overrides Defaults.fdf configuration
############################################
MD.TypeOfRun                CG # CG, Verlet
MD.Steps                    0
MaxSCFIterations            600
AtomicCoordinatesFormat NotScaledCartesianAng
%block AtomicCoordinatesAndAtomicSpecies
    -0.06396955920414804 5.232197479931966 0.0  1  1  H
    -0.770456289204148 4.442161299931966 0.0  2  2  N
    -2.5007431992041482 4.883525209931966 0.0  3  3  Si
    -2.656522879204148 6.373517469931966 0.0  1  4  H
    -4.024064819204148 3.3246176899319657 0.0  3  5  Si
    -5.507252449204149 3.567448049931966 0.0  1  6  H
    -2.825673959204148 1.411341529931966 0.0  3  7  Si
    -3.591699419204148 -0.12137521006803409 0.0  2  8  N
    -3.001452869204148 -1.078588240068034 0.0  1  9  H
    -4.643321739204148 -0.201835440068034 0.0  1  10  H
    -1.109473899204148 1.466515839931966 0.0  2  11  N
    -0.03445127920414803 2.796854679931966 0.0  3  12  Si
    1.5742220407958518 2.778044419931966 0.0  4  13  O
    5.6164483 -7.44953905 0.0  1  14  H
    4.58206954 -7.2320376 0.0  2  15  N
    3.29666389 -8.492636 0.0  3  16  Si
    3.80117524 -9.90371886 -0.0  1  17  H
    1.65934232 -8.01362137 0.0  2  18  N
    1.68097912 -6.20463398 -0.0  3  19  Si
    0.54543521 -4.28636135 0.0  3  20  Si
    -1.03431493 -3.94450034 0.0  4  21  O
    1.73226934 -2.87719605 0.0  2  22  N
    1.20957366 -1.92961761 -0.0  1  23  H
    3.50853448 -2.77677601 0.0  3  24  Si
    4.13684451 -1.17938608 0.0  2  25  N
    3.54296161 -0.26248101 0.0  1  26  H
    5.18364407 -1.05231197 -0.0  1  27  H
    4.63288658 -4.07521596 -0.0  2  28  N
    3.79410501 -5.58634043 0.0  3  29  Si
%endblock AtomicCoordinatesAndAtomicSpecies
%include ../../../../Defaults.fdf
************************** End of input data file *****************************

reinit: -----------------------------------------------------------------------
reinit: System Name: 
reinit: -----------------------------------------------------------------------
reinit: System Label: GC
reinit: -----------------------------------------------------------------------

initatom: Reading input for the pseudopotentials and atomic orbitals ----------
Species number:   1 Atomic number:    1 Label: H
Species number:   2 Atomic number:    7 Label: N
Species number:   3 Atomic number:   14 Label: Si
Species number:   4 Atomic number:    8 Label: O

Ground state valence configuration:   1s01
Reading pseudopotential information in formatted form from H.psf

Pseudopotential generated from a relativistic atomic calculation

Valence configuration for pseudopotential generation:
1s( 1.00) rc: 0.01
2p( 0.00) rc: 0.60
3d( 0.00) rc: 1.99
4f( 0.00) rc: 2.49
Ground state valence configuration:   2s02  2p03
Reading pseudopotential information in formatted form from N.psf

Pseudopotential generated from a relativistic atomic calculation

Valence configuration for pseudopotential generation:
2s( 2.00) rc: 0.94
2p( 3.00) rc: 0.59
3d( 0.00) rc: 3.46
4f( 0.00) rc: 2.47
Ground state valence configuration:   3s02  3p02
Reading pseudopotential information in formatted form from Si.psf

Pseudopotential generated from a relativistic atomic calculation

Valence configuration for pseudopotential generation:
3s( 2.00) rc: 1.67
3p( 2.00) rc: 2.04
3d( 0.00) rc: 2.89
4f( 0.00) rc: 2.49
Ground state valence configuration:   2s02  2p04
Reading pseudopotential information in formatted form from O.psf

Pseudopotential generated from a relativistic atomic calculation

Valence configuration for pseudopotential generation:
2s( 2.00) rc: 0.45
2p( 4.00) rc: 0.92
3d( 0.00) rc: 2.24
4f( 0.00) rc: 0.25
For H, standard SIESTA heuristics set lmxkb to 2
 (one more than the basis l, including polarization orbitals).
Use PS.lmax or PS.KBprojectors blocks to override.
For N, standard SIESTA heuristics set lmxkb to 3
 (one more than the basis l, including polarization orbitals).
Use PS.lmax or PS.KBprojectors blocks to override.
For Si, standard SIESTA heuristics set lmxkb to 3
 (one more than the basis l, including polarization orbitals).
Use PS.lmax or PS.KBprojectors blocks to override.
For O, standard SIESTA heuristics set lmxkb to 3
 (one more than the basis l, including polarization orbitals).
Use PS.lmax or PS.KBprojectors blocks to override.

<basis_specs>
===============================================================================
H                    Z=   1    Mass=  1.0100        Charge= 0.17977+309
Lmxo=0 Lmxkb= 2    BasisType=split      Semic=F
L=0  Nsemic=0  Cnfigmx=1
          i=1  nzeta=2  polorb=1  (1s)
            splnorm:   0.62000    
               vcte:    0.0000    
               rinn:    0.0000    
               qcoe:    0.0000    
               qyuk:    0.0000    
               qwid:   0.10000E-01
                rcs:    0.0000      0.0000    
            lambdas:    1.0000      1.0000    
-------------------------------------------------------------------------------
L=0  Nkbl=1  erefs: 0.17977+309
L=1  Nkbl=1  erefs: 0.17977+309
L=2  Nkbl=1  erefs: 0.17977+309
===============================================================================
</basis_specs>

atom: Called for H                     (Z =   1)

read_vps: Pseudopotential generation method:
read_vps: ATM4.2.7  Troullier-Martins                       
Valence charge for ps generation:    1.00000

xc_check: Exchange-correlation functional:
xc_check: GGA Perdew, Burke & Ernzerhof 1996
V l=0 = -2*Zval/r beyond r=  0.0098
V l=1 = -2*Zval/r beyond r=  0.5817
V l=2 = -2*Zval/r beyond r=  1.9372
All V_l potentials equal beyond r=  1.9372
This should be close to max(r_c) in ps generation
All pots = -2*Zval/r beyond r=  1.9372

VLOCAL1: 99.0% of the norm of Vloc inside     11.567 Ry
VLOCAL1: 99.9% of the norm of Vloc inside     26.362 Ry
atom: Maximum radius for 4*pi*r*r*local-pseudopot. charge    2.25106
atom: Maximum radius for r*vlocal+2*Zval:    1.91306
GHOST: No ghost state for L =  0
GHOST: No ghost state for L =  1
GHOST: No ghost state for L =  2

KBgen: Kleinman-Bylander projectors: 
   l= 0   rc=  2.036604   el= -0.477180   Ekb= -6.081590   kbcos= -0.277285
   l= 1   rc=  2.195416   el=  0.001076   Ekb= -0.926943   kbcos= -0.034643
   l= 2   rc=  2.251056   el=  0.002010   Ekb= -0.130941   kbcos= -0.009788

KBgen: Total number of Kleinman-Bylander projectors:    9
atom: -------------------------------------------------------------------------

atom: SANKEY-TYPE ORBITALS:
atom: Selected multiple-zeta basis: split     

SPLIT: Orbitals with angular momentum L= 0

SPLIT: Basis orbitals for state 1s

SPLIT: PAO cut-off radius determined from an
SPLIT: energy shift=  0.002000 Ry

   izeta = 1
                 lambda =    1.000000
                     rc =    6.518340
                 energy =   -0.475305
                kinetic =    0.912139
    potential(screened) =   -1.387444
       potential(ionic) =   -1.907295

   izeta = 2
                 rmatch =    2.141150
              splitnorm =    0.620000
                 energy =    0.566467
                kinetic =    3.772856
    potential(screened) =   -3.206389
       potential(ionic) =   -3.759093

POLgen: Perturbative polarization orbital with L=  1

POLgen: Polarization orbital for state 1s

   izeta = 1
                     rc =    6.518340
                 energy =    0.533861
                kinetic =    1.121086
    potential(screened) =   -0.587225
       potential(ionic) =   -1.053027
atom: Total number of Sankey-type orbitals:  5

atm_pop: Valence configuration (for local Pseudopot. screening):
 1s( 1.00)                                                            
Vna: chval, zval:    1.00000   1.00000

Vna:  Cut-off radius for the neutral-atom potential:   6.518340

atom: _________________________________________________________________________

<basis_specs>
===============================================================================
N                    Z=   7    Mass=  14.010        Charge= 0.17977+309
Lmxo=1 Lmxkb= 3    BasisType=split      Semic=F
L=0  Nsemic=0  Cnfigmx=2
          i=1  nzeta=2  polorb=0  (2s)
            splnorm:   0.28000    
               vcte:    0.0000    
               rinn:    0.0000    
               qcoe:    0.0000    
               qyuk:    0.0000    
               qwid:   0.10000E-01
                rcs:    0.0000      0.0000    
            lambdas:    1.0000      1.0000    
L=1  Nsemic=0  Cnfigmx=2
          i=1  nzeta=2  polorb=1  (2p)
            splnorm:   0.28000    
               vcte:    0.0000    
               rinn:    0.0000    
               qcoe:    0.0000    
               qyuk:    0.0000    
               qwid:   0.10000E-01
                rcs:    0.0000      0.0000    
            lambdas:    1.0000      1.0000    
-------------------------------------------------------------------------------
L=0  Nkbl=1  erefs: 0.17977+309
L=1  Nkbl=1  erefs: 0.17977+309
L=2  Nkbl=1  erefs: 0.17977+309
L=3  Nkbl=1  erefs: 0.17977+309
===============================================================================
</basis_specs>

atom: Called for N                     (Z =   7)

read_vps: Pseudopotential generation method:
read_vps: ATM4.2.7  Troullier-Martins                       
Valence charge for ps generation:    5.00000

xc_check: Exchange-correlation functional:
xc_check: GGA Perdew, Burke & Ernzerhof 1996
V l=0 = -2*Zval/r beyond r=  1.2889
V l=1 = -2*Zval/r beyond r=  1.2889
V l=2 = -2*Zval/r beyond r=  3.4178
V l=3 = -2*Zval/r beyond r=  2.4084
All V_l potentials equal beyond r=  3.3753
This should be close to max(r_c) in ps generation
All pots = -2*Zval/r beyond r=  3.4178

VLOCAL1: 99.0% of the norm of Vloc inside      3.810 Ry
VLOCAL1: 99.9% of the norm of Vloc inside      8.683 Ry
atom: Maximum radius for 4*pi*r*r*local-pseudopot. charge    4.02088
atom: Maximum radius for r*vlocal+2*Zval:    3.54838
GHOST: No ghost state for L =  0
GHOST: No ghost state for L =  1
GHOST: No ghost state for L =  2
GHOST: No ghost state for L =  3

KBgen: Kleinman-Bylander projectors: 
   l= 0   rc=  3.417763   el= -1.365098   Ekb= -4.433130   kbcos= -0.707855
   l= 1   rc=  3.375302   el= -0.521201   Ekb=-13.264039   kbcos= -0.535594
   l= 2   rc=  3.872880   el=  0.001991   Ekb= -0.641094   kbcos= -0.062456
   l= 3   rc=  3.970931   el=  0.003093   Ekb= -0.474517   kbcos= -0.018236

KBgen: Total number of Kleinman-Bylander projectors:   16
atom: -------------------------------------------------------------------------

atom: SANKEY-TYPE ORBITALS:
atom: Selected multiple-zeta basis: split     

SPLIT: Orbitals with angular momentum L= 0

SPLIT: Basis orbitals for state 2s

SPLIT: PAO cut-off radius determined from an
SPLIT: energy shift=  0.002000 Ry

   izeta = 1
                 lambda =    1.000000
                     rc =    4.730425
                 energy =   -1.363399
                kinetic =    1.245246
    potential(screened) =   -2.608645
       potential(ionic) =   -8.121105

   izeta = 2
                 rmatch =    2.531849
              splitnorm =    0.280000
                 energy =   -0.959908
                kinetic =    2.409435
    potential(screened) =   -3.369343
       potential(ionic) =   -9.427975

SPLIT: Orbitals with angular momentum L= 1

SPLIT: Basis orbitals for state 2p

SPLIT: PAO cut-off radius determined from an
SPLIT: energy shift=  0.002000 Ry

   izeta = 1
                 lambda =    1.000000
                     rc =    5.924108
                 energy =   -0.519262
                kinetic =    3.672940
    potential(screened) =   -4.192202
       potential(ionic) =   -9.518354

   izeta = 2
                 rmatch =    2.531849
              splitnorm =    0.280000
                 energy =   -0.104258
                kinetic =    6.807538
    potential(screened) =   -6.911796
       potential(ionic) =  -13.149920

POLgen: Perturbative polarization orbital with L=  2

POLgen: Polarization orbital for state 2p

   izeta = 1
                     rc =    5.924108
                 energy =    1.427508
                kinetic =    2.872379
    potential(screened) =   -1.444871
       potential(ionic) =   -5.563644
atom: Total number of Sankey-type orbitals: 13

atm_pop: Valence configuration (for local Pseudopot. screening):
 2s( 2.00)                                                            
 2p( 3.00)                                                            
Vna: chval, zval:    5.00000   5.00000

Vna:  Cut-off radius for the neutral-atom potential:   5.924108

atom: _________________________________________________________________________

<basis_specs>
===============================================================================
Si                   Z=  14    Mass=  28.090        Charge= 0.17977+309
Lmxo=1 Lmxkb= 3    BasisType=split      Semic=F
L=0  Nsemic=0  Cnfigmx=3
          i=1  nzeta=2  polorb=0  (3s)
            splnorm:   0.28000    
               vcte:    0.0000    
               rinn:    0.0000    
               qcoe:    0.0000    
               qyuk:    0.0000    
               qwid:   0.10000E-01
                rcs:    0.0000      0.0000    
            lambdas:    1.0000      1.0000    
L=1  Nsemic=0  Cnfigmx=3
          i=1  nzeta=2  polorb=1  (3p)
            splnorm:   0.28000    
               vcte:    0.0000    
               rinn:    0.0000    
               qcoe:    0.0000    
               qyuk:    0.0000    
               qwid:   0.10000E-01
                rcs:    0.0000      0.0000    
            lambdas:    1.0000      1.0000    
-------------------------------------------------------------------------------
L=0  Nkbl=1  erefs: 0.17977+309
L=1  Nkbl=1  erefs: 0.17977+309
L=2  Nkbl=1  erefs: 0.17977+309
L=3  Nkbl=1  erefs: 0.17977+309
===============================================================================
</basis_specs>

atom: Called for Si                    (Z =  14)

read_vps: Pseudopotential generation method:
read_vps: ATM4.2.7  Troullier-Martins                       
Valence charge for ps generation:    4.00000

xc_check: Exchange-correlation functional:
xc_check: GGA Perdew, Burke & Ernzerhof 1996
V l=0 = -2*Zval/r beyond r=  2.7826
V l=1 = -2*Zval/r beyond r=  2.7826
V l=2 = -2*Zval/r beyond r=  2.9253
V l=3 = -2*Zval/r beyond r=  2.7826
All V_l potentials equal beyond r=  2.8530
This should be close to max(r_c) in ps generation
All pots = -2*Zval/r beyond r=  2.9253

VLOCAL1: 99.0% of the norm of Vloc inside      5.333 Ry
VLOCAL1: 99.9% of the norm of Vloc inside     12.154 Ry
atom: Maximum radius for 4*pi*r*r*local-pseudopot. charge    3.39869
atom: Maximum radius for r*vlocal+2*Zval:    2.96205
GHOST: No ghost state for L =  0
GHOST: No ghost state for L =  1
GHOST: No ghost state for L =  2
GHOST: No ghost state for L =  3

KBgen: Kleinman-Bylander projectors: 
   l= 0   rc=  3.075247   el= -0.794092   Ekb=  5.879390   kbcos=  0.167461
   l= 1   rc=  3.153101   el= -0.300068   Ekb=  2.642817   kbcos=  0.058301
   l= 2   rc=  3.273594   el=  0.001958   Ekb= -1.185135   kbcos= -0.104411
   l= 3   rc=  3.232927   el=  0.003046   Ekb= -0.497174   kbcos= -0.015889

KBgen: Total number of Kleinman-Bylander projectors:   16
atom: -------------------------------------------------------------------------

atom: SANKEY-TYPE ORBITALS:
atom: Selected multiple-zeta basis: split     

SPLIT: Orbitals with angular momentum L= 0

SPLIT: Basis orbitals for state 3s

SPLIT: PAO cut-off radius determined from an
SPLIT: energy shift=  0.002000 Ry

   izeta = 1
                 lambda =    1.000000
                     rc =    6.429618
                 energy =   -0.792283
                kinetic =    0.525293
    potential(screened) =   -1.317576
       potential(ionic) =   -3.744923

   izeta = 2
                 rmatch =    3.998416
              splitnorm =    0.280000
                 energy =   -0.583081
                kinetic =    1.069570
    potential(screened) =   -1.652651
       potential(ionic) =   -4.235185

SPLIT: Orbitals with angular momentum L= 1

SPLIT: Basis orbitals for state 3p

SPLIT: PAO cut-off radius determined from an
SPLIT: energy shift=  0.002000 Ry

   izeta = 1
                 lambda =    1.000000
                     rc =    8.464845
                 energy =   -0.298236
                kinetic =    0.785360
    potential(screened) =   -1.083596
       potential(ionic) =   -3.273779

   izeta = 2
                 rmatch =    4.587816
              splitnorm =    0.280000
                 energy =   -0.131871
                kinetic =    1.403687
    potential(screened) =   -1.535557
       potential(ionic) =   -4.015310

POLgen: Perturbative polarization orbital with L=  2

POLgen: Polarization orbital for state 3p

   izeta = 1
                     rc =    8.464845
                 energy =    0.321949
                kinetic =    1.055677
    potential(screened) =   -0.733728
       potential(ionic) =   -2.672950
atom: Total number of Sankey-type orbitals: 13

atm_pop: Valence configuration (for local Pseudopot. screening):
 3s( 2.00)                                                            
 3p( 2.00)                                                            
Vna: chval, zval:    4.00000   4.00000

Vna:  Cut-off radius for the neutral-atom potential:   8.464845

atom: _________________________________________________________________________

<basis_specs>
===============================================================================
O                    Z=   8    Mass=  16.000        Charge= 0.17977+309
Lmxo=1 Lmxkb= 3    BasisType=split      Semic=F
L=0  Nsemic=0  Cnfigmx=2
          i=1  nzeta=2  polorb=0  (2s)
            splnorm:   0.28000    
               vcte:    0.0000    
               rinn:    0.0000    
               qcoe:    0.0000    
               qyuk:    0.0000    
               qwid:   0.10000E-01
                rcs:    0.0000      0.0000    
            lambdas:    1.0000      1.0000    
L=1  Nsemic=0  Cnfigmx=2
          i=1  nzeta=2  polorb=1  (2p)
            splnorm:   0.28000    
               vcte:    0.0000    
               rinn:    0.0000    
               qcoe:    0.0000    
               qyuk:    0.0000    
               qwid:   0.10000E-01
                rcs:    0.0000      0.0000    
            lambdas:    1.0000      1.0000    
-------------------------------------------------------------------------------
L=0  Nkbl=1  erefs: 0.17977+309
L=1  Nkbl=1  erefs: 0.17977+309
L=2  Nkbl=1  erefs: 0.17977+309
L=3  Nkbl=1  erefs: 0.17977+309
===============================================================================
</basis_specs>

atom: Called for O                     (Z =   8)

read_vps: Pseudopotential generation method:
read_vps: ATM4.2.7  Troullier-Martins                       
Valence charge for ps generation:    6.00000

xc_check: Exchange-correlation functional:
xc_check: GGA Perdew, Burke & Ernzerhof 1996
V l=0 = -2*Zval/r beyond r=  1.1000
V l=1 = -2*Zval/r beyond r=  1.1000
V l=2 = -2*Zval/r beyond r=  2.2154
V l=3 = -2*Zval/r beyond r=  1.1000
All V_l potentials equal beyond r=  2.2154
This should be close to max(r_c) in ps generation
All pots = -2*Zval/r beyond r=  2.2154

VLOCAL1: 99.0% of the norm of Vloc inside      8.845 Ry
VLOCAL1: 99.9% of the norm of Vloc inside     20.157 Ry
atom: Maximum radius for 4*pi*r*r*local-pseudopot. charge    2.67231
atom: Maximum radius for r*vlocal+2*Zval:    2.32897
GHOST: No ghost state for L =  0
GHOST: No ghost state for L =  1
GHOST: No ghost state for L =  2
GHOST: No ghost state for L =  3

KBgen: Kleinman-Bylander projectors: 
   l= 0   rc=  2.243238   el= -1.759686   Ekb=**********   kbcos= -0.171774
   l= 1   rc=  2.328968   el= -0.663873   Ekb=-14.506792   kbcos= -0.519897
   l= 2   rc=  2.573941   el=  0.002031   Ekb= -1.137373   kbcos= -0.019581
   l= 3   rc=  2.606321   el=  0.003153   Ekb= -1.013546   kbcos= -0.003122

KBgen: Total number of Kleinman-Bylander projectors:   16
atom: -------------------------------------------------------------------------

atom: SANKEY-TYPE ORBITALS:
atom: Selected multiple-zeta basis: split     

SPLIT: Orbitals with angular momentum L= 0

SPLIT: Basis orbitals for state 2s

SPLIT: PAO cut-off radius determined from an
SPLIT: energy shift=  0.002000 Ry

   izeta = 1
                 lambda =    1.000000
                     rc =    4.243912
                 energy =   -1.758270
                kinetic =    3.286084
    potential(screened) =   -5.044353
       potential(ionic) =  -12.921184

   izeta = 2
                 rmatch =    2.187845
              splitnorm =    0.280000
                 energy =   -0.885018
                kinetic =    8.134434
    potential(screened) =   -9.019452
       potential(ionic) =  -17.710645

SPLIT: Orbitals with angular momentum L= 1

SPLIT: Basis orbitals for state 2p

SPLIT: PAO cut-off radius determined from an
SPLIT: energy shift=  0.002000 Ry

   izeta = 1
                 lambda =    1.000000
                     rc =    5.314825
                 energy =   -0.661986
                kinetic =    4.917472
    potential(screened) =   -5.579458
       potential(ionic) =  -13.236259

   izeta = 2
                 rmatch =    2.160663
              splitnorm =    0.280000
                 energy =   -0.068760
                kinetic =    9.183374
    potential(screened) =   -9.252135
       potential(ionic) =  -18.274251

POLgen: Perturbative polarization orbital with L=  2

POLgen: Polarization orbital for state 2p

   izeta = 1
                     rc =    5.314825
                 energy =    1.970580
                kinetic =    3.886128
    potential(screened) =   -1.915547
       potential(ionic) =   -7.749584
atom: Total number of Sankey-type orbitals: 13

atm_pop: Valence configuration (for local Pseudopot. screening):
 2s( 2.00)                                                            
 2p( 4.00)                                                            
Vna: chval, zval:    6.00000   6.00000

Vna:  Cut-off radius for the neutral-atom potential:   5.314825

atom: _________________________________________________________________________

prinput: Basis input ----------------------------------------------------------

PAO.BasisType split     

%block ChemicalSpeciesLabel
    1    1 H                       # Species index, atomic number, species label
    2    7 N                       # Species index, atomic number, species label
    3   14 Si                      # Species index, atomic number, species label
    4    8 O                       # Species index, atomic number, species label
%endblock ChemicalSpeciesLabel

%block PAO.Basis                 # Define Basis set
H                     1                    # Species label, number of l-shells
 n=1   0   2 P   1                   # n, l, Nzeta, Polarization, NzetaPol
   6.518      2.141   
   1.000      1.000   
N                     2                    # Species label, number of l-shells
 n=2   0   2                         # n, l, Nzeta 
   4.730      2.532   
   1.000      1.000   
 n=2   1   2 P   1                   # n, l, Nzeta, Polarization, NzetaPol
   5.924      2.532   
   1.000      1.000   
Si                    2                    # Species label, number of l-shells
 n=3   0   2                         # n, l, Nzeta 
   6.430      3.998   
   1.000      1.000   
 n=3   1   2 P   1                   # n, l, Nzeta, Polarization, NzetaPol
   8.465      4.588   
   1.000      1.000   
O                     2                    # Species label, number of l-shells
 n=2   0   2                         # n, l, Nzeta 
   4.244      2.188   
   1.000      1.000   
 n=2   1   2 P   1                   # n, l, Nzeta, Polarization, NzetaPol
   5.315      2.161   
   1.000      1.000   
%endblock PAO.Basis

prinput: ----------------------------------------------------------------------

Dumping basis to NetCDF file H.ion.nc
Dumping basis to NetCDF file N.ion.nc
Dumping basis to NetCDF file Si.ion.nc
Dumping basis to NetCDF file O.ion.nc
coor:   Atomic-coordinates input format  =     Cartesian coordinates
coor:                                          (in Angstroms)

siesta: Atomic coordinates (Bohr) and species
siesta:     -0.12088   9.88742   0.00000  1        1
siesta:     -1.45595   8.39447   0.00000  2        2
siesta:     -4.72572   9.22853   0.00000  3        3
siesta:     -5.02010  12.04421   0.00000  1        4
siesta:     -7.60438   6.28262   0.00000  3        5
siesta:    -10.40720   6.74150   0.00000  1        6
siesta:     -5.33975   2.66705   0.00000  3        7
siesta:     -6.78733  -0.22937   0.00000  2        8
siesta:     -5.67193  -2.03824   0.00000  1        9
siesta:     -8.77461  -0.38141   0.00000  1       10
siesta:     -2.09660   2.77131   0.00000  2       11
siesta:     -0.06510   5.28529   0.00000  3       12
siesta:      2.97485   5.24975   0.00000  4       13
siesta:     10.61355 -14.07759   0.00000  1       14
siesta:      8.65886 -13.66658   0.00000  2       15
siesta:      6.22979 -16.04876   0.00000  3       16
siesta:      7.18318 -18.71532  -0.00000  1       17
siesta:      3.13570 -15.14356   0.00000  2       18
siesta:      3.17659 -11.72506  -0.00000  3       19
siesta:      1.03072  -8.10005   0.00000  3       20
siesta:     -1.95457  -7.45403   0.00000  4       21
siesta:      3.27352  -5.43711   0.00000  2       22
siesta:      2.28576  -3.64645  -0.00000  1       23
siesta:      6.63017  -5.24735   0.00000  3       24
siesta:      7.81751  -2.22872   0.00000  2       25
siesta:      6.69523  -0.49602   0.00000  1       26
siesta:      9.79567  -1.98858  -0.00000  1       27
siesta:      8.75489  -7.70105  -0.00000  2       28
siesta:      7.16982 -10.55666   0.00000  3       29

siesta: Automatic unit cell vectors (Ang):
siesta:   19.824654    0.000000    0.000000
siesta:    0.000000   25.493543    0.000000
siesta:    0.000000    0.000000    9.854683

siesta: System type = molecule  

initatomlists: Number of atoms, orbitals, and projectors:     29   297   394

siesta: ******************** Simulation parameters ****************************
siesta:
siesta: The following are some of the parameters of the simulation.
siesta: A complete list of the parameters used, including default values,
siesta: can be found in file out.fdf
siesta:
redata: Spin configuration                          = spin-orbit
redata: Number of spin components                   = 8
redata: Time-Reversal Symmetry                      = F
redata: Spin spiral                                 = F
############################################################
This spin-orbit implementation uses a local approximation.
From 4.2 and onwards the full non-local approximation is implemented
You are strongly advised to use >=4.2 versions!
############################################################
redata: Long output                                 =   F
redata: Number of Atomic Species                    =        4
redata: Charge density info will appear in .RHO file
redata: Write Mulliken Pop.                         = NO
redata: Matel table size (NRTAB)                    =     1024
redata: Mesh Cutoff                                 =   340.0000 Ry
redata: Net charge of the system                    =     0.0000 |e|
redata: Min. number of SCF Iter                     =        1
redata: Max. number of SCF Iter                     =      600
redata: SCF convergence failure will abort job
redata: SCF mix quantity                            = Hamiltonian
redata: Mix DM or H after convergence               =   F
redata: Recompute H after scf cycle                 =   F
redata: Mix DM in first SCF step                    =   T
redata: Write Pulay info on disk                    =   F
redata: New DM Occupancy tolerance                  = 0.000000000001
redata: No kicks to SCF
redata: DM Mixing Weight for Kicks                  =     0.5000
redata: Require Harris convergence for SCF          =   F
redata: Harris energy tolerance for SCF             =     0.000100 eV
redata: Require DM convergence for SCF              =   T
redata: DM tolerance for SCF                        =     0.000008
redata: Require EDM convergence for SCF             =   F
redata: EDM tolerance for SCF                       =     0.001000 eV
redata: Require H convergence for SCF               =   T
redata: Hamiltonian tolerance for SCF               =     0.000001 eV
redata: Require (free) Energy convergence for SCF   =   F
redata: (free) Energy tolerance for SCF             =     0.000100 eV
redata: Using Saved Data (generic)                  =   F
redata: Use continuation files for DM               =   T
redata: Neglect nonoverlap interactions             =   F
redata: Method of Calculation                       = Diagonalization
redata: Electronic Temperature                      =   299.9978 K
redata: Fix the spin of the system                  =   F
redata: Dynamics option                             = Single-point calculation
mix.SCF: Pulay mixing                            = Pulay
mix.SCF:    Variant                              = stable
mix.SCF:    History steps                        = 6
mix.SCF:    Linear mixing weight                 =     0.250000
mix.SCF:    Mixing weight                        =     0.250000
mix.SCF:    SVD condition                        = 0.1000E-07
mix.SCF:    Restart steps                        = 24
mix.SCF:    Restart save steps                   = 3
mix.SCF: Spin-component mixing                   all
redata: Save all siesta data in one NC              =   F
redata: ***********************************************************************

%block SCF.Mixers
  Pulay
%endblock SCF.Mixers

%block SCF.Mixer.Pulay
  # Mixing method
  method pulay
  variant stable

  # Mixing options
  weight 0.2500
  weight.linear 0.2500
  history 6
  restart 24
  restart.save 3
%endblock SCF.Mixer.Pulay

DM_history_depth set to one: no extrapolation allowed by default for geometry relaxation
Size of DM history Fstack: 1
Total number of electrons:    98.000000
Total ionic charge:    98.000000

* ProcessorY, Blocksize:    2  24


* Orbital distribution balance (max,min):    57    48


Time-reversal symmetry not used.

siesta: k-grid: Number of k-points =     1
siesta: k-grid: Cutoff (effective) =     4.927 Ang
siesta: k-grid: Supercell and displacements
siesta: k-grid:    1   0   0      0.000
siesta: k-grid:    0   1   0      0.000
siesta: k-grid:    0   0   1      0.000

diag: Algorithm                                     = ELPA-1stage
diag: Parallel over k                               =   F
diag: Use parallel 2D distribution                  =   T
diag: Parallel block-size                           = 24
diag: Parallel distribution                         =     2 x     3
diag: Used triangular part                          = Lower
diag: Absolute tolerance                            =  0.100E-15
diag: Orthogonalization factor                      =  0.100E-05
diag: Memory factor                                 =  1.0000


ts: **************************************************************
ts: Save H and S matrices                           =    F
ts: Save DM and EDM matrices                        =    F
ts: Only save the overlap matrix S                  =    F
ts: **************************************************************

************************ Begin: TS CHECKS AND WARNINGS ************************
************************ End: TS CHECKS AND WARNINGS **************************


                     ====================================
                        Single-point calculation
                     ====================================

outcoor: Atomic coordinates (Ang):                          
   -0.06396956    5.23219748    0.00000000   1       1  H
   -0.77045629    4.44216130    0.00000000   2       2  N
   -2.50074320    4.88352521    0.00000000   3       3  Si
   -2.65652288    6.37351747    0.00000000   1       4  H
   -4.02406482    3.32461769    0.00000000   3       5  Si
   -5.50725245    3.56744805    0.00000000   1       6  H
   -2.82567396    1.41134153    0.00000000   3       7  Si
   -3.59169942   -0.12137521    0.00000000   2       8  N
   -3.00145287   -1.07858824    0.00000000   1       9  H
   -4.64332174   -0.20183544    0.00000000   1      10  H
   -1.10947390    1.46651584    0.00000000   2      11  N
   -0.03445128    2.79685468    0.00000000   3      12  Si
    1.57422204    2.77804442    0.00000000   4      13  O
    5.61644830   -7.44953905    0.00000000   1      14  H
    4.58206954   -7.23203760    0.00000000   2      15  N
    3.29666389   -8.49263600    0.00000000   3      16  Si
    3.80117524   -9.90371886    0.00000000   1      17  H
    1.65934232   -8.01362137    0.00000000   2      18  N
    1.68097912   -6.20463398    0.00000000   3      19  Si
    0.54543521   -4.28636135    0.00000000   3      20  Si
   -1.03431493   -3.94450034    0.00000000   4      21  O
    1.73226934   -2.87719605    0.00000000   2      22  N
    1.20957366   -1.92961761    0.00000000   1      23  H
    3.50853448   -2.77677601    0.00000000   3      24  Si
    4.13684451   -1.17938608    0.00000000   2      25  N
    3.54296161   -0.26248101    0.00000000   1      26  H
    5.18364407   -1.05231197    0.00000000   1      27  H
    4.63288658   -4.07521596    0.00000000   2      28  N
    3.79410501   -5.58634043    0.00000000   3      29  Si

outcell: Unit cell vectors (Ang):
       19.824654    0.000000    0.000000
        0.000000   25.493543    0.000000
        0.000000    0.000000    9.854683

outcell: Cell vector modules (Ang)   :   19.824654   25.493543    9.854683
outcell: Cell angles (23,13,12) (deg):     90.0000     90.0000     90.0000
outcell: Cell volume (Ang**3)        :   4980.5634
<dSpData1D:S at geom step 0
  <sparsity:sparsity for geom step 0
    nrows_g=297 nrows=57 sparsity=.1113 nnzs=9821, refcount: 8>
  <dData1D:(new from dSpData1D) n=9821, refcount: 1>
refcount: 1>
new_DM -- step:     1
Initializing Density Matrix...

Attempting to read DM from file... Failed...
DM filled with atomic data:
<dSpData2D:DM initialized from atoms
  <sparsity:sparsity for geom step 0
    nrows_g=297 nrows=57 sparsity=.1113 nnzs=9821, refcount: 9>
  <dData2D:DM n=9821 m=8, refcount: 1>
refcount: 1>
     spin moment: S , {S} =   56.00000   0.00000   0.00000  56.00000
No. of atoms with KB's overlaping orbs in proc 0. Max # of overlaps:      28     170

Initializing spin-orbit part of the Hamiltonian
  Adding spin-orbit effects for H 
  Adding spin-orbit effects for N 
  Adding spin-orbit effects for Si
  Adding spin-orbit effects for O 


New grid distribution:   1
           1       1:  120    1:   72    1:   20
           2       1:  120    1:   72   21:   40
           3       1:  120    1:   72   41:   60
           4       1:  120   73:  144    1:   20
           5       1:  120   73:  144   21:   40
           6       1:  120   73:  144   41:   60

InitMesh: MESH =   240 x   288 x   120 =     8294400
InitMesh: (bp) =   120 x   144 x    60 =     1036800
InitMesh: Mesh cutoff (required, used) =   340.000   352.717 Ry
ExtMesh (bp) on 0 =   232 x   176 x   132 =     5389824
New grid distribution:   2
           1      30:  120   20:  103    1:   60
           2      30:  120    1:   19    1:   60
           3       1:   16  104:  144    1:   60
           4      17:  120  124:  144    1:   60
           5       1:   29    1:  103    1:   60
           6      17:  120  104:  123    1:   60
New grid distribution:   3
           1      29:  120   24:   90    1:   60
           2       1:   28    1:   90    1:   60
           3      29:  120    1:   23    1:   60
           4       1:   23   91:  144    1:   60
           5      24:  120   91:  122    1:   60
           6      24:  120  123:  144    1:   60
Setting up quadratic distribution...
ExtMesh (bp) on 0 =   203 x   188 x   172 =     6564208
PhiOnMesh: Number of (b)points on node 0 =               458640
PhiOnMesh: nlist on node 0 =              2059872

stepf: Fermi-Dirac step function

siesta: Program's energy decomposition (eV):
siesta: Ebs     =      -618.542140
siesta: Eions   =      3585.165840
siesta: Ena     =       381.826211
siesta: Ekin    =      3367.369766
siesta: Enl     =     -3295.887004
siesta: Eso     =        -0.003412
siesta: Edftu   =         0.000000
siesta: DEna    =       153.333129
siesta: DUscf   =        80.985930
siesta: DUext   =         0.000000
siesta: Exc     =     -1203.618542
siesta: eta*DQ  =         0.000000
siesta: Emadel  =         0.000000
siesta: Emeta   =         0.000000
siesta: Emolmec =         0.000000
siesta: Ekinion =         0.000000
siesta: Eharris =     -4023.046730
siesta: Etot    =     -4101.159762
siesta: FreeEng =     -4101.160794

        iscf     Eharris(eV)        E_KS(eV)     FreeEng(eV)     dDmax    Ef(eV) dHmax(eV)
   scf:    1    -4023.046730    -4101.159762    -4101.160794  0.965260 -4.903730 21.752343
     spin moment: S , {S} =    2.00581   0.00000  -0.00000   2.00581
timer: Routine,Calls,Time,% = IterSCF        1       6.213  24.23
   scf:    2    -4148.044831    -4136.514763    -4136.516698  0.454644 -4.206564 11.175439
     spin moment: S , {S} =    1.98933  -0.00000  -0.00000   1.98933
   scf:    3    -4109.915439    -4134.251215    -4134.257793  0.425645 -4.320566 11.573915
     spin moment: S , {S} =    2.00411  -0.00000  -0.00000   2.00411
   scf:    4    -4149.698781    -4145.170653    -4145.170654  0.323385 -3.899801  6.352158
     spin moment: S , {S} =    0.00010  -0.00000  -0.00000   0.00010
   scf:    5    -4146.386220    -4145.874788    -4145.874788  0.034445 -3.701544  4.334022
     spin moment: S , {S} =    0.00006  -0.00000   0.00000   0.00006
   scf:    6    -4146.650055    -4146.270654    -4146.270654  0.024583 -3.628910  2.119782
     spin moment: S , {S} =    0.00003  -0.00000  -0.00000   0.00003
   scf:    7    -4146.618970    -4146.441477    -4146.441477  0.021176 -3.641918  0.890064
     spin moment: S , {S} =    0.00001   0.00000  -0.00000   0.00001
   scf:    8    -4146.563070    -4146.500244    -4146.500244  0.012667 -3.713617  0.484118
     spin moment: S , {S} =    0.00000  -0.00000  -0.00000   0.00000
   scf:    9    -4146.538077    -4146.518510    -4146.518510  0.006523 -3.753061  0.354010
     spin moment: S , {S} =    0.00000   0.00000  -0.00000   0.00000
   scf:   10    -4146.568927    -4146.538367    -4146.538367  0.020190 -3.783369  0.207242
     spin moment: S , {S} =    0.00000  -0.00000   0.00000  -0.00000
   scf:   11    -4146.541692    -4146.539975    -4146.539975  0.005594 -3.774223  0.058891
     spin moment: S , {S} =    0.00000   0.00000  -0.00000  -0.00000
   scf:   12    -4146.540856    -4146.540428    -4146.540428  0.001134 -3.769413  0.023036
     spin moment: S , {S} =    0.00000   0.00000  -0.00000   0.00000
   scf:   13    -4146.540819    -4146.540619    -4146.540619  0.001311 -3.767202  0.016407
     spin moment: S , {S} =    0.00000   0.00000  -0.00000   0.00000
   scf:   14    -4146.540863    -4146.540734    -4146.540734  0.001324 -3.766115  0.012883
     spin moment: S , {S} =    0.00000   0.00000  -0.00000   0.00000
   scf:   15    -4146.540862    -4146.540792    -4146.540792  0.001158 -3.765969  0.009432
     spin moment: S , {S} =    0.00000   0.00000  -0.00000   0.00000
   scf:   16    -4146.540881    -4146.540830    -4146.540830  0.001209 -3.766138  0.005916
     spin moment: S , {S} =    0.00000   0.00000  -0.00000   0.00000
   scf:   17    -4146.540857    -4146.540842    -4146.540842  0.000663 -3.766076  0.003992
     spin moment: S , {S} =    0.00000   0.00000  -0.00000   0.00000
   scf:   18    -4146.540852    -4146.540846    -4146.540846  0.000434 -3.766102  0.002113
     spin moment: S , {S} =    0.00000   0.00000  -0.00000   0.00000
   scf:   19    -4146.540850    -4146.540848    -4146.540848  0.000269 -3.766134  0.001107
     spin moment: S , {S} =    0.00000   0.00000  -0.00000   0.00000
   scf:   20    -4146.540849    -4146.540848    -4146.540848  0.000128 -3.766152  0.000694
     spin moment: S , {S} =    0.00000  -0.00000  -0.00000   0.00000
   scf:   21    -4146.540849    -4146.540849    -4146.540849  0.000116 -3.766161  0.000265
     spin moment: S , {S} =    0.00000  -0.00000  -0.00000   0.00000
   scf:   22    -4146.540849    -4146.540849    -4146.540849  0.000040 -3.766146  0.000113
     spin moment: S , {S} =    0.00000  -0.00000  -0.00000   0.00000
   scf:   23    -4146.540849    -4146.540849    -4146.540849  0.000008 -3.766142  0.000076
     spin moment: S , {S} =    0.00000  -0.00000  -0.00000   0.00000
   scf:   24    -4146.540849    -4146.540849    -4146.540849  0.000003 -3.766140  0.000052
     spin moment: S , {S} =    0.00000  -0.00000  -0.00000   0.00000
mix: Pulay -- resetting history
   scf:   25    -4146.540849    -4146.540849    -4146.540849  0.000004 -3.766138  0.000034
     spin moment: S , {S} =    0.00000  -0.00000  -0.00000  -0.00000
   scf:   26    -4146.540849    -4146.540849    -4146.540849  0.000003 -3.766138  0.000019
     spin moment: S , {S} =    0.00000  -0.00000  -0.00000  -0.00000
   scf:   27    -4146.540849    -4146.540849    -4146.540849  0.000003 -3.766138  0.000007
     spin moment: S , {S} =    0.00000  -0.00000  -0.00000  -0.00000
   scf:   28    -4146.540849    -4146.540849    -4146.540849  0.000001 -3.766138  0.000004
     spin moment: S , {S} =    0.00000  -0.00000  -0.00000  -0.00000
   scf:   29    -4146.540849    -4146.540849    -4146.540849  0.000000 -3.766138  0.000002
     spin moment: S , {S} =    0.00000  -0.00000  -0.00000   0.00000
   scf:   30    -4146.540849    -4146.540849    -4146.540849  0.000000 -3.766138  0.000001
     spin moment: S , {S} =    0.00000  -0.00000  -0.00000   0.00000
   scf:   31    -4146.540849    -4146.540849    -4146.540849  0.000000 -3.766138  0.000001
     spin moment: S , {S} =    0.00000  -0.00000  -0.00000   0.00000

SCF Convergence by DM+H criterion
max |DM_out - DM_in|         :     0.0000001386
max |H_out - H_in|      (eV) :     0.0000007218
SCF cycle converged after 31 iterations

Using DM_out to compute the final energy and forces
No. of atoms with KB's overlaping orbs in proc 0. Max # of overlaps:      28     170

siesta: E_KS(eV) =            -4146.5408

siesta: E_KS - E_eggbox =     -4146.5408
     spin moment: S , {S} =    0.00000  -0.00000  -0.00000   0.00000

siesta: Atomic forces (eV/Ang):
     1   -0.043635   -0.072034    0.000000
     2   -0.450557    0.266011    0.000000
     3    0.370857   -0.023274   -0.000000
     4    0.034849    0.110109    0.000000
     5   -0.185913   -0.195243   -0.000000
     6   -0.010692    0.016784    0.000000
     7    1.077258    0.899427    0.000000
     8    0.822160   -2.222088    0.000000
     9   -1.188979    1.733717   -0.000000
    10    0.173262   -0.224750   -0.000000
    11   -0.873763   -0.282800   -0.000000
    12    1.040963   -0.213799   -0.000000
    13   -1.820118   -1.667601   -0.000000
    14    0.013994    0.127109    0.000000
    15    0.098156    0.037786    0.000000
    16    0.021114   -0.012955    0.000000
    17   -0.064373   -0.102275    0.000000
    18   -0.008694    0.042013   -0.000000
    19    0.234510    0.029492    0.000000
    20   -1.230684   -0.133801   -0.000000
    21   -0.122064   -1.550100    0.000000
    22    0.286405    0.693573   -0.000000
    23    0.249429   -0.590097    0.000000
    24   -0.305798   -0.822101   -0.000000
    25   -0.495030    1.477915   -0.000000
    26    0.899729   -1.144429    0.000000
    27   -0.038639    0.097132    0.000000
    28    0.062260    0.607825    0.000000
    29   -0.270848   -0.359589   -0.000000
----------------------------------------
   Tot   -1.724844   -3.478043   -0.000000
----------------------------------------
   Max    2.222088
   Res    0.602521    sqrt( Sum f_i^2 / 3N )
----------------------------------------
   Max    2.222088    constrained

Stress tensor Voigt[x,y,z,yz,xz,xy] (kbar):        1.40        0.92       -0.08       -0.00       -0.00       -1.37
(Free)E + p*V (eV/cell)    -4148.8678
Target enthalpy (eV/cell)    -4146.5408

siesta: Eigenvalues (eV):
ik =     1
  -21.9201  -21.9201  -21.7750  -21.7750  -21.5493  -21.5493  -21.5003  -21.5003  -21.2216  -21.2216
  -21.1016  -21.1016  -20.7770  -20.7770  -19.7746  -19.7746  -19.4174  -19.4174  -19.3557  -19.3557
  -14.7629  -14.7629  -13.8662  -13.8662  -13.3232  -13.3232  -13.1102  -13.1102  -13.0559  -13.0559
  -12.8489  -12.8489  -12.7613  -12.7613  -12.4048  -12.4048  -12.3708  -12.3708  -12.0370  -12.0370
  -11.3612  -11.3612  -10.8190  -10.8190  -10.7388  -10.7388  -10.6947  -10.6947  -10.1042  -10.1042
   -9.5764   -9.5764   -9.2336   -9.2336   -8.8430   -8.8430   -8.7050   -8.7050   -8.6757   -8.6757
   -8.5847   -8.5847   -8.4348   -8.4348   -8.1549   -8.1549   -7.8091   -7.8091   -7.7195   -7.7195
   -7.6181   -7.6181   -7.3103   -7.3103   -7.2644   -7.2644   -6.8284   -6.8284   -6.7910   -6.7910
   -6.5377   -6.5377   -6.4999   -6.4999   -6.1603   -6.1603   -6.1230   -6.1230   -6.1130   -6.1130
   -5.8869   -5.8869   -5.6757   -5.6757   -5.4939   -5.4939   -4.2973   -4.2973   -3.2351   -3.2351
   -2.3128   -2.3128   -2.3043   -2.3043   -2.2726   -2.2726   -1.8824   -1.8824   -1.8458   -1.8458
   -1.8378   -1.8378   -1.8069   -1.8069   -1.5965   -1.5965   -1.5055   -1.5055   -1.0171   -1.0171
   -0.9217   -0.9217   -0.7740   -0.7740   -0.3945   -0.3945   -0.2114   -0.2114    0.0822    0.0822
    0.4241    0.4241    0.4549    0.4549    0.5680    0.5680    0.7014    0.7014    0.8357    0.8357
    1.0302    1.0302    1.2538    1.2538    1.3393    1.3393    1.4273    1.4273    1.4337    1.4337
    1.7453    1.7453    1.8694    1.8694    1.9642    1.9642    2.3374    2.3374    2.7376    2.7376
    2.7433    2.7433    2.8147    2.8147    2.9392    2.9392    3.2076    3.2076    3.4062    3.4062
    3.4101    3.4101    3.7810    3.7810    3.8554    3.8554    4.0932    4.0932    4.3396    4.3396
    4.4121    4.4121    4.4558    4.4558    4.5636    4.5636    4.6206    4.6206    4.8631    4.8631
    4.8783    4.8783    5.0376    5.0376    5.2554    5.2554    5.5129    5.5129    5.6647    5.6647
    5.7819    5.7819    5.7943    5.7943    5.9691    5.9691    5.9764    5.9764    6.1773    6.1773
    6.1839    6.1839    6.3730    6.3730    6.5935    6.5935    6.7116    6.7116    6.8340    6.8340
    7.0275    7.0275    7.1838    7.1838    7.4434    7.4434    7.5629    7.5629    7.7384    7.7384
    7.8607    7.8607    7.9900    7.9900    8.0847    8.0847    8.2877    8.2877    8.3482    8.3482
    8.5615    8.5615    8.7336    8.7336    8.8880    8.8880    8.9164    8.9164    9.1642    9.1642
    9.2074    9.2074    9.3087    9.3087    9.7606    9.7606    9.8348    9.8348    9.8571    9.8571
   10.0792   10.0792   10.1770   10.1770   10.4554   10.4554   10.8060   10.8060   10.9717   10.9717
   10.9948   10.9948   11.1103   11.1103   11.1277   11.1277   11.7162   11.7162   11.7607   11.7607
   11.8186   11.8186   11.9505   11.9505   12.2252   12.2252   12.4268   12.4268   12.6791   12.6791
   12.7231   12.7231   12.8077   12.8077   13.3514   13.3514   13.4702   13.4702   13.6990   13.6990
   13.7813   13.7813   14.1035   14.1035   14.3144   14.3144   14.7295   14.7295   14.7564   14.7564
   14.9062   14.9062   15.3363   15.3363   16.0017   16.0017   16.4709   16.4709   16.7108   16.7108
   16.9287   16.9287   17.3771   17.3771   17.5867   17.5867   18.2458   18.2458   18.4874   18.4874
   18.5957   18.5957   19.1649   19.1649   19.3497   19.3497   19.9039   19.9039   20.2783   20.2783
   21.0187   21.0187   21.2574   21.2574   21.9475   21.9475   22.1593   22.1593   22.4455   22.4455
   22.8835   22.8835   23.3678   23.3678   23.7399   23.7399   23.8193   23.8193   23.9884   23.9884
   24.9482   24.9482   25.3452   25.3452   26.0183   26.0183   26.7362   26.7362   27.7330   27.7330
   28.8202   28.8202   28.9979   28.9979   29.1019   29.1019   29.4653   29.4653   29.8557   29.8557
   30.1165   30.1165   30.2313   30.2314   30.3450   30.3450   30.7628   30.7628   30.9889   30.9889
   31.1356   31.1356   31.2695   31.2695   31.6209   31.6209   31.8200   31.8200   32.0438   32.0438
   33.1307   33.1307   33.8909   33.8909   34.5415   34.5415   34.6234   34.6234   34.8043   34.8043
   34.9255   34.9255   35.0418   35.0418   35.5082   35.5082   35.6023   35.6023   35.6717   35.6717
   36.8993   36.8993   36.9827   36.9827   37.2131   37.2131   37.3808   37.3808   38.0014   38.0014
   38.1447   38.1447   38.7472   38.7472   39.2452   39.2452   39.4286   39.4286   40.0749   40.0749
   40.4366   40.4366   40.5379   40.5379   40.6358   40.6358   40.8439   40.8439   41.2544   41.2544
   41.3715   41.3715   42.0506   42.0506   42.7147   42.7147   42.8519   42.8519   43.0949   43.0949
   43.3616   43.3616   43.7582   43.7582   44.0646   44.0646   44.1628   44.1628   44.3785   44.3785
   44.6595   44.6595   44.8450   44.8450   45.2054   45.2054   45.6360   45.6360   46.0069   46.0069
   46.6242   46.6242   47.2067   47.2067   47.3369   47.3369   48.7160   48.7160   49.4727   49.4727
   49.5458   49.5458   50.3170   50.3170   50.4694   50.4694   50.9501   50.9501   51.1306   51.1306
   51.5142   51.5142   52.1125   52.1125   52.5045   52.5045   53.2930   53.2930   54.2467   54.2467
   54.3512   54.3512   54.7466   54.7466   55.2943   55.2943   55.7045   55.7045   56.0203   56.0203
   56.1555   56.1555   56.4197   56.4197   56.4810   56.4810   58.4457   58.4457   58.8216   58.8216
   59.1797   59.1797   60.2881   60.2881   60.3098   60.3098   61.1218   61.1218   61.5920   61.5920
   61.7824   61.7824   62.1371   62.1371   62.4126   62.4126   64.7446   64.7446   66.5682   66.5682
   66.8688   66.8688   67.3773   67.3773   68.0759   68.0759   68.7903   68.7903   70.8732   70.8732
   73.8624   73.8624   81.1131   81.1131   91.2715   91.2715   92.0706   92.0706   93.3076   93.3076
   98.4038   98.4038   99.2445   99.2445   99.6218   99.6218  103.2582  103.2582  103.8642  103.8642
  110.2443  110.2443  112.1694  112.1694  124.0880  124.0880  126.3225  126.3225  129.5968  129.5968
  135.4198  135.4198  138.4627  138.4627
siesta: Fermi energy =      -3.766138 eV

siesta: Program's energy decomposition (eV):
siesta: Ebs     =     -1133.977062
siesta: Eions   =      3585.165840
siesta: Ena     =       381.826211
siesta: Ekin    =      2902.532364
siesta: Enl     =     -2787.394904
siesta: Eso     =        -0.004273
siesta: Edftu   =         0.000000
siesta: DEna    =        46.996616
siesta: DUscf   =        14.253530
siesta: DUext   =         0.000000
siesta: Exc     =     -1119.584553
siesta: eta*DQ  =         0.000000
siesta: Emadel  =         0.000000
siesta: Emeta   =         0.000000
siesta: Emolmec =         0.000000
siesta: Ekinion =         0.000000
siesta: Eharris =     -4146.540849
siesta: Etot    =     -4146.540849
siesta: FreeEng =     -4146.540849

siesta: Final energy (eV):
siesta:  Band Struct. =   -1133.977062
siesta:       Kinetic =    2902.532364
siesta:       Hartree =    8321.488693
siesta:       Edftu   =       0.000000
siesta:       Eso     =      -0.004273
siesta:    Ext. field =       0.000000
siesta:   Exch.-corr. =   -1119.584553
siesta:  Ion-electron =  -19226.140151
siesta:       Ion-ion =    4975.167072
siesta:       Ekinion =       0.000000
siesta:         Total =   -4146.540849
siesta:         Fermi =      -3.766138

siesta: Atomic forces (eV/Ang):
siesta:      1   -0.043635   -0.072034    0.000000
siesta:      2   -0.450557    0.266011    0.000000
siesta:      3    0.370857   -0.023274   -0.000000
siesta:      4    0.034849    0.110109    0.000000
siesta:      5   -0.185913   -0.195243   -0.000000
siesta:      6   -0.010692    0.016784    0.000000
siesta:      7    1.077258    0.899427    0.000000
siesta:      8    0.822160   -2.222088    0.000000
siesta:      9   -1.188979    1.733717   -0.000000
siesta:     10    0.173262   -0.224750   -0.000000
siesta:     11   -0.873763   -0.282800   -0.000000
siesta:     12    1.040963   -0.213799   -0.000000
siesta:     13   -1.820118   -1.667601   -0.000000
siesta:     14    0.013994    0.127109    0.000000
siesta:     15    0.098156    0.037786    0.000000
siesta:     16    0.021114   -0.012955    0.000000
siesta:     17   -0.064373   -0.102275    0.000000
siesta:     18   -0.008694    0.042013   -0.000000
siesta:     19    0.234510    0.029492    0.000000
siesta:     20   -1.230684   -0.133801   -0.000000
siesta:     21   -0.122064   -1.550100    0.000000
siesta:     22    0.286405    0.693573   -0.000000
siesta:     23    0.249429   -0.590097    0.000000
siesta:     24   -0.305798   -0.822101   -0.000000
siesta:     25   -0.495030    1.477915   -0.000000
siesta:     26    0.899729   -1.144429    0.000000
siesta:     27   -0.038639    0.097132    0.000000
siesta:     28    0.062260    0.607825    0.000000
siesta:     29   -0.270848   -0.359589   -0.000000
siesta: ----------------------------------------
siesta:    Tot   -1.724844   -3.478043   -0.000000

siesta: Stress tensor (static) (eV/Ang**3):
siesta:     0.000876   -0.000858   -0.000000
siesta:    -0.000858    0.000577   -0.000000
siesta:    -0.000000   -0.000000   -0.000051

siesta: Cell volume =       4980.563382 Ang**3

siesta: Pressure (static):
siesta:                Solid            Molecule  Units
siesta:          -0.00000509          0.00000095  Ry/Bohr**3
siesta:          -0.00046720          0.00008746  eV/Ang**3
siesta:          -0.74855294          0.14013503  kBar
(Free)E+ p_basis*V_orbitals  =       -4126.690431
(Free)Eharris+ p_basis*V_orbitals  =       -4126.690431
     spin moment: S , {S} =    0.00000  -0.00000  -0.00000   0.00000

siesta: Electric dipole (a.u.)  =   -0.017273    1.574840    0.000000
siesta: Electric dipole (Debye) =   -0.043904    4.002847    0.000000

cite: Please see "GC.bib" for an exhaustive BiBTeX file.
cite: Please clearly indicate Siesta version in published work: v4.1.5-1-g384057250
cite: This calculation has made use of the following articles
cite: which are encouraged to be cited in a published work.
        Primary SIESTA paper
          DOI: www.doi.org/10.1088/0953-8984/14/11/302
        Spin-orbit coupling (on-site approximation)
          DOI: www.doi.org/10.1088/0953-8984/19/19/489001


WARNING: alloc-realloc-dealloc name mismatch
         Name: atomlist isa
         Size:              -116. Bytes
         Node:     0
         Subsequent mismatches will not be reported
>> End of run:  16-OCT-2023  18:45:21
Job completed
