Siesta Version  : v4.1.5-1-g384057250
Architecture    : gcc
Compiler version: GNU Fortran (Ubuntu 11.3.0-1ubuntu1~22.04) 11.3.0
Compiler flags  : mpifort -O2 -fPIC -ftree-vectorize -fallow-argument-mismatch
PP flags        : -DFC_HAVE_ABORT -DMPI -DSIESTA__FLOOK -DSIESTA__METIS -DSIESTA__MUMPS -DCDF -DNCDF -DNCDF_4 -DNCDF_PARALLEL -DSIESTA__MRRR -DSIESTA__ELPA
Libraries       : libncdf.a libfdict.a  -lflookall -ldl -lnetcdff -lnetcdf -lhdf5_hl -lhdf5 -lhdf5_fortran -lz -lscalapack-openmpi -lopenblas -lmetis -lzmumps -lcmumps -ldmumps -lmumps_common -lpord -lsmumps -lesmumps -lscotch -lscotcherr -fopenmp -lelpa
PARALLEL version
NetCDF support
NetCDF-4 support
NetCDF-4 MPI-IO support
METIS ordering support
Lua support

* Running on 4 nodes in parallel
>> Start of run:   4-JUL-2023   9:36:13

                           ***********************       
                           *  WELCOME TO SIESTA  *       
                           ***********************       

reinit: Reading from standard input
reinit: Dumped input in INPUT_TMP.99764
************************** Dump of input data file ****************************
SystemLabel      GC
NumberOfAtoms    29
NumberOfSpecies  4
%block ChemicalSpeciesLabel
    1    8  O
    2    7  N
    3   14  Si
    4    1  H
%endblock ChemicalSpeciesLabel
# Single point calculation
MD.TypeOfRun                CG
MD.Steps                    0
SCF.MustConverge            F # In case it does not. There can be 2 very close atoms
AtomicCoordinatesFormat NotScaledCartesianAng
%block AtomicCoordinatesAndAtomicSpecies
0.958671510    3.803529300    0.000000000       1
-3.038688210   0.998073330    0.000000000       2
2.066567750    1.099065770    0.000000000       2
1.029569860    -1.834680850   0.000000000       2
-2.108567660   -1.881798240   0.000000000       2
3.912411070    -1.180894430   0.000000000       2
-1.235636790   1.044983000    0.000000000       3
-0.501909240   -1.031832280   0.000000000       3
0.629463280    2.232755840    0.000000000       3
2.280054370    -0.658293540   0.000000000       3
-3.424812990   -0.662324160   0.000000000       3
2.965974160    1.682263990    0.000000000       4
-4.796229390   -1.238728480   0.000000000       4
4.096559410    -2.214148760   0.000000000       4
4.792108680    -0.529147250   0.000000000       4
-2.266861300   -2.922393730   0.000000000       4
4.677475428    4.963299641    0.000000000       3
6.602953178    6.154928971    0.000000000       3
6.138146788    2.228745271    0.000000000       3
8.209326708    4.675791861    0.000000000       3
4.779759968    3.253944951    0.000000000       2
3.098097338    5.633529131    0.000000000       2
7.791216688    2.943908951    0.000000000       2
6.911443998    7.619590331    0.000000000       4
9.700999618    4.875771321    0.000000000       4
2.913470898    6.668402861    0.000000000       4
2.206005548    4.962240401    0.000000000       4
6.128016188    0.630516751    0.000000000       1
8.567815068    2.222078751    0.000000000       4
%endblock AtomicCoordinatesAndAtomicSpecies
%include ../../../Defaults.fdf
************************** End of input data file *****************************

reinit: -----------------------------------------------------------------------
reinit: System Name: 
reinit: -----------------------------------------------------------------------
reinit: System Label: GC
reinit: -----------------------------------------------------------------------

initatom: Reading input for the pseudopotentials and atomic orbitals ----------
Species number:   1 Atomic number:    8 Label: O
Species number:   2 Atomic number:    7 Label: N
Species number:   3 Atomic number:   14 Label: Si
Species number:   4 Atomic number:    1 Label: H

Ground state valence configuration:   2s02  2p04
Reading pseudopotential information in formatted form from O.psf

Pseudopotential generated from a relativistic atomic calculation

Valence configuration for pseudopotential generation:
2s( 2.00) rc: 0.45
2p( 4.00) rc: 0.92
3d( 0.00) rc: 2.24
4f( 0.00) rc: 0.25
Ground state valence configuration:   2s02  2p03
Reading pseudopotential information in formatted form from N.psf

Pseudopotential generated from a relativistic atomic calculation

Valence configuration for pseudopotential generation:
2s( 2.00) rc: 0.94
2p( 3.00) rc: 0.59
3d( 0.00) rc: 3.46
4f( 0.00) rc: 2.47
Ground state valence configuration:   3s02  3p02
Reading pseudopotential information in formatted form from Si.psf

Pseudopotential generated from a relativistic atomic calculation

Valence configuration for pseudopotential generation:
3s( 2.00) rc: 1.67
3p( 2.00) rc: 2.04
3d( 0.00) rc: 2.89
4f( 0.00) rc: 2.49
Ground state valence configuration:   1s01
Reading pseudopotential information in formatted form from H.psf

Pseudopotential generated from a relativistic atomic calculation

Valence configuration for pseudopotential generation:
1s( 1.00) rc: 0.01
2p( 0.00) rc: 0.60
3d( 0.00) rc: 1.99
4f( 0.00) rc: 2.49
For O, standard SIESTA heuristics set lmxkb to 3
 (one more than the basis l, including polarization orbitals).
Use PS.lmax or PS.KBprojectors blocks to override.
For N, standard SIESTA heuristics set lmxkb to 3
 (one more than the basis l, including polarization orbitals).
Use PS.lmax or PS.KBprojectors blocks to override.
For Si, standard SIESTA heuristics set lmxkb to 3
 (one more than the basis l, including polarization orbitals).
Use PS.lmax or PS.KBprojectors blocks to override.
For H, standard SIESTA heuristics set lmxkb to 2
 (one more than the basis l, including polarization orbitals).
Use PS.lmax or PS.KBprojectors blocks to override.

<basis_specs>
===============================================================================
O                    Z=   8    Mass=  16.000        Charge= 0.17977+309
Lmxo=1 Lmxkb= 3    BasisType=split      Semic=F
L=0  Nsemic=0  Cnfigmx=2
          i=1  nzeta=2  polorb=0  (2s)
            splnorm:   0.28000    
               vcte:    0.0000    
               rinn:    0.0000    
               qcoe:    0.0000    
               qyuk:    0.0000    
               qwid:   0.10000E-01
                rcs:    0.0000      0.0000    
            lambdas:    1.0000      1.0000    
L=1  Nsemic=0  Cnfigmx=2
          i=1  nzeta=2  polorb=1  (2p)
            splnorm:   0.28000    
               vcte:    0.0000    
               rinn:    0.0000    
               qcoe:    0.0000    
               qyuk:    0.0000    
               qwid:   0.10000E-01
                rcs:    0.0000      0.0000    
            lambdas:    1.0000      1.0000    
-------------------------------------------------------------------------------
L=0  Nkbl=1  erefs: 0.17977+309
L=1  Nkbl=1  erefs: 0.17977+309
L=2  Nkbl=1  erefs: 0.17977+309
L=3  Nkbl=1  erefs: 0.17977+309
===============================================================================
</basis_specs>

atom: Called for O                     (Z =   8)

read_vps: Pseudopotential generation method:
read_vps: ATM4.2.7  Troullier-Martins                       
Valence charge for ps generation:    6.00000

xc_check: Exchange-correlation functional:
xc_check: GGA Perdew, Burke & Ernzerhof 1996
V l=0 = -2*Zval/r beyond r=  1.1000
V l=1 = -2*Zval/r beyond r=  1.1000
V l=2 = -2*Zval/r beyond r=  2.2154
V l=3 = -2*Zval/r beyond r=  1.1000
All V_l potentials equal beyond r=  2.2154
This should be close to max(r_c) in ps generation
All pots = -2*Zval/r beyond r=  2.2154

VLOCAL1: 99.0% of the norm of Vloc inside      8.845 Ry
VLOCAL1: 99.9% of the norm of Vloc inside     20.157 Ry
atom: Maximum radius for 4*pi*r*r*local-pseudopot. charge    2.67231
atom: Maximum radius for r*vlocal+2*Zval:    2.32897
GHOST: No ghost state for L =  0
GHOST: No ghost state for L =  1
GHOST: No ghost state for L =  2
GHOST: No ghost state for L =  3

KBgen: Kleinman-Bylander projectors: 
   l= 0   rc=  2.243238   el= -1.759686   Ekb=**********   kbcos= -0.171774
   l= 1   rc=  2.328968   el= -0.663873   Ekb=-14.506792   kbcos= -0.519897
   l= 2   rc=  2.573941   el=  0.002031   Ekb= -1.137373   kbcos= -0.019581
   l= 3   rc=  2.606321   el=  0.003153   Ekb= -1.013546   kbcos= -0.003122

KBgen: Total number of Kleinman-Bylander projectors:   16
atom: -------------------------------------------------------------------------

atom: SANKEY-TYPE ORBITALS:
atom: Selected multiple-zeta basis: split     

SPLIT: Orbitals with angular momentum L= 0

SPLIT: Basis orbitals for state 2s

SPLIT: PAO cut-off radius determined from an
SPLIT: energy shift=  0.002000 Ry

   izeta = 1
                 lambda =    1.000000
                     rc =    4.243912
                 energy =   -1.758270
                kinetic =    3.286084
    potential(screened) =   -5.044353
       potential(ionic) =  -12.921184

   izeta = 2
                 rmatch =    2.187845
              splitnorm =    0.280000
                 energy =   -0.885018
                kinetic =    8.134434
    potential(screened) =   -9.019452
       potential(ionic) =  -17.710645

SPLIT: Orbitals with angular momentum L= 1

SPLIT: Basis orbitals for state 2p

SPLIT: PAO cut-off radius determined from an
SPLIT: energy shift=  0.002000 Ry

   izeta = 1
                 lambda =    1.000000
                     rc =    5.314825
                 energy =   -0.661986
                kinetic =    4.917472
    potential(screened) =   -5.579458
       potential(ionic) =  -13.236259

   izeta = 2
                 rmatch =    2.160663
              splitnorm =    0.280000
                 energy =   -0.068760
                kinetic =    9.183374
    potential(screened) =   -9.252135
       potential(ionic) =  -18.274251

POLgen: Perturbative polarization orbital with L=  2

POLgen: Polarization orbital for state 2p

   izeta = 1
                     rc =    5.314825
                 energy =    1.970580
                kinetic =    3.886128
    potential(screened) =   -1.915547
       potential(ionic) =   -7.749584
atom: Total number of Sankey-type orbitals: 13

atm_pop: Valence configuration (for local Pseudopot. screening):
 2s( 2.00)                                                            
 2p( 4.00)                                                            
Vna: chval, zval:    6.00000   6.00000

Vna:  Cut-off radius for the neutral-atom potential:   5.314825

atom: _________________________________________________________________________

<basis_specs>
===============================================================================
N                    Z=   7    Mass=  14.010        Charge= 0.17977+309
Lmxo=1 Lmxkb= 3    BasisType=split      Semic=F
L=0  Nsemic=0  Cnfigmx=2
          i=1  nzeta=2  polorb=0  (2s)
            splnorm:   0.28000    
               vcte:    0.0000    
               rinn:    0.0000    
               qcoe:    0.0000    
               qyuk:    0.0000    
               qwid:   0.10000E-01
                rcs:    0.0000      0.0000    
            lambdas:    1.0000      1.0000    
L=1  Nsemic=0  Cnfigmx=2
          i=1  nzeta=2  polorb=1  (2p)
            splnorm:   0.28000    
               vcte:    0.0000    
               rinn:    0.0000    
               qcoe:    0.0000    
               qyuk:    0.0000    
               qwid:   0.10000E-01
                rcs:    0.0000      0.0000    
            lambdas:    1.0000      1.0000    
-------------------------------------------------------------------------------
L=0  Nkbl=1  erefs: 0.17977+309
L=1  Nkbl=1  erefs: 0.17977+309
L=2  Nkbl=1  erefs: 0.17977+309
L=3  Nkbl=1  erefs: 0.17977+309
===============================================================================
</basis_specs>

atom: Called for N                     (Z =   7)

read_vps: Pseudopotential generation method:
read_vps: ATM4.2.7  Troullier-Martins                       
Valence charge for ps generation:    5.00000

xc_check: Exchange-correlation functional:
xc_check: GGA Perdew, Burke & Ernzerhof 1996
V l=0 = -2*Zval/r beyond r=  1.2889
V l=1 = -2*Zval/r beyond r=  1.2889
V l=2 = -2*Zval/r beyond r=  3.4178
V l=3 = -2*Zval/r beyond r=  2.4084
All V_l potentials equal beyond r=  3.3753
This should be close to max(r_c) in ps generation
All pots = -2*Zval/r beyond r=  3.4178

VLOCAL1: 99.0% of the norm of Vloc inside      3.810 Ry
VLOCAL1: 99.9% of the norm of Vloc inside      8.683 Ry
atom: Maximum radius for 4*pi*r*r*local-pseudopot. charge    4.02088
atom: Maximum radius for r*vlocal+2*Zval:    3.54838
GHOST: No ghost state for L =  0
GHOST: No ghost state for L =  1
GHOST: No ghost state for L =  2
GHOST: No ghost state for L =  3

KBgen: Kleinman-Bylander projectors: 
   l= 0   rc=  3.417763   el= -1.365098   Ekb= -4.433130   kbcos= -0.707855
   l= 1   rc=  3.375302   el= -0.521201   Ekb=-13.264039   kbcos= -0.535594
   l= 2   rc=  3.872880   el=  0.001991   Ekb= -0.641094   kbcos= -0.062456
   l= 3   rc=  3.970931   el=  0.003093   Ekb= -0.474517   kbcos= -0.018236

KBgen: Total number of Kleinman-Bylander projectors:   16
atom: -------------------------------------------------------------------------

atom: SANKEY-TYPE ORBITALS:
atom: Selected multiple-zeta basis: split     

SPLIT: Orbitals with angular momentum L= 0

SPLIT: Basis orbitals for state 2s

SPLIT: PAO cut-off radius determined from an
SPLIT: energy shift=  0.002000 Ry

   izeta = 1
                 lambda =    1.000000
                     rc =    4.730425
                 energy =   -1.363399
                kinetic =    1.245246
    potential(screened) =   -2.608645
       potential(ionic) =   -8.121105

   izeta = 2
                 rmatch =    2.531849
              splitnorm =    0.280000
                 energy =   -0.959908
                kinetic =    2.409435
    potential(screened) =   -3.369343
       potential(ionic) =   -9.427975

SPLIT: Orbitals with angular momentum L= 1

SPLIT: Basis orbitals for state 2p

SPLIT: PAO cut-off radius determined from an
SPLIT: energy shift=  0.002000 Ry

   izeta = 1
                 lambda =    1.000000
                     rc =    5.924108
                 energy =   -0.519262
                kinetic =    3.672940
    potential(screened) =   -4.192202
       potential(ionic) =   -9.518354

   izeta = 2
                 rmatch =    2.531849
              splitnorm =    0.280000
                 energy =   -0.104258
                kinetic =    6.807538
    potential(screened) =   -6.911796
       potential(ionic) =  -13.149920

POLgen: Perturbative polarization orbital with L=  2

POLgen: Polarization orbital for state 2p

   izeta = 1
                     rc =    5.924108
                 energy =    1.427508
                kinetic =    2.872379
    potential(screened) =   -1.444871
       potential(ionic) =   -5.563644
atom: Total number of Sankey-type orbitals: 13

atm_pop: Valence configuration (for local Pseudopot. screening):
 2s( 2.00)                                                            
 2p( 3.00)                                                            
Vna: chval, zval:    5.00000   5.00000

Vna:  Cut-off radius for the neutral-atom potential:   5.924108

atom: _________________________________________________________________________

<basis_specs>
===============================================================================
Si                   Z=  14    Mass=  28.090        Charge= 0.17977+309
Lmxo=1 Lmxkb= 3    BasisType=split      Semic=F
L=0  Nsemic=0  Cnfigmx=3
          i=1  nzeta=2  polorb=0  (3s)
            splnorm:   0.28000    
               vcte:    0.0000    
               rinn:    0.0000    
               qcoe:    0.0000    
               qyuk:    0.0000    
               qwid:   0.10000E-01
                rcs:    0.0000      0.0000    
            lambdas:    1.0000      1.0000    
L=1  Nsemic=0  Cnfigmx=3
          i=1  nzeta=2  polorb=1  (3p)
            splnorm:   0.28000    
               vcte:    0.0000    
               rinn:    0.0000    
               qcoe:    0.0000    
               qyuk:    0.0000    
               qwid:   0.10000E-01
                rcs:    0.0000      0.0000    
            lambdas:    1.0000      1.0000    
-------------------------------------------------------------------------------
L=0  Nkbl=1  erefs: 0.17977+309
L=1  Nkbl=1  erefs: 0.17977+309
L=2  Nkbl=1  erefs: 0.17977+309
L=3  Nkbl=1  erefs: 0.17977+309
===============================================================================
</basis_specs>

atom: Called for Si                    (Z =  14)

read_vps: Pseudopotential generation method:
read_vps: ATM4.2.7  Troullier-Martins                       
Valence charge for ps generation:    4.00000

xc_check: Exchange-correlation functional:
xc_check: GGA Perdew, Burke & Ernzerhof 1996
V l=0 = -2*Zval/r beyond r=  2.7826
V l=1 = -2*Zval/r beyond r=  2.7826
V l=2 = -2*Zval/r beyond r=  2.9253
V l=3 = -2*Zval/r beyond r=  2.7826
All V_l potentials equal beyond r=  2.8530
This should be close to max(r_c) in ps generation
All pots = -2*Zval/r beyond r=  2.9253

VLOCAL1: 99.0% of the norm of Vloc inside      5.333 Ry
VLOCAL1: 99.9% of the norm of Vloc inside     12.154 Ry
atom: Maximum radius for 4*pi*r*r*local-pseudopot. charge    3.39869
atom: Maximum radius for r*vlocal+2*Zval:    2.96205
GHOST: No ghost state for L =  0
GHOST: No ghost state for L =  1
GHOST: No ghost state for L =  2
GHOST: No ghost state for L =  3

KBgen: Kleinman-Bylander projectors: 
   l= 0   rc=  3.075247   el= -0.794092   Ekb=  5.879390   kbcos=  0.167461
   l= 1   rc=  3.153101   el= -0.300068   Ekb=  2.642817   kbcos=  0.058301
   l= 2   rc=  3.273594   el=  0.001958   Ekb= -1.185135   kbcos= -0.104411
   l= 3   rc=  3.232927   el=  0.003046   Ekb= -0.497174   kbcos= -0.015889

KBgen: Total number of Kleinman-Bylander projectors:   16
atom: -------------------------------------------------------------------------

atom: SANKEY-TYPE ORBITALS:
atom: Selected multiple-zeta basis: split     

SPLIT: Orbitals with angular momentum L= 0

SPLIT: Basis orbitals for state 3s

SPLIT: PAO cut-off radius determined from an
SPLIT: energy shift=  0.002000 Ry

   izeta = 1
                 lambda =    1.000000
                     rc =    6.429618
                 energy =   -0.792283
                kinetic =    0.525293
    potential(screened) =   -1.317576
       potential(ionic) =   -3.744923

   izeta = 2
                 rmatch =    3.998416
              splitnorm =    0.280000
                 energy =   -0.583081
                kinetic =    1.069570
    potential(screened) =   -1.652651
       potential(ionic) =   -4.235185

SPLIT: Orbitals with angular momentum L= 1

SPLIT: Basis orbitals for state 3p

SPLIT: PAO cut-off radius determined from an
SPLIT: energy shift=  0.002000 Ry

   izeta = 1
                 lambda =    1.000000
                     rc =    8.464845
                 energy =   -0.298236
                kinetic =    0.785360
    potential(screened) =   -1.083596
       potential(ionic) =   -3.273779

   izeta = 2
                 rmatch =    4.587816
              splitnorm =    0.280000
                 energy =   -0.131871
                kinetic =    1.403687
    potential(screened) =   -1.535557
       potential(ionic) =   -4.015310

POLgen: Perturbative polarization orbital with L=  2

POLgen: Polarization orbital for state 3p

   izeta = 1
                     rc =    8.464845
                 energy =    0.321949
                kinetic =    1.055677
    potential(screened) =   -0.733728
       potential(ionic) =   -2.672950
atom: Total number of Sankey-type orbitals: 13

atm_pop: Valence configuration (for local Pseudopot. screening):
 3s( 2.00)                                                            
 3p( 2.00)                                                            
Vna: chval, zval:    4.00000   4.00000

Vna:  Cut-off radius for the neutral-atom potential:   8.464845

atom: _________________________________________________________________________

<basis_specs>
===============================================================================
H                    Z=   1    Mass=  1.0100        Charge= 0.17977+309
Lmxo=0 Lmxkb= 2    BasisType=split      Semic=F
L=0  Nsemic=0  Cnfigmx=1
          i=1  nzeta=2  polorb=1  (1s)
            splnorm:   0.62000    
               vcte:    0.0000    
               rinn:    0.0000    
               qcoe:    0.0000    
               qyuk:    0.0000    
               qwid:   0.10000E-01
                rcs:    0.0000      0.0000    
            lambdas:    1.0000      1.0000    
-------------------------------------------------------------------------------
L=0  Nkbl=1  erefs: 0.17977+309
L=1  Nkbl=1  erefs: 0.17977+309
L=2  Nkbl=1  erefs: 0.17977+309
===============================================================================
</basis_specs>

atom: Called for H                     (Z =   1)

read_vps: Pseudopotential generation method:
read_vps: ATM4.2.7  Troullier-Martins                       
Valence charge for ps generation:    1.00000

xc_check: Exchange-correlation functional:
xc_check: GGA Perdew, Burke & Ernzerhof 1996
V l=0 = -2*Zval/r beyond r=  0.0098
V l=1 = -2*Zval/r beyond r=  0.5817
V l=2 = -2*Zval/r beyond r=  1.9372
All V_l potentials equal beyond r=  1.9372
This should be close to max(r_c) in ps generation
All pots = -2*Zval/r beyond r=  1.9372

VLOCAL1: 99.0% of the norm of Vloc inside     11.567 Ry
VLOCAL1: 99.9% of the norm of Vloc inside     26.362 Ry
atom: Maximum radius for 4*pi*r*r*local-pseudopot. charge    2.25106
atom: Maximum radius for r*vlocal+2*Zval:    1.91306
GHOST: No ghost state for L =  0
GHOST: No ghost state for L =  1
GHOST: No ghost state for L =  2

KBgen: Kleinman-Bylander projectors: 
   l= 0   rc=  2.036604   el= -0.477180   Ekb= -6.081590   kbcos= -0.277285
   l= 1   rc=  2.195416   el=  0.001076   Ekb= -0.926943   kbcos= -0.034643
   l= 2   rc=  2.251056   el=  0.002010   Ekb= -0.130941   kbcos= -0.009788

KBgen: Total number of Kleinman-Bylander projectors:    9
atom: -------------------------------------------------------------------------

atom: SANKEY-TYPE ORBITALS:
atom: Selected multiple-zeta basis: split     

SPLIT: Orbitals with angular momentum L= 0

SPLIT: Basis orbitals for state 1s

SPLIT: PAO cut-off radius determined from an
SPLIT: energy shift=  0.002000 Ry

   izeta = 1
                 lambda =    1.000000
                     rc =    6.518340
                 energy =   -0.475305
                kinetic =    0.912139
    potential(screened) =   -1.387444
       potential(ionic) =   -1.907295

   izeta = 2
                 rmatch =    2.141150
              splitnorm =    0.620000
                 energy =    0.566467
                kinetic =    3.772856
    potential(screened) =   -3.206389
       potential(ionic) =   -3.759093

POLgen: Perturbative polarization orbital with L=  1

POLgen: Polarization orbital for state 1s

   izeta = 1
                     rc =    6.518340
                 energy =    0.533861
                kinetic =    1.121086
    potential(screened) =   -0.587225
       potential(ionic) =   -1.053027
atom: Total number of Sankey-type orbitals:  5

atm_pop: Valence configuration (for local Pseudopot. screening):
 1s( 1.00)                                                            
Vna: chval, zval:    1.00000   1.00000

Vna:  Cut-off radius for the neutral-atom potential:   6.518340

atom: _________________________________________________________________________

prinput: Basis input ----------------------------------------------------------

PAO.BasisType split     

%block ChemicalSpeciesLabel
    1    8 O                       # Species index, atomic number, species label
    2    7 N                       # Species index, atomic number, species label
    3   14 Si                      # Species index, atomic number, species label
    4    1 H                       # Species index, atomic number, species label
%endblock ChemicalSpeciesLabel

%block PAO.Basis                 # Define Basis set
O                     2                    # Species label, number of l-shells
 n=2   0   2                         # n, l, Nzeta 
   4.244      2.188   
   1.000      1.000   
 n=2   1   2 P   1                   # n, l, Nzeta, Polarization, NzetaPol
   5.315      2.161   
   1.000      1.000   
N                     2                    # Species label, number of l-shells
 n=2   0   2                         # n, l, Nzeta 
   4.730      2.532   
   1.000      1.000   
 n=2   1   2 P   1                   # n, l, Nzeta, Polarization, NzetaPol
   5.924      2.532   
   1.000      1.000   
Si                    2                    # Species label, number of l-shells
 n=3   0   2                         # n, l, Nzeta 
   6.430      3.998   
   1.000      1.000   
 n=3   1   2 P   1                   # n, l, Nzeta, Polarization, NzetaPol
   8.465      4.588   
   1.000      1.000   
H                     1                    # Species label, number of l-shells
 n=1   0   2 P   1                   # n, l, Nzeta, Polarization, NzetaPol
   6.518      2.141   
   1.000      1.000   
%endblock PAO.Basis

prinput: ----------------------------------------------------------------------

Dumping basis to NetCDF file O.ion.nc
Dumping basis to NetCDF file N.ion.nc
Dumping basis to NetCDF file Si.ion.nc
Dumping basis to NetCDF file H.ion.nc
coor:   Atomic-coordinates input format  =     Cartesian coordinates
coor:                                          (in Angstroms)

siesta: Atomic coordinates (Bohr) and species
siesta:      1.81163   7.18763   0.00000  1        1
siesta:     -5.74229   1.88609   0.00000  2        2
siesta:      3.90525   2.07693   0.00000  2        3
siesta:      1.94561  -3.46705   0.00000  2        4
siesta:     -3.98462  -3.55608   0.00000  2        5
siesta:      7.39339  -2.23157   0.00000  2        6
siesta:     -2.33502   1.97473   0.00000  3        7
siesta:     -0.94847  -1.94988   0.00000  3        8
siesta:      1.18951   4.21930   0.00000  3        9
siesta:      4.30868  -1.24399   0.00000  3       10
siesta:     -6.47196  -1.25161   0.00000  3       11
siesta:      5.60488   3.17902   0.00000  4       12
siesta:     -9.06356  -2.34086   0.00000  4       13
siesta:      7.74138  -4.18414   0.00000  4       14
siesta:      9.05578  -0.99994   0.00000  4       15
siesta:     -4.28375  -5.52253   0.00000  4       16
siesta:      8.83915   9.37928   0.00000  3       17
siesta:     12.47778  11.63113   0.00000  3       18
siesta:     11.59942   4.21172   0.00000  3       19
siesta:     15.51339   8.83597   0.00000  3       20
siesta:      9.03244   6.14907   0.00000  2       21
siesta:      5.85456  10.64583   0.00000  2       22
siesta:     14.72327   5.56318   0.00000  2       23
siesta:     13.06074  14.39894   0.00000  4       24
siesta:     18.33224   9.21388   0.00000  4       25
siesta:      5.50566  12.60146   0.00000  4       26
siesta:      4.16875   9.37728   0.00000  4       27
siesta:     11.58028   1.19150   0.00000  1       28
siesta:     16.19083   4.19912   0.00000  4       29

siesta: Automatic unit cell vectors (Ang):
siesta:   23.535535    0.000000    0.000000
siesta:    0.000000   19.184765    0.000000
siesta:    0.000000    0.000000    9.854683

siesta: System type = molecule  

initatomlists: Number of atoms, orbitals, and projectors:     29   297   394

siesta: ******************** Simulation parameters ****************************
siesta:
siesta: The following are some of the parameters of the simulation.
siesta: A complete list of the parameters used, including default values,
siesta: can be found in file out.fdf
siesta:
redata: Spin configuration                          = spin-orbit
redata: Number of spin components                   = 8
redata: Time-Reversal Symmetry                      = F
redata: Spin spiral                                 = F
############################################################
This spin-orbit implementation uses a local approximation.
From 4.2 and onwards the full non-local approximation is implemented
You are strongly advised to use >=4.2 versions!
############################################################
redata: Long output                                 =   F
redata: Number of Atomic Species                    =        4
redata: Charge density info will appear in .RHO file
redata: Write Mulliken Pop.                         = Atomic and Orbital charges
redata: Matel table size (NRTAB)                    =     1024
redata: Mesh Cutoff                                 =   340.0000 Ry
redata: Net charge of the system                    =     0.0000 |e|
redata: Min. number of SCF Iter                     =        1
redata: Max. number of SCF Iter                     =      200
redata: SCF mix quantity                            = Hamiltonian
redata: Mix DM or H after convergence               =   F
redata: Recompute H after scf cycle                 =   F
redata: Mix DM in first SCF step                    =   T
redata: Write Pulay info on disk                    =   F
redata: New DM Occupancy tolerance                  = 0.000000000001
redata: No kicks to SCF
redata: DM Mixing Weight for Kicks                  =     0.5000
redata: Require Harris convergence for SCF          =   F
redata: Harris energy tolerance for SCF             =     0.000100 eV
redata: Require DM convergence for SCF              =   T
redata: DM tolerance for SCF                        =     0.000008
redata: Require EDM convergence for SCF             =   F
redata: EDM tolerance for SCF                       =     0.001000 eV
redata: Require H convergence for SCF               =   T
redata: Hamiltonian tolerance for SCF               =     0.000001 eV
redata: Require (free) Energy convergence for SCF   =   F
redata: (free) Energy tolerance for SCF             =     0.000100 eV
redata: Using Saved Data (generic)                  =   F
redata: Use continuation files for DM               =   F
redata: Neglect nonoverlap interactions             =   F
redata: Method of Calculation                       = Diagonalization
redata: Electronic Temperature                      =   299.9978 K
redata: Fix the spin of the system                  =   F
redata: Dynamics option                             = Single-point calculation
mix.SCF: Pulay mixing                            = Pulay
mix.SCF:    Variant                              = stable
mix.SCF:    History steps                        = 6
mix.SCF:    Linear mixing weight                 =     0.250000
mix.SCF:    Mixing weight                        =     0.250000
mix.SCF:    SVD condition                        = 0.1000E-07
mix.SCF:    Restart steps                        = 24
mix.SCF:    Restart save steps                   = 3
mix.SCF: Spin-component mixing                   all
redata: Save all siesta data in one NC              =   F
redata: ***********************************************************************

%block SCF.Mixers
  Pulay
%endblock SCF.Mixers

%block SCF.Mixer.Pulay
  # Mixing method
  method pulay
  variant stable

  # Mixing options
  weight 0.2500
  weight.linear 0.2500
  history 6
  restart 24
  restart.save 3
%endblock SCF.Mixer.Pulay

DM_history_depth set to one: no extrapolation allowed by default for geometry relaxation
Size of DM history Fstack: 1
Total number of electrons:    98.000000
Total ionic charge:    98.000000

* ProcessorY, Blocksize:    2  24


* Orbital distribution balance (max,min):    81    72


Time-reversal symmetry not used.

siesta: k-grid: Number of k-points =     1
siesta: k-grid: Cutoff (effective) =     4.927 Ang
siesta: k-grid: Supercell and displacements
siesta: k-grid:    1   0   0      0.000
siesta: k-grid:    0   1   0      0.000
siesta: k-grid:    0   0   1      0.000

diag: Algorithm                                     = ELPA-1stage
diag: Parallel over k                               =   F
diag: Use parallel 2D distribution                  =   T
diag: Parallel block-size                           = 24
diag: Parallel distribution                         =     2 x     2
diag: Used triangular part                          = Lower
diag: Absolute tolerance                            =  0.100E-15
diag: Orthogonalization factor                      =  0.100E-05
diag: Memory factor                                 =  1.0000


ts: **************************************************************
ts: Save H and S matrices                           =    F
ts: Save DM and EDM matrices                        =    F
ts: Only save the overlap matrix S                  =    F
ts: **************************************************************

************************ Begin: TS CHECKS AND WARNINGS ************************
************************ End: TS CHECKS AND WARNINGS **************************


                     ====================================
                        Single-point calculation
                     ====================================

outcoor: Atomic coordinates (Ang):                          
    0.95867151    3.80352930    0.00000000   1       1  O
   -3.03868821    0.99807333    0.00000000   2       2  N
    2.06656775    1.09906577    0.00000000   2       3  N
    1.02956986   -1.83468085    0.00000000   2       4  N
   -2.10856766   -1.88179824    0.00000000   2       5  N
    3.91241107   -1.18089443    0.00000000   2       6  N
   -1.23563679    1.04498300    0.00000000   3       7  Si
   -0.50190924   -1.03183228    0.00000000   3       8  Si
    0.62946328    2.23275584    0.00000000   3       9  Si
    2.28005437   -0.65829354    0.00000000   3      10  Si
   -3.42481299   -0.66232416    0.00000000   3      11  Si
    2.96597416    1.68226399    0.00000000   4      12  H
   -4.79622939   -1.23872848    0.00000000   4      13  H
    4.09655941   -2.21414876    0.00000000   4      14  H
    4.79210868   -0.52914725    0.00000000   4      15  H
   -2.26686130   -2.92239373    0.00000000   4      16  H
    4.67747543    4.96329964    0.00000000   3      17  Si
    6.60295318    6.15492897    0.00000000   3      18  Si
    6.13814679    2.22874527    0.00000000   3      19  Si
    8.20932671    4.67579186    0.00000000   3      20  Si
    4.77975997    3.25394495    0.00000000   2      21  N
    3.09809734    5.63352913    0.00000000   2      22  N
    7.79121669    2.94390895    0.00000000   2      23  N
    6.91144400    7.61959033    0.00000000   4      24  H
    9.70099962    4.87577132    0.00000000   4      25  H
    2.91347090    6.66840286    0.00000000   4      26  H
    2.20600555    4.96224040    0.00000000   4      27  H
    6.12801619    0.63051675    0.00000000   1      28  O
    8.56781507    2.22207875    0.00000000   4      29  H

outcell: Unit cell vectors (Ang):
       23.535535    0.000000    0.000000
        0.000000   19.184765    0.000000
        0.000000    0.000000    9.854683

outcell: Cell vector modules (Ang)   :   23.535535   19.184765    9.854683
outcell: Cell angles (23,13,12) (deg):     90.0000     90.0000     90.0000
outcell: Cell volume (Ang**3)        :   4449.6231
<dSpData1D:S at geom step 0
  <sparsity:sparsity for geom step 0
    nrows_g=297 nrows=81 sparsity=.2269 nnzs=20019, refcount: 8>
  <dData1D:(new from dSpData1D) n=20019, refcount: 1>
refcount: 1>
new_DM -- step:     1
Initializing Density Matrix...
DM filled with atomic data:
<dSpData2D:DM initialized from atoms
  <sparsity:sparsity for geom step 0
    nrows_g=297 nrows=81 sparsity=.2269 nnzs=20019, refcount: 9>
  <dData2D:DM n=20019 m=8, refcount: 1>
refcount: 1>
     spin moment: S , {S} =   56.00000   0.00000   0.00000  56.00000
No. of atoms with KB's overlaping orbs in proc 0. Max # of overlaps:      29     194

Initializing spin-orbit part of the Hamiltonian
  Adding spin-orbit effects for O 
  Adding spin-orbit effects for N 
  Adding spin-orbit effects for Si
  Adding spin-orbit effects for H 


New grid distribution:   1
           1       1:  135    1:   54    1:   30
           2       1:  135    1:   54   31:   60
           3       1:  135   55:  108    1:   30
           4       1:  135   55:  108   31:   60

InitMesh: MESH =   270 x   216 x   120 =     6998400
InitMesh: (bp) =   135 x   108 x    60 =      874800
InitMesh: Mesh cutoff (required, used) =   340.000   350.345 Ry
ExtMesh (bp) on 0 =   239 x   158 x   142 =     5362204
New grid distribution:   2
           1      33:  135    1:   25    1:   60
           2       1:   32    1:   23    1:   60
           3      33:  135   26:  108    1:   60
           4       1:   32   24:  108    1:   60
New grid distribution:   3
           1      44:  135    1:   32    1:   60
           2       1:   43    1:   37    1:   60
           3      44:  135   33:  108    1:   60
           4       1:   43   38:  108    1:   60
Setting up quadratic distribution...
ExtMesh (bp) on 0 =   207 x   129 x   172 =     4592916
PhiOnMesh: Number of (b)points on node 0 =               154500
PhiOnMesh: nlist on node 0 =              2558241

stepf: Fermi-Dirac step function

siesta: Program's energy decomposition (eV):
siesta: Ebs     =      -613.348681
siesta: Eions   =      3585.165840
siesta: Ena     =       382.841911
siesta: Ekin    =      3366.652124
siesta: Enl     =     -3296.684848
siesta: Eso     =        -0.003464
siesta: Edftu   =         0.000000
siesta: DEna    =       154.044855
siesta: DUscf   =        78.099892
siesta: DUext   =         0.000000
siesta: Exc     =     -1204.346367
siesta: eta*DQ  =         0.000000
siesta: Emadel  =         0.000000
siesta: Emeta   =         0.000000
siesta: Emolmec =         0.000000
siesta: Ekinion =         0.000000
siesta: Eharris =     -4029.253330
siesta: Etot    =     -4104.561737
siesta: FreeEng =     -4104.563431

        iscf     Eharris(eV)        E_KS(eV)     FreeEng(eV)     dDmax    Ef(eV) dHmax(eV)
   scf:    1    -4029.253330    -4104.561737    -4104.563431  0.957870 -4.902226 20.238591
     spin moment: S , {S} =    2.01042   0.00000   0.00000   2.01042
timer: Routine,Calls,Time,% = IterSCF        1      12.828  15.51
   scf:    2    -4150.596986    -4138.692200    -4138.693980  0.457943 -4.204052 10.843533
     spin moment: S , {S} =    1.98930  -0.00000  -0.00000   1.98930
   scf:    3    -4111.906695    -4135.913124    -4135.929974  0.424000 -4.260818 11.407182
     spin moment: S , {S} =    2.00011  -0.00000  -0.00000   2.00011
   scf:    4    -4151.551989    -4146.716308    -4146.716309  0.309663 -3.879514  5.839731
     spin moment: S , {S} =    0.00009   0.00000   0.00000   0.00009
   scf:    5    -4147.854808    -4147.373754    -4147.373754  0.038045 -3.691020  4.148941
     spin moment: S , {S} =    0.00005   0.00000   0.00000   0.00005
   scf:    6    -4148.139524    -4147.760051    -4147.760051  0.025562 -3.589258  1.979297
     spin moment: S , {S} =    0.00003   0.00000  -0.00000   0.00003
   scf:    7    -4148.104573    -4147.931307    -4147.931307  0.021426 -3.713787  0.861190
     spin moment: S , {S} =    0.00001  -0.00000  -0.00000   0.00001
   scf:    8    -4148.046325    -4147.987361    -4147.987361  0.012058 -3.729871  0.458639
     spin moment: S , {S} =    0.00000  -0.00000  -0.00000   0.00000
   scf:    9    -4148.025685    -4148.005920    -4148.005920  0.006695 -3.776838  0.307297
     spin moment: S , {S} =    0.00000   0.00000  -0.00000   0.00000
   scf:   10    -4148.052393    -4148.025584    -4148.025584  0.016978 -3.798300  0.133995
     spin moment: S , {S} =    0.00000   0.00000  -0.00000  -0.00000
   scf:   11    -4148.028600    -4148.027020    -4148.027020  0.004705 -3.790585  0.051162
     spin moment: S , {S} =    0.00000   0.00000  -0.00000   0.00000
   scf:   12    -4148.027823    -4148.027418    -4148.027418  0.001965 -3.786502  0.031064
     spin moment: S , {S} =    0.00000   0.00000  -0.00000   0.00000
   scf:   13    -4148.027958    -4148.027673    -4148.027673  0.001889 -3.785321  0.023771
     spin moment: S , {S} =    0.00000   0.00000  -0.00000   0.00000
   scf:   14    -4148.028088    -4148.027862    -4148.027862  0.002022 -3.784090  0.017443
     spin moment: S , {S} =    0.00000   0.00000  -0.00000   0.00000
   scf:   15    -4148.028181    -4148.027998    -4148.027998  0.002294 -3.784191  0.010026
     spin moment: S , {S} =    0.00000   0.00000  -0.00000   0.00000
   scf:   16    -4148.028131    -4148.028049    -4148.028049  0.001838 -3.784208  0.004233
     spin moment: S , {S} =    0.00000   0.00000  -0.00000   0.00000
   scf:   17    -4148.028066    -4148.028056    -4148.028056  0.000644 -3.784416  0.002210
     spin moment: S , {S} =    0.00000   0.00000  -0.00000   0.00000
   scf:   18    -4148.028060    -4148.028058    -4148.028058  0.000277 -3.784529  0.001047
     spin moment: S , {S} =    0.00000   0.00000  -0.00000   0.00000
   scf:   19    -4148.028059    -4148.028058    -4148.028058  0.000103 -3.784525  0.000578
     spin moment: S , {S} =    0.00000   0.00000  -0.00000  -0.00000
   scf:   20    -4148.028058    -4148.028058    -4148.028058  0.000042 -3.784481  0.000383
     spin moment: S , {S} =    0.00000   0.00000  -0.00000  -0.00000
   scf:   21    -4148.028058    -4148.028058    -4148.028058  0.000056 -3.784435  0.000223
     spin moment: S , {S} =    0.00000   0.00000  -0.00000  -0.00000
   scf:   22    -4148.028058    -4148.028058    -4148.028058  0.000019 -3.784414  0.000080
     spin moment: S , {S} =    0.00000   0.00000  -0.00000  -0.00000
   scf:   23    -4148.028058    -4148.028058    -4148.028058  0.000005 -3.784412  0.000045
     spin moment: S , {S} =    0.00000   0.00000  -0.00000  -0.00000
   scf:   24    -4148.028058    -4148.028058    -4148.028058  0.000003 -3.784410  0.000023
     spin moment: S , {S} =    0.00000   0.00000  -0.00000  -0.00000
mix: Pulay -- resetting history
   scf:   25    -4148.028058    -4148.028058    -4148.028058  0.000002 -3.784407  0.000011
     spin moment: S , {S} =    0.00000   0.00000  -0.00000  -0.00000
   scf:   26    -4148.028058    -4148.028058    -4148.028058  0.000001 -3.784405  0.000006
     spin moment: S , {S} =    0.00000   0.00000  -0.00000   0.00000
   scf:   27    -4148.028058    -4148.028058    -4148.028058  0.000000 -3.784405  0.000003
     spin moment: S , {S} =    0.00000   0.00000  -0.00000   0.00000
   scf:   28    -4148.028058    -4148.028058    -4148.028058  0.000000 -3.784405  0.000002
     spin moment: S , {S} =    0.00000   0.00000  -0.00000   0.00000
   scf:   29    -4148.028058    -4148.028058    -4148.028058  0.000000 -3.784405  0.000001
     spin moment: S , {S} =    0.00000   0.00000  -0.00000   0.00000
   scf:   30    -4148.028058    -4148.028058    -4148.028058  0.000000 -3.784405  0.000000
     spin moment: S , {S} =    0.00000   0.00000  -0.00000   0.00000

SCF Convergence by DM+H criterion
max |DM_out - DM_in|         :     0.0000001293
max |H_out - H_in|      (eV) :     0.0000004728
SCF cycle converged after 30 iterations

Using DM_out to compute the final energy and forces
No. of atoms with KB's overlaping orbs in proc 0. Max # of overlaps:      29     194

siesta: E_KS(eV) =            -4148.0281

siesta: E_KS - E_eggbox =     -4148.0281
     spin moment: S , {S} =    0.00000   0.00000  -0.00000   0.00000

siesta: Atomic forces (eV/Ang):
     1    0.269425    2.922702   -0.000000
     2    0.006839    0.002992    0.000000
     3    0.135702   -0.026087   -0.000000
     4    0.116967   -0.002276   -0.000000
     5    0.005504   -0.017605    0.000000
     6    0.440680    0.264498    0.000000
     7    0.004368   -0.038959   -0.000000
     8   -0.060721    0.045912    0.000000
     9   -0.003988    0.203224   -0.000000
    10   -0.141850    0.080253   -0.000000
    11   -0.003513   -0.004414   -0.000000
    12    0.024657    0.180103    0.000000
    13   -0.081094   -0.196530    0.000000
    14    0.073557   -0.303055    0.000000
    15   -0.174570   -0.207320   -0.000000
    16   -0.040417   -0.330626    0.000000
    17    0.146490   -0.192971   -0.000000
    18   -0.034119    0.029458    0.000000
    19   -0.048243   -0.160929   -0.000000
    20   -0.010316   -0.065176   -0.000000
    21   -0.073643    0.135213    0.000000
    22   -0.576381   -0.339170    0.000000
    23    0.032413    0.067048    0.000000
    24   -0.085464    0.145572    0.000000
    25   -0.081990    0.051524   -0.000000
    26   -0.052908    0.024517   -0.000000
    27    0.238978    0.175449   -0.000000
    28   -2.296060   -2.099859    0.000000
    29   -0.095426    0.018695    0.000000
----------------------------------------
   Tot   -2.365125    0.362183    0.000000
----------------------------------------
   Max    2.922702
   Res    0.476300    sqrt( Sum f_i^2 / 3N )
----------------------------------------
   Max    2.922702    constrained

Stress tensor Voigt[x,y,z,yz,xz,xy] (kbar):        0.04       -0.55       -0.12       -0.00        0.00        0.42
(Free)E + p*V (eV/cell)    -4147.4450
Target enthalpy (eV/cell)    -4148.0281

mulliken: Atomic and Orbital Populations:

Species: O                   

Atom      Orb        Charge      Spin       Svec
----------------------------------------------------------------
    1  1 2s         1.73206   0.00000      0.000   0.000   0.000
    1  2 2s         0.06363   0.00000     -0.000  -0.000   0.000
    1  3 2py        1.37426   0.00000     -0.000  -0.000   0.000
    1  4 2pz        1.60515   0.00000      0.000  -0.000   0.000
    1  5 2px        1.64857   0.00000      0.000  -0.000   0.000
    1  6 2py        0.07548   0.00000      0.000  -0.000   0.000
    1  7 2pz       -0.01561   0.00000      0.000   0.000   0.000
    1  8 2px       -0.00090   0.00000     -0.000   0.000   0.000
    1  9 3Pdxy      0.00805   0.00000      0.000   0.000   0.000
    1 10 3Pdyz      0.00780   0.00000      0.000   0.000  -0.000
    1 11 3Pdz2      0.00173   0.00000     -0.000   0.000   0.000
    1 12 3Pdxz     -0.00002   0.00000     -0.000   0.000  -0.000
    1 13 3Pdx2-y2   0.00559   0.00000      0.000  -0.000  -0.000
    1     Total     6.50580   0.00000      0.000  -0.000   0.000

   28  1 2s         1.73994   0.00000     -0.000  -0.000   0.000
   28  2 2s         0.06201   0.00000      0.000   0.000  -0.000
   28  3 2py        1.37337   0.00000     -0.000   0.000   0.000
   28  4 2pz        1.59680   0.00000      0.000   0.000   0.000
   28  5 2px        1.66078   0.00000      0.000   0.000   0.000
   28  6 2py        0.07041   0.00000      0.000  -0.000  -0.000
   28  7 2pz       -0.01373   0.00000     -0.000  -0.000   0.000
   28  8 2px       -0.00049   0.00000     -0.000   0.000   0.000
   28  9 3Pdxy      0.00780   0.00000      0.000  -0.000  -0.000
   28 10 3Pdyz      0.00863   0.00000      0.000   0.000  -0.000
   28 11 3Pdz2      0.00132   0.00000      0.000   0.000   0.000
   28 12 3Pdxz     -0.00015   0.00000      0.000  -0.000   0.000
   28 13 3Pdx2-y2   0.00671   0.00000     -0.000   0.000  -0.000
   28     Total     6.51340   0.00000      0.000   0.000   0.000

----------------------------------------------------------------
Total              13.01920   0.00000      0.000   0.000   0.000


Species: N                   

Atom      Orb        Charge      Spin       Svec
----------------------------------------------------------------
    2  1 2s         1.55431   0.00000     -0.000  -0.000   0.000
    2  2 2s         0.08352   0.00000      0.000  -0.000   0.000
    2  3 2py        1.04160   0.00000     -0.000   0.000   0.000
    2  4 2pz        1.22473   0.00000     -0.000   0.000   0.000
    2  5 2px        0.98677   0.00000      0.000  -0.000   0.000
    2  6 2py        0.18855   0.00000      0.000   0.000  -0.000
    2  7 2pz        0.05628   0.00000      0.000  -0.000  -0.000
    2  8 2px        0.19561   0.00000     -0.000   0.000  -0.000
    2  9 3Pdxy      0.00857   0.00000     -0.000  -0.000   0.000
    2 10 3Pdyz      0.01122   0.00000     -0.000  -0.000  -0.000
    2 11 3Pdz2      0.00194   0.00000      0.000  -0.000  -0.000
    2 12 3Pdxz      0.00764   0.00000      0.000   0.000  -0.000
    2 13 3Pdx2-y2   0.00928   0.00000     -0.000  -0.000   0.000
    2     Total     5.37002   0.00000      0.000   0.000   0.000

    3  1 2s         1.38089   0.00000     -0.000   0.000   0.000
    3  2 2s         0.12493   0.00000      0.000  -0.000   0.000
    3  3 2py        0.93929   0.00000      0.000   0.000   0.000
    3  4 2pz        1.54124   0.00000      0.000   0.000   0.000
    3  5 2px        1.07385   0.00000      0.000  -0.000  -0.000
    3  6 2py        0.25457   0.00000     -0.000  -0.000  -0.000
    3  7 2pz        0.00546   0.00000     -0.000  -0.000   0.000
    3  8 2px        0.18764   0.00000     -0.000   0.000   0.000
    3  9 3Pdxy      0.00408   0.00000     -0.000  -0.000   0.000
    3 10 3Pdyz      0.00387   0.00000     -0.000  -0.000   0.000
    3 11 3Pdz2      0.00057   0.00000      0.000  -0.000  -0.000
    3 12 3Pdxz      0.00280   0.00000      0.000  -0.000   0.000
    3 13 3Pdx2-y2   0.00246   0.00000     -0.000   0.000  -0.000
    3     Total     5.52165   0.00000     -0.000   0.000   0.000

    4  1 2s         1.46231   0.00000     -0.000   0.000  -0.000
    4  2 2s         0.11861   0.00000      0.000  -0.000   0.000
    4  3 2py        1.13074   0.00000     -0.000  -0.000  -0.000
    4  4 2pz        1.29359   0.00000     -0.000  -0.000   0.000
    4  5 2px        0.82491   0.00000      0.000   0.000   0.000
    4  6 2py        0.15029   0.00000      0.000   0.000  -0.000
    4  7 2pz        0.05361   0.00000     -0.000   0.000   0.000
    4  8 2px        0.29146   0.00000     -0.000  -0.000  -0.000
    4  9 3Pdxy      0.00877   0.00000     -0.000   0.000  -0.000
    4 10 3Pdyz      0.01044   0.00000      0.000  -0.000  -0.000
    4 11 3Pdz2      0.00129   0.00000      0.000   0.000  -0.000
    4 12 3Pdxz      0.00478   0.00000      0.000   0.000   0.000
    4 13 3Pdx2-y2   0.00797   0.00000     -0.000  -0.000   0.000
    4     Total     5.35878   0.00000     -0.000   0.000   0.000

    5  1 2s         1.37180   0.00000      0.000   0.000   0.000
    5  2 2s         0.12977   0.00000     -0.000  -0.000   0.000
    5  3 2py        1.02716   0.00000     -0.000   0.000   0.000
    5  4 2pz        1.49832   0.00000     -0.000  -0.000   0.000
    5  5 2px        1.05684   0.00000     -0.000   0.000   0.000
    5  6 2py        0.20592   0.00000      0.000  -0.000   0.000
    5  7 2pz        0.01379   0.00000      0.000   0.000   0.000
    5  8 2px        0.20510   0.00000      0.000   0.000  -0.000
    5  9 3Pdxy      0.00389   0.00000     -0.000   0.000  -0.000
    5 10 3Pdyz      0.00242   0.00000      0.000  -0.000  -0.000
    5 11 3Pdz2      0.00141   0.00000      0.000   0.000  -0.000
    5 12 3Pdxz      0.00676   0.00000     -0.000  -0.000  -0.000
    5 13 3Pdx2-y2   0.00551   0.00000      0.000   0.000  -0.000
    5     Total     5.52869   0.00000     -0.000   0.000   0.000

    6  1 2s         1.26247   0.00000     -0.000  -0.000   0.000
    6  2 2s         0.18266   0.00000      0.000   0.000   0.000
    6  3 2py        1.07097   0.00000      0.000   0.000   0.000
    6  4 2pz        1.52603   0.00000     -0.000  -0.000   0.000
    6  5 2px        0.96953   0.00000     -0.000  -0.000  -0.000
    6  6 2py        0.19443   0.00000      0.000  -0.000   0.000
    6  7 2pz        0.03387   0.00000      0.000   0.000   0.000
    6  8 2px        0.25803   0.00000      0.000   0.000   0.000
    6  9 3Pdxy      0.00228   0.00000     -0.000   0.000  -0.000
    6 10 3Pdyz      0.00001   0.00000      0.000  -0.000   0.000
    6 11 3Pdz2      0.00158   0.00000     -0.000  -0.000   0.000
    6 12 3Pdxz      0.00385   0.00000     -0.000   0.000  -0.000
    6 13 3Pdx2-y2   0.00424   0.00000      0.000  -0.000  -0.000
    6     Total     5.50996   0.00000     -0.000  -0.000   0.000

   21  1 2s         1.41176   0.00000      0.000   0.000   0.000
   21  2 2s         0.13036   0.00000     -0.000   0.000  -0.000
   21  3 2py        0.88949   0.00000      0.000   0.000   0.000
   21  4 2pz        1.31866   0.00000      0.000   0.000   0.000
   21  5 2px        1.15402   0.00000      0.000   0.000   0.000
   21  6 2py        0.27289   0.00000     -0.000   0.000   0.000
   21  7 2pz        0.04409   0.00000     -0.000  -0.000  -0.000
   21  8 2px        0.16376   0.00000      0.000  -0.000   0.000
   21  9 3Pdxy      0.00605   0.00000      0.000   0.000  -0.000
   21 10 3Pdyz      0.00460   0.00000      0.000  -0.000  -0.000
   21 11 3Pdz2     -0.00014   0.00000     -0.000   0.000   0.000
   21 12 3Pdxz      0.00576   0.00000      0.000   0.000  -0.000
   21 13 3Pdx2-y2   0.00599   0.00000      0.000   0.000   0.000
   21     Total     5.40728   0.00000      0.000   0.000   0.000

   22  1 2s         1.28409   0.00000      0.000  -0.000   0.000
   22  2 2s         0.17394   0.00000     -0.000   0.000  -0.000
   22  3 2py        1.06751   0.00000      0.000   0.000   0.000
   22  4 2pz        1.49017   0.00000      0.000  -0.000   0.000
   22  5 2px        1.00587   0.00000     -0.000   0.000   0.000
   22  6 2py        0.19726   0.00000      0.000  -0.000   0.000
   22  7 2pz        0.03336   0.00000     -0.000  -0.000   0.000
   22  8 2px        0.23644   0.00000      0.000  -0.000   0.000
   22  9 3Pdxy      0.00328   0.00000      0.000  -0.000  -0.000
   22 10 3Pdyz      0.00009   0.00000     -0.000  -0.000  -0.000
   22 11 3Pdz2      0.00224   0.00000     -0.000   0.000  -0.000
   22 12 3Pdxz      0.00402   0.00000     -0.000   0.000  -0.000
   22 13 3Pdx2-y2   0.00458   0.00000      0.000   0.000  -0.000
   22     Total     5.50284   0.00000      0.000  -0.000   0.000

   23  1 2s         1.37063   0.00000      0.000  -0.000   0.000
   23  2 2s         0.13042   0.00000     -0.000   0.000  -0.000
   23  3 2py        1.00892   0.00000     -0.000  -0.000  -0.000
   23  4 2pz        1.53332   0.00000     -0.000  -0.000   0.000
   23  5 2px        1.05033   0.00000     -0.000  -0.000   0.000
   23  6 2py        0.21679   0.00000     -0.000   0.000   0.000
   23  7 2pz        0.00451   0.00000      0.000  -0.000   0.000
   23  8 2px        0.20426   0.00000      0.000   0.000  -0.000
   23  9 3Pdxy      0.00517   0.00000      0.000  -0.000  -0.000
   23 10 3Pdyz      0.00458   0.00000     -0.000  -0.000   0.000
   23 11 3Pdz2      0.00064   0.00000     -0.000   0.000  -0.000
   23 12 3Pdxz      0.00244   0.00000     -0.000   0.000   0.000
   23 13 3Pdx2-y2   0.00147   0.00000     -0.000  -0.000  -0.000
   23     Total     5.53349   0.00000     -0.000  -0.000   0.000

----------------------------------------------------------------
Total              56.75192   0.00000      0.000  -0.000   0.000


Species: Si                  

Atom      Orb        Charge      Spin       Svec
----------------------------------------------------------------
    7  1 3s         0.64114   0.00000     -0.000   0.000  -0.000
    7  2 3s         0.37644   0.00000      0.000  -0.000  -0.000
    7  3 3py        0.46880   0.00000      0.000   0.000  -0.000
    7  4 3pz        0.68366   0.00000     -0.000  -0.000  -0.000
    7  5 3px        0.10740   0.00000     -0.000   0.000  -0.000
    7  6 3py        0.28131   0.00000     -0.000  -0.000  -0.000
    7  7 3pz        0.26652   0.00000      0.000   0.000  -0.000
    7  8 3px        0.45291   0.00000     -0.000  -0.000  -0.000
    7  9 3Pdxy      0.25215   0.00000      0.000  -0.000  -0.000
    7 10 3Pdyz      0.02884   0.00000      0.000  -0.000   0.000
    7 11 3Pdz2      0.01060   0.00000     -0.000   0.000   0.000
    7 12 3Pdxz      0.15242   0.00000     -0.000  -0.000   0.000
    7 13 3Pdx2-y2   0.11142   0.00000      0.000   0.000   0.000
    7     Total     3.83361   0.00000      0.000  -0.000  -0.000

    8  1 3s         0.65399   0.00000     -0.000   0.000   0.000
    8  2 3s         0.36962   0.00000     -0.000   0.000   0.000
    8  3 3py        0.39559   0.00000     -0.000  -0.000  -0.000
    8  4 3pz        0.50619   0.00000     -0.000   0.000   0.000
    8  5 3px       -0.02077   0.00000      0.000   0.000   0.000
    8  6 3py        0.30554   0.00000      0.000  -0.000  -0.000
    8  7 3pz        0.20596   0.00000      0.000  -0.000   0.000
    8  8 3px        0.51225   0.00000     -0.000  -0.000  -0.000
    8  9 3Pdxy      0.24860   0.00000      0.000   0.000   0.000
    8 10 3Pdyz      0.11215   0.00000      0.000   0.000   0.000
    8 11 3Pdz2      0.01412   0.00000      0.000  -0.000   0.000
    8 12 3Pdxz      0.15670   0.00000      0.000   0.000   0.000
    8 13 3Pdx2-y2   0.20164   0.00000     -0.000   0.000   0.000
    8     Total     3.66157   0.00000      0.000   0.000   0.000

    9  1 3s         0.58010   0.00000     -0.000  -0.000   0.000
    9  2 3s         0.37779   0.00000      0.000   0.000   0.000
    9  3 3py        0.09953   0.00000     -0.000   0.000  -0.000
    9  4 3pz        0.46898   0.00000     -0.000  -0.000   0.000
    9  5 3px        0.35091   0.00000     -0.000  -0.000   0.000
    9  6 3py        0.41927   0.00000      0.000  -0.000   0.000
    9  7 3pz        0.19432   0.00000      0.000  -0.000   0.000
    9  8 3px        0.29029   0.00000      0.000   0.000   0.000
    9  9 3Pdxy      0.29690   0.00000      0.000   0.000   0.000
    9 10 3Pdyz      0.19261   0.00000      0.000  -0.000   0.000
    9 11 3Pdz2      0.01176   0.00000      0.000  -0.000   0.000
    9 12 3Pdxz      0.10583   0.00000      0.000   0.000   0.000
    9 13 3Pdx2-y2   0.17679   0.00000     -0.000   0.000  -0.000
    9     Total     3.56508   0.00000     -0.000   0.000   0.000

   10  1 3s         0.48214   0.00000     -0.000  -0.000  -0.000
   10  2 3s         0.37715   0.00000      0.000   0.000  -0.000
   10  3 3py        0.24547   0.00000     -0.000  -0.000  -0.000
   10  4 3pz        0.41548   0.00000     -0.000  -0.000  -0.000
   10  5 3px        0.09272   0.00000     -0.000   0.000  -0.000
   10  6 3py        0.31882   0.00000      0.000  -0.000  -0.000
   10  7 3pz        0.21923   0.00000      0.000  -0.000  -0.000
   10  8 3px        0.44537   0.00000     -0.000  -0.000   0.000
   10  9 3Pdxy      0.17462   0.00000     -0.000  -0.000   0.000
   10 10 3Pdyz      0.13149   0.00000      0.000  -0.000  -0.000
   10 11 3Pdz2      0.00924   0.00000      0.000  -0.000   0.000
   10 12 3Pdxz      0.18351   0.00000      0.000  -0.000  -0.000
   10 13 3Pdx2-y2   0.30715   0.00000      0.000  -0.000  -0.000
   10     Total     3.40241   0.00000     -0.000  -0.000  -0.000

   11  1 3s         0.55097   0.00000      0.000  -0.000  -0.000
   11  2 3s         0.38654   0.00000     -0.000   0.000  -0.000
   11  3 3py        0.31002   0.00000      0.000  -0.000  -0.000
   11  4 3pz        0.53138   0.00000      0.000  -0.000  -0.000
   11  5 3px        0.13145   0.00000     -0.000   0.000  -0.000
   11  6 3py        0.29935   0.00000     -0.000   0.000   0.000
   11  7 3pz        0.17953   0.00000     -0.000  -0.000  -0.000
   11  8 3px        0.44246   0.00000      0.000  -0.000   0.000
   11  9 3Pdxy      0.23580   0.00000      0.000   0.000  -0.000
   11 10 3Pdyz      0.12939   0.00000     -0.000  -0.000  -0.000
   11 11 3Pdz2      0.00996   0.00000      0.000   0.000   0.000
   11 12 3Pdxz      0.05438   0.00000      0.000  -0.000  -0.000
   11 13 3Pdx2-y2   0.19798   0.00000      0.000   0.000  -0.000
   11     Total     3.45921   0.00000      0.000  -0.000  -0.000

   17  1 3s         0.64330   0.00000      0.000  -0.000   0.000
   17  2 3s         0.35667   0.00000     -0.000   0.000  -0.000
   17  3 3py        0.23929   0.00000      0.000  -0.000  -0.000
   17  4 3pz        0.42297   0.00000     -0.000   0.000  -0.000
   17  5 3px        0.22673   0.00000      0.000  -0.000  -0.000
   17  6 3py        0.36236   0.00000     -0.000   0.000  -0.000
   17  7 3pz        0.21482   0.00000      0.000   0.000  -0.000
   17  8 3px        0.38818   0.00000     -0.000  -0.000   0.000
   17  9 3Pdxy      0.28265   0.00000     -0.000  -0.000  -0.000
   17 10 3Pdyz      0.13232   0.00000      0.000  -0.000  -0.000
   17 11 3Pdz2      0.00796   0.00000      0.000  -0.000  -0.000
   17 12 3Pdxz      0.15085   0.00000     -0.000  -0.000  -0.000
   17 13 3Pdx2-y2   0.17547   0.00000     -0.000   0.000  -0.000
   17     Total     3.60357   0.00000      0.000  -0.000  -0.000

   18  1 3s         0.75314   0.00000     -0.000  -0.000  -0.000
   18  2 3s         0.33844   0.00000      0.000   0.000  -0.000
   18  3 3py        0.08732   0.00000      0.000   0.000  -0.000
   18  4 3pz        0.80828   0.00000     -0.000   0.000  -0.000
   18  5 3px        0.53397   0.00000     -0.000   0.000  -0.000
   18  6 3py        0.51374   0.00000     -0.000   0.000  -0.000
   18  7 3pz        0.19741   0.00000      0.000  -0.000  -0.000
   18  8 3px        0.26359   0.00000      0.000  -0.000  -0.000
   18  9 3Pdxy      0.10696   0.00000      0.000  -0.000   0.000
   18 10 3Pdyz      0.02638   0.00000     -0.000  -0.000   0.000
   18 11 3Pdz2      0.00902   0.00000      0.000   0.000   0.000
   18 12 3Pdxz      0.03193   0.00000      0.000   0.000   0.000
   18 13 3Pdx2-y2   0.10532   0.00000     -0.000  -0.000  -0.000
   18     Total     3.77549   0.00000     -0.000   0.000  -0.000

   19  1 3s         0.45246   0.00000     -0.000  -0.000  -0.000
   19  2 3s         0.36587   0.00000      0.000   0.000  -0.000
   19  3 3py        0.08745   0.00000     -0.000  -0.000  -0.000
   19  4 3pz        0.40752   0.00000      0.000  -0.000  -0.000
   19  5 3px        0.28581   0.00000      0.000  -0.000  -0.000
   19  6 3py        0.45247   0.00000      0.000   0.000  -0.000
   19  7 3pz        0.19202   0.00000     -0.000   0.000  -0.000
   19  8 3px        0.28505   0.00000     -0.000   0.000  -0.000
   19  9 3Pdxy      0.32506   0.00000     -0.000   0.000   0.000
   19 10 3Pdyz      0.18586   0.00000     -0.000  -0.000  -0.000
   19 11 3Pdz2      0.01220   0.00000     -0.000  -0.000   0.000
   19 12 3Pdxz      0.10000   0.00000     -0.000   0.000  -0.000
   19 13 3Pdx2-y2   0.24782   0.00000     -0.000   0.000  -0.000
   19     Total     3.39963   0.00000     -0.000  -0.000  -0.000

   20  1 3s         0.67882   0.00000     -0.000  -0.000   0.000
   20  2 3s         0.37671   0.00000      0.000  -0.000   0.000
   20  3 3py        0.33659   0.00000      0.000   0.000   0.000
   20  4 3pz        0.60607   0.00000      0.000   0.000   0.000
   20  5 3px        0.13644   0.00000      0.000   0.000   0.000
   20  6 3py        0.28366   0.00000     -0.000  -0.000  -0.000
   20  7 3pz        0.16130   0.00000     -0.000  -0.000   0.000
   20  8 3px        0.50330   0.00000     -0.000  -0.000  -0.000
   20  9 3Pdxy      0.09929   0.00000     -0.000  -0.000   0.000
   20 10 3Pdyz      0.12996   0.00000      0.000   0.000   0.000
   20 11 3Pdz2      0.00714   0.00000     -0.000   0.000  -0.000
   20 12 3Pdxz      0.02708   0.00000     -0.000   0.000  -0.000
   20 13 3Pdx2-y2   0.17393   0.00000      0.000   0.000  -0.000
   20     Total     3.52029   0.00000      0.000   0.000   0.000

----------------------------------------------------------------
Total              88.97278   0.00000     -0.000   0.000  -0.000


Species: H                   

Atom      Orb        Charge      Spin       Svec
----------------------------------------------------------------
   12  1 1s         0.47575   0.00000     -0.000   0.000  -0.000
   12  2 1s         0.18349   0.00000      0.000  -0.000  -0.000
   12  3 2Ppy       0.03706   0.00000     -0.000  -0.000   0.000
   12  4 2Ppz       0.03061   0.00000     -0.000  -0.000  -0.000
   12  5 2Ppx       0.04010   0.00000      0.000   0.000  -0.000
   12     Total     0.76700   0.00000     -0.000  -0.000  -0.000

   13  1 1s         1.01813   0.00000     -0.000  -0.000   0.000
   13  2 1s         0.09754   0.00000     -0.000   0.000  -0.000
   13  3 2Ppy       0.01915   0.00000      0.000  -0.000   0.000
   13  4 2Ppz       0.02020   0.00000      0.000  -0.000  -0.000
   13  5 2Ppx       0.03326   0.00000     -0.000   0.000   0.000
   13     Total     1.18828   0.00000     -0.000  -0.000   0.000

   14  1 1s         0.48359   0.00000      0.000  -0.000  -0.000
   14  2 1s         0.19697   0.00000     -0.000   0.000  -0.000
   14  3 2Ppy       0.01949   0.00000      0.000   0.000   0.000
   14  4 2Ppz       0.04812   0.00000     -0.000   0.000  -0.000
   14  5 2Ppx       0.02038   0.00000     -0.000   0.000  -0.000
   14     Total     0.76855   0.00000     -0.000   0.000  -0.000

   15  1 1s         0.45633   0.00000      0.000  -0.000  -0.000
   15  2 1s         0.17677   0.00000     -0.000  -0.000  -0.000
   15  3 2Ppy       0.03763   0.00000      0.000   0.000   0.000
   15  4 2Ppz       0.04156   0.00000      0.000   0.000  -0.000
   15  5 2Ppx       0.07083   0.00000      0.000  -0.000  -0.000
   15     Total     0.78312   0.00000      0.000   0.000  -0.000

   16  1 1s         0.50457   0.00000     -0.000  -0.000  -0.000
   16  2 1s         0.19069   0.00000      0.000   0.000  -0.000
   16  3 2Ppy       0.02899   0.00000     -0.000  -0.000  -0.000
   16  4 2Ppz       0.03963   0.00000      0.000   0.000  -0.000
   16  5 2Ppx       0.02425   0.00000     -0.000   0.000  -0.000
   16     Total     0.78813   0.00000      0.000   0.000  -0.000

   24  1 1s         1.05784   0.00000     -0.000  -0.000   0.000
   24  2 1s         0.07618   0.00000      0.000   0.000  -0.000
   24  3 2Ppy       0.03063   0.00000     -0.000  -0.000  -0.000
   24  4 2Ppz       0.03033   0.00000      0.000   0.000  -0.000
   24  5 2Ppx       0.01784   0.00000      0.000  -0.000   0.000
   24     Total     1.21282   0.00000     -0.000  -0.000   0.000

   25  1 1s         1.04582   0.00000     -0.000  -0.000   0.000
   25  2 1s         0.08512   0.00000      0.000   0.000   0.000
   25  3 2Ppy       0.01142   0.00000     -0.000  -0.000  -0.000
   25  4 2Ppz       0.01889   0.00000     -0.000   0.000   0.000
   25  5 2Ppx       0.03594   0.00000      0.000  -0.000   0.000
   25     Total     1.19718   0.00000     -0.000   0.000   0.000

   26  1 1s         0.48989   0.00000      0.000  -0.000  -0.000
   26  2 1s         0.19508   0.00000     -0.000  -0.000  -0.000
   26  3 2Ppy       0.02191   0.00000      0.000   0.000  -0.000
   26  4 2Ppz       0.04879   0.00000      0.000   0.000  -0.000
   26  5 2Ppx       0.01954   0.00000     -0.000  -0.000  -0.000
   26     Total     0.77521   0.00000      0.000  -0.000  -0.000

   27  1 1s         0.45348   0.00000      0.000  -0.000  -0.000
   27  2 1s         0.17098   0.00000     -0.000   0.000  -0.000
   27  3 2Ppy       0.04552   0.00000     -0.000   0.000   0.000
   27  4 2Ppz       0.03858   0.00000     -0.000  -0.000   0.000
   27  5 2Ppx       0.07504   0.00000      0.000   0.000  -0.000
   27     Total     0.78360   0.00000      0.000  -0.000  -0.000

   29  1 1s         0.48893   0.00000      0.000  -0.000  -0.000
   29  2 1s         0.18822   0.00000      0.000   0.000  -0.000
   29  3 2Ppy       0.02471   0.00000      0.000   0.000   0.000
   29  4 2Ppz       0.03474   0.00000     -0.000  -0.000   0.000
   29  5 2Ppx       0.02673   0.00000      0.000   0.000  -0.000
   29     Total     0.76334   0.00000      0.000  -0.000  -0.000

----------------------------------------------------------------
Total              98.00000   0.00000      0.000  -0.000   0.000


siesta: Eigenvalues (eV):
ik =     1
  -22.6318  -22.6318  -22.1846  -22.1846  -21.3805  -21.3805  -21.2760  -21.2760  -21.0678  -21.0678
  -20.8833  -20.8833  -20.3787  -20.3787  -19.6099  -19.6099  -19.5551  -19.5551  -19.4101  -19.4101
  -14.7648  -14.7648  -13.8288  -13.8288  -13.2851  -13.2851  -13.1058  -13.1058  -12.9023  -12.9023
  -12.7002  -12.7002  -12.5744  -12.5744  -12.1445  -12.1445  -11.8561  -11.8561  -11.7266  -11.7266
  -11.0799  -11.0799  -10.8272  -10.8272  -10.6012  -10.6012  -10.4384  -10.4384  -10.1666  -10.1666
   -9.6442   -9.6442   -9.0929   -9.0929   -8.9236   -8.9236   -8.8102   -8.8102   -8.6280   -8.6280
   -8.5639   -8.5639   -8.4369   -8.4369   -8.3080   -8.3080   -8.0050   -8.0050   -7.8280   -7.8280
   -7.6246   -7.6246   -7.3881   -7.3881   -7.1872   -7.1872   -7.0708   -7.0708   -6.8705   -6.8705
   -6.6155   -6.6155   -6.5573   -6.5573   -6.3724   -6.3724   -6.3329   -6.3329   -6.2889   -6.2889
   -6.1481   -6.1481   -5.9540   -5.9540   -5.5499   -5.5499   -4.3083   -4.3083   -3.2602   -3.2602
   -2.3284   -2.3284   -2.2790   -2.2790   -2.1718   -2.1718   -1.8909   -1.8909   -1.8460   -1.8460
   -1.8024   -1.8024   -1.6598   -1.6598   -1.6151   -1.6151   -1.1751   -1.1751   -1.1051   -1.1051
   -0.8942   -0.8942   -0.5130   -0.5130   -0.3945   -0.3945   -0.3100   -0.3100    0.3731    0.3731
    0.5122    0.5122    0.5483    0.5483    0.7024    0.7024    1.0558    1.0558    1.1736    1.1736
    1.3316    1.3316    1.4024    1.4024    1.4427    1.4427    1.5940    1.5940    1.9688    1.9688
    2.0054    2.0054    2.6465    2.6465    2.7329    2.7329    2.7378    2.7378    2.8678    2.8678
    2.8878    2.8878    2.9317    2.9317    3.0691    3.0691    3.4645    3.4645    3.5765    3.5765
    3.8151    3.8151    4.0756    4.0756    4.1995    4.1995    4.2382    4.2382    4.4799    4.4799
    4.6495    4.6495    4.7295    4.7295    4.7681    4.7681    4.9926    4.9926    5.2641    5.2641
    5.3053    5.3053    5.4070    5.4070    5.7341    5.7341    5.7537    5.7537    5.9399    5.9399
    6.0270    6.0270    6.1630    6.1630    6.4080    6.4080    6.4706    6.4706    6.5148    6.5148
    6.6871    6.6871    6.7595    6.7595    6.9100    6.9100    7.0246    7.0246    7.1155    7.1155
    7.2276    7.2276    7.6681    7.6681    7.7004    7.7004    7.8264    7.8264    8.0468    8.0468
    8.0679    8.0679    8.2577    8.2577    8.3955    8.3955    8.4980    8.4980    8.6486    8.6486
    8.8183    8.8183    8.8664    8.8664    9.0556    9.0556    9.0819    9.0819    9.4588    9.4588
    9.5086    9.5086    9.8075    9.8075    9.9380    9.9380    9.9905    9.9905   10.1978   10.1978
   10.2261   10.2261   10.5723   10.5723   10.8533   10.8533   11.2174   11.2174   11.3478   11.3478
   11.3583   11.3583   11.4625   11.4625   12.2230   12.2230   12.2867   12.2867   12.3715   12.3715
   12.4579   12.4579   12.6307   12.6307   12.6432   12.6432   13.0077   13.0077   13.0955   13.0955
   13.5639   13.5639   13.6211   13.6211   13.6556   13.6556   13.9702   13.9702   14.0471   14.0471
   14.2406   14.2406   14.4406   14.4406   14.9442   14.9442   15.1107   15.1107   15.1604   15.1604
   15.5570   15.5570   16.2436   16.2436   16.7063   16.7063   16.7515   16.7515   17.1410   17.1410
   17.2367   17.2367   17.7021   17.7021   18.0751   18.0751   18.7889   18.7889   19.0216   19.0216
   19.4635   19.4635   19.7799   19.7799   20.2244   20.2244   20.6294   20.6294   20.7374   20.7374
   21.2848   21.2848   21.8535   21.8535   22.4087   22.4087   22.9636   22.9636   23.1424   23.1424
   23.7741   23.7741   23.9762   23.9762   24.1714   24.1714   24.3840   24.3840   25.1532   25.1532
   25.6665   25.6665   26.1310   26.1310   26.6096   26.6096   27.7240   27.7240   28.8655   28.8655
   29.2317   29.2317   29.4473   29.4473   30.1122   30.1122   30.2839   30.2839   30.6068   30.6068
   30.9342   30.9342   30.9497   30.9497   31.1687   31.1687   31.4857   31.4857   31.6169   31.6169
   31.9533   31.9533   33.0195   33.0195   33.7080   33.7080   34.0594   34.0594   34.1343   34.1343
   35.0856   35.0856   35.3789   35.3789   35.4739   35.4739   35.8907   35.8907   36.1738   36.1738
   36.3869   36.3869   36.7343   36.7343   37.0366   37.0366   37.1114   37.1114   38.3156   38.3156
   38.7192   38.7192   39.0729   39.0729   39.4190   39.4190   39.5879   39.5879   39.9236   39.9236
   40.3104   40.3104   40.3964   40.3964   41.2585   41.2585   41.3189   41.3189   41.5822   41.5822
   41.8828   41.8828   42.2522   42.2522   42.3149   42.3149   42.9892   42.9892   43.4409   43.4409
   43.5884   43.5884   43.6913   43.6913   43.9358   43.9358   44.3074   44.3074   44.7084   44.7084
   45.0424   45.0424   45.0917   45.0917   45.2717   45.2717   45.8374   45.8374   46.1299   46.1299
   46.3851   46.3851   47.0869   47.0869   47.7814   47.7814   47.8177   47.8177   48.9625   48.9625
   49.4860   49.4860   50.1860   50.1860   50.3792   50.3792   50.5182   50.5182   50.5811   50.5811
   51.1151   51.1151   51.7281   51.7281   52.2908   52.2908   52.4152   52.4152   53.9619   53.9619
   54.0739   54.0739   54.1511   54.1511   55.3524   55.3524   55.7704   55.7704   56.1160   56.1160
   56.3891   56.3891   56.8430   56.8430   57.7419   57.7419   58.2785   58.2785   58.4921   58.4921
   59.9210   59.9210   59.9294   59.9294   60.4784   60.4784   60.6386   60.6386   61.3546   61.3546
   62.2469   62.2469   62.4401   62.4401   62.8351   62.8351   63.1778   63.1778   65.9855   65.9855
   66.9067   66.9067   68.1109   68.1109   68.2705   68.2705   68.3416   68.3416   68.9352   68.9352
   69.2184   69.2184   70.6488   70.6488   71.3371   71.3371   75.4810   75.4810   84.1485   84.1485
   85.1127   85.1127   87.6114   87.6114   93.7961   93.7961   94.2026   94.2026   94.8150   94.8150
   99.3336   99.3336  100.5223  100.5223  102.5000  102.5000  104.2602  104.2602  105.4101  105.4101
  114.7193  114.7193  116.5997  116.5997  125.6902  125.6902  127.8191  127.8191  137.6415  137.6415
  143.8738  143.8738  145.9235  145.9235
siesta: Fermi energy =      -3.784405 eV

siesta: Program's energy decomposition (eV):
siesta: Ebs     =     -1133.777593
siesta: Eions   =      3585.165840
siesta: Ena     =       382.841911
siesta: Ekin    =      2911.295408
siesta: Enl     =     -2796.108742
siesta: Eso     =        -0.004331
siesta: Edftu   =         0.000000
siesta: DEna    =        47.868267
siesta: DUscf   =        13.828614
siesta: DUext   =         0.000000
siesta: Exc     =     -1122.583347
siesta: eta*DQ  =         0.000000
siesta: Emadel  =         0.000000
siesta: Emeta   =         0.000000
siesta: Emolmec =         0.000000
siesta: Ekinion =         0.000000
siesta: Eharris =     -4148.028058
siesta: Etot    =     -4148.028058
siesta: FreeEng =     -4148.028058

siesta: Final energy (eV):
siesta:  Band Struct. =   -1133.777593
siesta:       Kinetic =    2911.295408
siesta:       Hartree =    8983.511935
siesta:       Edftu   =       0.000000
siesta:       Eso     =      -0.004331
siesta:    Ext. field =       0.000000
siesta:   Exch.-corr. =   -1122.583347
siesta:  Ion-electron =  -20554.708080
siesta:       Ion-ion =    5634.460356
siesta:       Ekinion =       0.000000
siesta:         Total =   -4148.028058
siesta:         Fermi =      -3.784405

siesta: Atomic forces (eV/Ang):
siesta:      1    0.269425    2.922702   -0.000000
siesta:      2    0.006839    0.002992    0.000000
siesta:      3    0.135702   -0.026087   -0.000000
siesta:      4    0.116967   -0.002276   -0.000000
siesta:      5    0.005504   -0.017605    0.000000
siesta:      6    0.440680    0.264498    0.000000
siesta:      7    0.004368   -0.038959   -0.000000
siesta:      8   -0.060721    0.045912    0.000000
siesta:      9   -0.003988    0.203224   -0.000000
siesta:     10   -0.141850    0.080253   -0.000000
siesta:     11   -0.003513   -0.004414   -0.000000
siesta:     12    0.024657    0.180103    0.000000
siesta:     13   -0.081094   -0.196530    0.000000
siesta:     14    0.073557   -0.303055    0.000000
siesta:     15   -0.174570   -0.207320   -0.000000
siesta:     16   -0.040417   -0.330626    0.000000
siesta:     17    0.146490   -0.192971   -0.000000
siesta:     18   -0.034119    0.029458    0.000000
siesta:     19   -0.048243   -0.160929   -0.000000
siesta:     20   -0.010316   -0.065176   -0.000000
siesta:     21   -0.073643    0.135213    0.000000
siesta:     22   -0.576381   -0.339170    0.000000
siesta:     23    0.032413    0.067048    0.000000
siesta:     24   -0.085464    0.145572    0.000000
siesta:     25   -0.081990    0.051524   -0.000000
siesta:     26   -0.052908    0.024517   -0.000000
siesta:     27    0.238978    0.175449   -0.000000
siesta:     28   -2.296060   -2.099859    0.000000
siesta:     29   -0.095426    0.018695    0.000000
siesta: ----------------------------------------
siesta:    Tot   -2.365125    0.362183    0.000000

siesta: Stress tensor (static) (eV/Ang**3):
siesta:     0.000025    0.000260   -0.000000
siesta:     0.000260   -0.000342   -0.000000
siesta:     0.000000   -0.000000   -0.000076

siesta: Cell volume =       4449.623141 Ang**3

siesta: Pressure (static):
siesta:                Solid            Molecule  Units
siesta:           0.00000143         -0.00000045  Ry/Bohr**3
siesta:           0.00013104         -0.00004161  eV/Ang**3
siesta:           0.20994683         -0.06667339  kBar
(Free)E+ p_basis*V_orbitals  =       -4128.177641
(Free)Eharris+ p_basis*V_orbitals  =       -4128.177641
     spin moment: S , {S} =    0.00000   0.00000  -0.00000   0.00000

siesta: Electric dipole (a.u.)  =    1.656007    0.165113    0.000000
siesta: Electric dipole (Debye) =    4.209153    0.419676    0.000000

cite: Please see "GC.bib" for an exhaustive BiBTeX file.
cite: Please clearly indicate Siesta version in published work: v4.1.5-1-g384057250
cite: This calculation has made use of the following articles
cite: which are encouraged to be cited in a published work.
        Primary SIESTA paper
          DOI: www.doi.org/10.1088/0953-8984/14/11/302
        Spin-orbit coupling (on-site approximation)
          DOI: www.doi.org/10.1088/0953-8984/19/19/489001


WARNING: alloc-realloc-dealloc name mismatch
         Name: atomlist isa
         Size:              -116. Bytes
         Node:     0
         Subsequent mismatches will not be reported
>> End of run:   4-JUL-2023   9:41:06
Job completed
