Siesta Version  : v4.1.5-1-g384057250
Architecture    : gcc
Compiler version: GNU Fortran (Ubuntu 11.4.0-1ubuntu1~22.04) 11.4.0
Compiler flags  : mpifort -O2 -fPIC -ftree-vectorize -fallow-argument-mismatch
PP flags        : -DFC_HAVE_ABORT -DMPI -DSIESTA__FLOOK -DSIESTA__METIS -DSIESTA__MUMPS -DCDF -DNCDF -DNCDF_4 -DNCDF_PARALLEL -DSIESTA__MRRR -DSIESTA__ELPA
Libraries       : libncdf.a libfdict.a  -lflookall -ldl -lnetcdff -lnetcdf -lhdf5_hl -lhdf5 -lhdf5_fortran -lz -lscalapack-openmpi -lopenblas -lmetis -lzmumps -lcmumps -ldmumps -lmumps_common -lpord -lsmumps -lesmumps -lscotch -lscotcherr -fopenmp -lelpa
PARALLEL version
NetCDF support
NetCDF-4 support
NetCDF-4 MPI-IO support
METIS ordering support
Lua support

* Running on 8 nodes in parallel
>> Start of run:   1-FEB-2024  21:15:50

                           ***********************       
                           *  WELCOME TO SIESTA  *       
                           ***********************       

reinit: Reading from standard input
reinit: Dumped input in INPUT_TMP.21334
************************** Dump of input data file ****************************
# mpirun -np 4 siesta-4.1.5 < AT.fdf > AT.out &
SystemLabel      AT
NumberOfAtoms    30
NumberOfSpecies  4
%block ChemicalSpeciesLabel
    1    1  H
    2    7  N
    3   14  Si
    4    8  O
%endblock ChemicalSpeciesLabel
############################################
# This overrides Defaults.fdf configuration
############################################
MD.TypeOfRun                Verlet # CG, Verlet
MD.Steps                    0
MaxSCFIterations            200
SCF.MustConverge            F
AtomicCoordinatesFormat NotScaledCartesianAng
%block AtomicCoordinatesAndAtomicSpecies
    2.28494382 -5.19529124 0.0  1  1  H
    1.37433094 -4.6647107 0.0  2  2  N
    -0.21830245 -5.49458215 0.0  3  3  Si
    -0.17484108 -6.98516892 0.0  1  4  H
    -1.66171682 -4.58600741 0.0  2  5  N
    -1.09026419 -2.87456374 0.0  3  6  Si
    -1.53038332 -0.70765692 0.0  3  7  Si
    -3.14415959 -0.09186471 0.0  2  8  N
    -3.40268075 0.95848335 0.0  1  9  H
    -3.95073599 -0.76720972 0.0  1  10  H
    -0.17836637 0.41349951 0.0  2  11  N
    1.49520211 -0.0473996 0.0  3  12  Si
    2.45603905 1.10727302 0.0  1  13  H
    2.30451743 -1.58574382 0.0  2  14  N
    1.10725559 -2.84610319 0.0  3  15  Si
    -0.03231307491345459 11.868627863429756 0.0  1  16  H
    -0.8410237549134546 11.176421983429755 0.0  2  17  N
    -2.497613594913455 11.889542083429756 0.0  3  18  Si
    -2.4007484249134547 13.400267293429756 0.0  1  19  H
    -4.223769944913455 10.546493953429756 0.0  3  20  Si
    -6.578224194913455 10.538507023429755 0.0  3  21  Si
    -7.140642314913455 11.272996673429756 -1.20183078  1  22  H
    -6.878037944913455 9.059415893429755 -0.08618332  1  23  H
    -7.140754774913455 11.103339483429757 1.28814761  1  24  H
    -3.2943793049134547 8.475922723429756 0.0  3  25  Si
    -4.243847664913455 7.187386593429755 0.0  4  26  O
    -1.5034344349134545 8.302187253429755 0.0  2  27  N
    -1.1724430749134545 7.269830273429756 0.0  1  28  H
    -0.19497621491345463 9.496733673429755 0.0  3  29  Si
    1.3709607150865453 9.229486823429756 0.0  4  30  O
%endblock AtomicCoordinatesAndAtomicSpecies
#############
# Unit Cell
#############
LatticeConstant 1.0 Ang
%block LatticeVectors
    30.00000    0.000000    0.000000
    0.000000    45.00000    0.000000
    0.000000    0.000000    10.00000
%endblock LatticeVectors
%include ../../../../Defaults.fdf
************************** End of input data file *****************************

reinit: -----------------------------------------------------------------------
reinit: System Name: 
reinit: -----------------------------------------------------------------------
reinit: System Label: AT
reinit: -----------------------------------------------------------------------

initatom: Reading input for the pseudopotentials and atomic orbitals ----------
Species number:   1 Atomic number:    1 Label: H
Species number:   2 Atomic number:    7 Label: N
Species number:   3 Atomic number:   14 Label: Si
Species number:   4 Atomic number:    8 Label: O

Ground state valence configuration:   1s01
Reading pseudopotential information in formatted form from H.psf

Pseudopotential generated from a relativistic atomic calculation

Valence configuration for pseudopotential generation:
1s( 1.00) rc: 0.01
2p( 0.00) rc: 0.60
3d( 0.00) rc: 1.99
4f( 0.00) rc: 2.49
Ground state valence configuration:   2s02  2p03
Reading pseudopotential information in formatted form from N.psf

Pseudopotential generated from a relativistic atomic calculation

Valence configuration for pseudopotential generation:
2s( 2.00) rc: 0.94
2p( 3.00) rc: 0.59
3d( 0.00) rc: 3.46
4f( 0.00) rc: 2.47
Ground state valence configuration:   3s02  3p02
Reading pseudopotential information in formatted form from Si.psf

Pseudopotential generated from a relativistic atomic calculation

Valence configuration for pseudopotential generation:
3s( 2.00) rc: 1.67
3p( 2.00) rc: 2.04
3d( 0.00) rc: 2.89
4f( 0.00) rc: 2.49
Ground state valence configuration:   2s02  2p04
Reading pseudopotential information in formatted form from O.psf

Pseudopotential generated from a relativistic atomic calculation

Valence configuration for pseudopotential generation:
2s( 2.00) rc: 0.45
2p( 4.00) rc: 0.92
3d( 0.00) rc: 2.24
4f( 0.00) rc: 0.25
For H, standard SIESTA heuristics set lmxkb to 2
 (one more than the basis l, including polarization orbitals).
Use PS.lmax or PS.KBprojectors blocks to override.
For N, standard SIESTA heuristics set lmxkb to 3
 (one more than the basis l, including polarization orbitals).
Use PS.lmax or PS.KBprojectors blocks to override.
For Si, standard SIESTA heuristics set lmxkb to 3
 (one more than the basis l, including polarization orbitals).
Use PS.lmax or PS.KBprojectors blocks to override.
For O, standard SIESTA heuristics set lmxkb to 3
 (one more than the basis l, including polarization orbitals).
Use PS.lmax or PS.KBprojectors blocks to override.

<basis_specs>
===============================================================================
H                    Z=   1    Mass=  1.0100        Charge= 0.17977+309
Lmxo=0 Lmxkb= 2    BasisType=split      Semic=F
L=0  Nsemic=0  Cnfigmx=1
          i=1  nzeta=2  polorb=1  (1s)
            splnorm:   0.62000    
               vcte:    0.0000    
               rinn:    0.0000    
               qcoe:    0.0000    
               qyuk:    0.0000    
               qwid:   0.10000E-01
                rcs:    0.0000      0.0000    
            lambdas:    1.0000      1.0000    
-------------------------------------------------------------------------------
L=0  Nkbl=1  erefs: 0.17977+309
L=1  Nkbl=1  erefs: 0.17977+309
L=2  Nkbl=1  erefs: 0.17977+309
===============================================================================
</basis_specs>

atom: Called for H                     (Z =   1)

read_vps: Pseudopotential generation method:
read_vps: ATM4.2.7  Troullier-Martins                       
Valence charge for ps generation:    1.00000

xc_check: Exchange-correlation functional:
xc_check: GGA Perdew, Burke & Ernzerhof 1996
V l=0 = -2*Zval/r beyond r=  0.0098
V l=1 = -2*Zval/r beyond r=  0.5817
V l=2 = -2*Zval/r beyond r=  1.9372
All V_l potentials equal beyond r=  1.9372
This should be close to max(r_c) in ps generation
All pots = -2*Zval/r beyond r=  1.9372

VLOCAL1: 99.0% of the norm of Vloc inside     11.567 Ry
VLOCAL1: 99.9% of the norm of Vloc inside     26.362 Ry
atom: Maximum radius for 4*pi*r*r*local-pseudopot. charge    2.25106
atom: Maximum radius for r*vlocal+2*Zval:    1.91306
GHOST: No ghost state for L =  0
GHOST: No ghost state for L =  1
GHOST: No ghost state for L =  2

KBgen: Kleinman-Bylander projectors: 
   l= 0   rc=  2.036604   el= -0.477180   Ekb= -6.081590   kbcos= -0.277285
   l= 1   rc=  2.195416   el=  0.001076   Ekb= -0.926943   kbcos= -0.034643
   l= 2   rc=  2.251056   el=  0.002010   Ekb= -0.130941   kbcos= -0.009788

KBgen: Total number of Kleinman-Bylander projectors:    9
atom: -------------------------------------------------------------------------

atom: SANKEY-TYPE ORBITALS:
atom: Selected multiple-zeta basis: split     

SPLIT: Orbitals with angular momentum L= 0

SPLIT: Basis orbitals for state 1s

SPLIT: PAO cut-off radius determined from an
SPLIT: energy shift=  0.002000 Ry

   izeta = 1
                 lambda =    1.000000
                     rc =    6.518340
                 energy =   -0.475305
                kinetic =    0.912139
    potential(screened) =   -1.387444
       potential(ionic) =   -1.907295

   izeta = 2
                 rmatch =    2.141150
              splitnorm =    0.620000
                 energy =    0.566467
                kinetic =    3.772856
    potential(screened) =   -3.206389
       potential(ionic) =   -3.759093

POLgen: Perturbative polarization orbital with L=  1

POLgen: Polarization orbital for state 1s

   izeta = 1
                     rc =    6.518340
                 energy =    0.533861
                kinetic =    1.121086
    potential(screened) =   -0.587225
       potential(ionic) =   -1.053027
atom: Total number of Sankey-type orbitals:  5

atm_pop: Valence configuration (for local Pseudopot. screening):
 1s( 1.00)                                                            
Vna: chval, zval:    1.00000   1.00000

Vna:  Cut-off radius for the neutral-atom potential:   6.518340

atom: _________________________________________________________________________

<basis_specs>
===============================================================================
N                    Z=   7    Mass=  14.010        Charge= 0.17977+309
Lmxo=1 Lmxkb= 3    BasisType=split      Semic=F
L=0  Nsemic=0  Cnfigmx=2
          i=1  nzeta=2  polorb=0  (2s)
            splnorm:   0.28000    
               vcte:    0.0000    
               rinn:    0.0000    
               qcoe:    0.0000    
               qyuk:    0.0000    
               qwid:   0.10000E-01
                rcs:    0.0000      0.0000    
            lambdas:    1.0000      1.0000    
L=1  Nsemic=0  Cnfigmx=2
          i=1  nzeta=2  polorb=1  (2p)
            splnorm:   0.28000    
               vcte:    0.0000    
               rinn:    0.0000    
               qcoe:    0.0000    
               qyuk:    0.0000    
               qwid:   0.10000E-01
                rcs:    0.0000      0.0000    
            lambdas:    1.0000      1.0000    
-------------------------------------------------------------------------------
L=0  Nkbl=1  erefs: 0.17977+309
L=1  Nkbl=1  erefs: 0.17977+309
L=2  Nkbl=1  erefs: 0.17977+309
L=3  Nkbl=1  erefs: 0.17977+309
===============================================================================
</basis_specs>

atom: Called for N                     (Z =   7)

read_vps: Pseudopotential generation method:
read_vps: ATM4.2.7  Troullier-Martins                       
Valence charge for ps generation:    5.00000

xc_check: Exchange-correlation functional:
xc_check: GGA Perdew, Burke & Ernzerhof 1996
V l=0 = -2*Zval/r beyond r=  1.2889
V l=1 = -2*Zval/r beyond r=  1.2889
V l=2 = -2*Zval/r beyond r=  3.4178
V l=3 = -2*Zval/r beyond r=  2.4084
All V_l potentials equal beyond r=  3.3753
This should be close to max(r_c) in ps generation
All pots = -2*Zval/r beyond r=  3.4178

VLOCAL1: 99.0% of the norm of Vloc inside      3.810 Ry
VLOCAL1: 99.9% of the norm of Vloc inside      8.683 Ry
atom: Maximum radius for 4*pi*r*r*local-pseudopot. charge    4.02088
atom: Maximum radius for r*vlocal+2*Zval:    3.54838
GHOST: No ghost state for L =  0
GHOST: No ghost state for L =  1
GHOST: No ghost state for L =  2
GHOST: No ghost state for L =  3

KBgen: Kleinman-Bylander projectors: 
   l= 0   rc=  3.417763   el= -1.365098   Ekb= -4.433130   kbcos= -0.707855
   l= 1   rc=  3.375302   el= -0.521201   Ekb=-13.264039   kbcos= -0.535594
   l= 2   rc=  3.872880   el=  0.001991   Ekb= -0.641094   kbcos= -0.062456
   l= 3   rc=  3.970931   el=  0.003093   Ekb= -0.474517   kbcos= -0.018236

KBgen: Total number of Kleinman-Bylander projectors:   16
atom: -------------------------------------------------------------------------

atom: SANKEY-TYPE ORBITALS:
atom: Selected multiple-zeta basis: split     

SPLIT: Orbitals with angular momentum L= 0

SPLIT: Basis orbitals for state 2s

SPLIT: PAO cut-off radius determined from an
SPLIT: energy shift=  0.002000 Ry

   izeta = 1
                 lambda =    1.000000
                     rc =    4.730425
                 energy =   -1.363399
                kinetic =    1.245246
    potential(screened) =   -2.608645
       potential(ionic) =   -8.121105

   izeta = 2
                 rmatch =    2.531849
              splitnorm =    0.280000
                 energy =   -0.959908
                kinetic =    2.409435
    potential(screened) =   -3.369343
       potential(ionic) =   -9.427975

SPLIT: Orbitals with angular momentum L= 1

SPLIT: Basis orbitals for state 2p

SPLIT: PAO cut-off radius determined from an
SPLIT: energy shift=  0.002000 Ry

   izeta = 1
                 lambda =    1.000000
                     rc =    5.924108
                 energy =   -0.519262
                kinetic =    3.672940
    potential(screened) =   -4.192202
       potential(ionic) =   -9.518354

   izeta = 2
                 rmatch =    2.531849
              splitnorm =    0.280000
                 energy =   -0.104258
                kinetic =    6.807538
    potential(screened) =   -6.911796
       potential(ionic) =  -13.149920

POLgen: Perturbative polarization orbital with L=  2

POLgen: Polarization orbital for state 2p

   izeta = 1
                     rc =    5.924108
                 energy =    1.427508
                kinetic =    2.872379
    potential(screened) =   -1.444871
       potential(ionic) =   -5.563644
atom: Total number of Sankey-type orbitals: 13

atm_pop: Valence configuration (for local Pseudopot. screening):
 2s( 2.00)                                                            
 2p( 3.00)                                                            
Vna: chval, zval:    5.00000   5.00000

Vna:  Cut-off radius for the neutral-atom potential:   5.924108

atom: _________________________________________________________________________

<basis_specs>
===============================================================================
Si                   Z=  14    Mass=  28.090        Charge= 0.17977+309
Lmxo=1 Lmxkb= 3    BasisType=split      Semic=F
L=0  Nsemic=0  Cnfigmx=3
          i=1  nzeta=2  polorb=0  (3s)
            splnorm:   0.28000    
               vcte:    0.0000    
               rinn:    0.0000    
               qcoe:    0.0000    
               qyuk:    0.0000    
               qwid:   0.10000E-01
                rcs:    0.0000      0.0000    
            lambdas:    1.0000      1.0000    
L=1  Nsemic=0  Cnfigmx=3
          i=1  nzeta=2  polorb=1  (3p)
            splnorm:   0.28000    
               vcte:    0.0000    
               rinn:    0.0000    
               qcoe:    0.0000    
               qyuk:    0.0000    
               qwid:   0.10000E-01
                rcs:    0.0000      0.0000    
            lambdas:    1.0000      1.0000    
-------------------------------------------------------------------------------
L=0  Nkbl=1  erefs: 0.17977+309
L=1  Nkbl=1  erefs: 0.17977+309
L=2  Nkbl=1  erefs: 0.17977+309
L=3  Nkbl=1  erefs: 0.17977+309
===============================================================================
</basis_specs>

atom: Called for Si                    (Z =  14)

read_vps: Pseudopotential generation method:
read_vps: ATM4.2.7  Troullier-Martins                       
Valence charge for ps generation:    4.00000

xc_check: Exchange-correlation functional:
xc_check: GGA Perdew, Burke & Ernzerhof 1996
V l=0 = -2*Zval/r beyond r=  2.7826
V l=1 = -2*Zval/r beyond r=  2.7826
V l=2 = -2*Zval/r beyond r=  2.9253
V l=3 = -2*Zval/r beyond r=  2.7826
All V_l potentials equal beyond r=  2.8530
This should be close to max(r_c) in ps generation
All pots = -2*Zval/r beyond r=  2.9253

VLOCAL1: 99.0% of the norm of Vloc inside      5.333 Ry
VLOCAL1: 99.9% of the norm of Vloc inside     12.154 Ry
atom: Maximum radius for 4*pi*r*r*local-pseudopot. charge    3.39869
atom: Maximum radius for r*vlocal+2*Zval:    2.96205
GHOST: No ghost state for L =  0
GHOST: No ghost state for L =  1
GHOST: No ghost state for L =  2
GHOST: No ghost state for L =  3

KBgen: Kleinman-Bylander projectors: 
   l= 0   rc=  3.075247   el= -0.794092   Ekb=  5.879390   kbcos=  0.167461
   l= 1   rc=  3.153101   el= -0.300068   Ekb=  2.642817   kbcos=  0.058301
   l= 2   rc=  3.273594   el=  0.001958   Ekb= -1.185135   kbcos= -0.104411
   l= 3   rc=  3.232927   el=  0.003046   Ekb= -0.497174   kbcos= -0.015889

KBgen: Total number of Kleinman-Bylander projectors:   16
atom: -------------------------------------------------------------------------

atom: SANKEY-TYPE ORBITALS:
atom: Selected multiple-zeta basis: split     

SPLIT: Orbitals with angular momentum L= 0

SPLIT: Basis orbitals for state 3s

SPLIT: PAO cut-off radius determined from an
SPLIT: energy shift=  0.002000 Ry

   izeta = 1
                 lambda =    1.000000
                     rc =    6.429618
                 energy =   -0.792283
                kinetic =    0.525293
    potential(screened) =   -1.317576
       potential(ionic) =   -3.744923

   izeta = 2
                 rmatch =    3.998416
              splitnorm =    0.280000
                 energy =   -0.583081
                kinetic =    1.069570
    potential(screened) =   -1.652651
       potential(ionic) =   -4.235185

SPLIT: Orbitals with angular momentum L= 1

SPLIT: Basis orbitals for state 3p

SPLIT: PAO cut-off radius determined from an
SPLIT: energy shift=  0.002000 Ry

   izeta = 1
                 lambda =    1.000000
                     rc =    8.464845
                 energy =   -0.298236
                kinetic =    0.785360
    potential(screened) =   -1.083596
       potential(ionic) =   -3.273779

   izeta = 2
                 rmatch =    4.587816
              splitnorm =    0.280000
                 energy =   -0.131871
                kinetic =    1.403687
    potential(screened) =   -1.535557
       potential(ionic) =   -4.015310

POLgen: Perturbative polarization orbital with L=  2

POLgen: Polarization orbital for state 3p

   izeta = 1
                     rc =    8.464845
                 energy =    0.321949
                kinetic =    1.055677
    potential(screened) =   -0.733728
       potential(ionic) =   -2.672950
atom: Total number of Sankey-type orbitals: 13

atm_pop: Valence configuration (for local Pseudopot. screening):
 3s( 2.00)                                                            
 3p( 2.00)                                                            
Vna: chval, zval:    4.00000   4.00000

Vna:  Cut-off radius for the neutral-atom potential:   8.464845

atom: _________________________________________________________________________

<basis_specs>
===============================================================================
O                    Z=   8    Mass=  16.000        Charge= 0.17977+309
Lmxo=1 Lmxkb= 3    BasisType=split      Semic=F
L=0  Nsemic=0  Cnfigmx=2
          i=1  nzeta=2  polorb=0  (2s)
            splnorm:   0.28000    
               vcte:    0.0000    
               rinn:    0.0000    
               qcoe:    0.0000    
               qyuk:    0.0000    
               qwid:   0.10000E-01
                rcs:    0.0000      0.0000    
            lambdas:    1.0000      1.0000    
L=1  Nsemic=0  Cnfigmx=2
          i=1  nzeta=2  polorb=1  (2p)
            splnorm:   0.28000    
               vcte:    0.0000    
               rinn:    0.0000    
               qcoe:    0.0000    
               qyuk:    0.0000    
               qwid:   0.10000E-01
                rcs:    0.0000      0.0000    
            lambdas:    1.0000      1.0000    
-------------------------------------------------------------------------------
L=0  Nkbl=1  erefs: 0.17977+309
L=1  Nkbl=1  erefs: 0.17977+309
L=2  Nkbl=1  erefs: 0.17977+309
L=3  Nkbl=1  erefs: 0.17977+309
===============================================================================
</basis_specs>

atom: Called for O                     (Z =   8)

read_vps: Pseudopotential generation method:
read_vps: ATM4.2.7  Troullier-Martins                       
Valence charge for ps generation:    6.00000

xc_check: Exchange-correlation functional:
xc_check: GGA Perdew, Burke & Ernzerhof 1996
V l=0 = -2*Zval/r beyond r=  1.1000
V l=1 = -2*Zval/r beyond r=  1.1000
V l=2 = -2*Zval/r beyond r=  2.2154
V l=3 = -2*Zval/r beyond r=  1.1000
All V_l potentials equal beyond r=  2.2154
This should be close to max(r_c) in ps generation
All pots = -2*Zval/r beyond r=  2.2154

VLOCAL1: 99.0% of the norm of Vloc inside      8.845 Ry
VLOCAL1: 99.9% of the norm of Vloc inside     20.157 Ry
atom: Maximum radius for 4*pi*r*r*local-pseudopot. charge    2.67231
atom: Maximum radius for r*vlocal+2*Zval:    2.32897
GHOST: No ghost state for L =  0
GHOST: No ghost state for L =  1
GHOST: No ghost state for L =  2
GHOST: No ghost state for L =  3

KBgen: Kleinman-Bylander projectors: 
   l= 0   rc=  2.243238   el= -1.759686   Ekb=**********   kbcos= -0.171774
   l= 1   rc=  2.328968   el= -0.663873   Ekb=-14.506792   kbcos= -0.519897
   l= 2   rc=  2.573941   el=  0.002031   Ekb= -1.137373   kbcos= -0.019581
   l= 3   rc=  2.606321   el=  0.003153   Ekb= -1.013546   kbcos= -0.003122

KBgen: Total number of Kleinman-Bylander projectors:   16
atom: -------------------------------------------------------------------------

atom: SANKEY-TYPE ORBITALS:
atom: Selected multiple-zeta basis: split     

SPLIT: Orbitals with angular momentum L= 0

SPLIT: Basis orbitals for state 2s

SPLIT: PAO cut-off radius determined from an
SPLIT: energy shift=  0.002000 Ry

   izeta = 1
                 lambda =    1.000000
                     rc =    4.243912
                 energy =   -1.758270
                kinetic =    3.286084
    potential(screened) =   -5.044353
       potential(ionic) =  -12.921184

   izeta = 2
                 rmatch =    2.187845
              splitnorm =    0.280000
                 energy =   -0.885018
                kinetic =    8.134434
    potential(screened) =   -9.019452
       potential(ionic) =  -17.710645

SPLIT: Orbitals with angular momentum L= 1

SPLIT: Basis orbitals for state 2p

SPLIT: PAO cut-off radius determined from an
SPLIT: energy shift=  0.002000 Ry

   izeta = 1
                 lambda =    1.000000
                     rc =    5.314825
                 energy =   -0.661986
                kinetic =    4.917472
    potential(screened) =   -5.579458
       potential(ionic) =  -13.236259

   izeta = 2
                 rmatch =    2.160663
              splitnorm =    0.280000
                 energy =   -0.068760
                kinetic =    9.183374
    potential(screened) =   -9.252135
       potential(ionic) =  -18.274251

POLgen: Perturbative polarization orbital with L=  2

POLgen: Polarization orbital for state 2p

   izeta = 1
                     rc =    5.314825
                 energy =    1.970580
                kinetic =    3.886128
    potential(screened) =   -1.915547
       potential(ionic) =   -7.749584
atom: Total number of Sankey-type orbitals: 13

atm_pop: Valence configuration (for local Pseudopot. screening):
 2s( 2.00)                                                            
 2p( 4.00)                                                            
Vna: chval, zval:    6.00000   6.00000

Vna:  Cut-off radius for the neutral-atom potential:   5.314825

atom: _________________________________________________________________________

prinput: Basis input ----------------------------------------------------------

PAO.BasisType split     

%block ChemicalSpeciesLabel
    1    1 H                       # Species index, atomic number, species label
    2    7 N                       # Species index, atomic number, species label
    3   14 Si                      # Species index, atomic number, species label
    4    8 O                       # Species index, atomic number, species label
%endblock ChemicalSpeciesLabel

%block PAO.Basis                 # Define Basis set
H                     1                    # Species label, number of l-shells
 n=1   0   2 P   1                   # n, l, Nzeta, Polarization, NzetaPol
   6.518      2.141   
   1.000      1.000   
N                     2                    # Species label, number of l-shells
 n=2   0   2                         # n, l, Nzeta 
   4.730      2.532   
   1.000      1.000   
 n=2   1   2 P   1                   # n, l, Nzeta, Polarization, NzetaPol
   5.924      2.532   
   1.000      1.000   
Si                    2                    # Species label, number of l-shells
 n=3   0   2                         # n, l, Nzeta 
   6.430      3.998   
   1.000      1.000   
 n=3   1   2 P   1                   # n, l, Nzeta, Polarization, NzetaPol
   8.465      4.588   
   1.000      1.000   
O                     2                    # Species label, number of l-shells
 n=2   0   2                         # n, l, Nzeta 
   4.244      2.188   
   1.000      1.000   
 n=2   1   2 P   1                   # n, l, Nzeta, Polarization, NzetaPol
   5.315      2.161   
   1.000      1.000   
%endblock PAO.Basis

prinput: ----------------------------------------------------------------------

Dumping basis to NetCDF file H.ion.nc
Dumping basis to NetCDF file N.ion.nc
Dumping basis to NetCDF file Si.ion.nc
Dumping basis to NetCDF file O.ion.nc
coor:   Atomic-coordinates input format  =     Cartesian coordinates
coor:                                          (in Angstroms)

siesta: Atomic coordinates (Bohr) and species
siesta:      4.31792  -9.81768   0.00000  1        1
siesta:      2.59711  -8.81503   0.00000  2        2
siesta:     -0.41253 -10.38326   0.00000  3        3
siesta:     -0.33040 -13.20006   0.00000  1        4
siesta:     -3.14019  -8.66630   0.00000  2        5
siesta:     -2.06030  -5.43214   0.00000  3        6
siesta:     -2.89201  -1.33728   0.00000  3        7
siesta:     -5.94160  -0.17360   0.00000  2        8
siesta:     -6.43014   1.81127   0.00000  1        9
siesta:     -7.46581  -1.44982   0.00000  1       10
siesta:     -0.33706   0.78140   0.00000  2       11
siesta:      2.82552  -0.08957   0.00000  3       12
siesta:      4.64124   2.09244   0.00000  1       13
siesta:      4.35491  -2.99662   0.00000  2       14
siesta:      2.09241  -5.37836   0.00000  3       15
siesta:     -0.06106  22.42847   0.00000  1       16
siesta:     -1.58931  21.12039   0.00000  2       17
siesta:     -4.71981  22.46799   0.00000  3       18
siesta:     -4.53676  25.32285   0.00000  1       19
siesta:     -7.98177  19.92999   0.00000  3       20
siesta:    -12.43105  19.91490   0.00000  3       21
siesta:    -13.49386  21.30288  -2.27113  1       22
siesta:    -12.99761  17.11982  -0.16286  1       23
siesta:    -13.49408  20.98228   2.43425  1       24
siesta:     -6.22548  16.01718   0.00000  3       25
siesta:     -8.01971  13.58220   0.00000  4       26
siesta:     -2.84108  15.68887   0.00000  2       27
siesta:     -2.21560  13.73799   0.00000  1       28
siesta:     -0.36845  17.94623   0.00000  3       29
siesta:      2.59074  17.44121   0.00000  4       30

siesta: System type = molecule  

initatomlists: Number of atoms, orbitals, and projectors:     30   302   403

siesta: ******************** Simulation parameters ****************************
siesta:
siesta: The following are some of the parameters of the simulation.
siesta: A complete list of the parameters used, including default values,
siesta: can be found in file out.fdf
siesta:
redata: Spin configuration                          = spin-orbit
redata: Number of spin components                   = 8
redata: Time-Reversal Symmetry                      = F
redata: Spin spiral                                 = F
############################################################
This spin-orbit implementation uses a local approximation.
From 4.2 and onwards the full non-local approximation is implemented
You are strongly advised to use >=4.2 versions!
############################################################
redata: Long output                                 =   F
redata: Number of Atomic Species                    =        4
redata: Charge density info will appear in .RHO file
redata: Write Mulliken Pop.                         = NO
redata: Matel table size (NRTAB)                    =     1024
redata: Mesh Cutoff                                 =   340.0000 Ry
redata: Net charge of the system                    =     0.0000 |e|
redata: Min. number of SCF Iter                     =        1
redata: Max. number of SCF Iter                     =      200
redata: SCF mix quantity                            = Hamiltonian
redata: Mix DM or H after convergence               =   F
redata: Recompute H after scf cycle                 =   F
redata: Mix DM in first SCF step                    =   T
redata: Write Pulay info on disk                    =   F
redata: New DM Occupancy tolerance                  = 0.000000000001
redata: No kicks to SCF
redata: DM Mixing Weight for Kicks                  =     0.5000
redata: Require Harris convergence for SCF          =   F
redata: Harris energy tolerance for SCF             =     0.000100 eV
redata: Require DM convergence for SCF              =   T
redata: DM tolerance for SCF                        =     0.000008
redata: Require EDM convergence for SCF             =   F
redata: EDM tolerance for SCF                       =     0.001000 eV
redata: Require H convergence for SCF               =   T
redata: Hamiltonian tolerance for SCF               =     0.000001 eV
redata: Require (free) Energy convergence for SCF   =   F
redata: (free) Energy tolerance for SCF             =     0.000100 eV
redata: Using Saved Data (generic)                  =   F
redata: Use continuation files for DM               =   T
redata: Neglect nonoverlap interactions             =   F
redata: Method of Calculation                       = Diagonalization
redata: Electronic Temperature                      =   299.9978 K
redata: Fix the spin of the system                  =   F
redata: Dynamics option                             = Verlet MD run
redata: Initial MD time step                        =        1
redata:   Final MD time step                        =        1
redata: Length of MD time step                      =     0.5000 fs
redata: Initial Temperature of MD run               =     0.0000 K
redata: Perform a MD quench                         =   F
mix.SCF: Pulay mixing                            = Pulay
mix.SCF:    Variant                              = stable
mix.SCF:    History steps                        = 6
mix.SCF:    Linear mixing weight                 =     0.250000
mix.SCF:    Mixing weight                        =     0.250000
mix.SCF:    SVD condition                        = 0.1000E-07
mix.SCF:    Restart steps                        = 24
mix.SCF:    Restart save steps                   = 3
mix.SCF: Spin-component mixing                   all
redata: Save all siesta data in one NC              =   F
redata: ***********************************************************************

%block SCF.Mixers
  Pulay
%endblock SCF.Mixers

%block SCF.Mixer.Pulay
  # Mixing method
  method pulay
  variant stable

  # Mixing options
  weight 0.2500
  weight.linear 0.2500
  history 6
  restart 24
  restart.save 3
%endblock SCF.Mixer.Pulay

Size of DM history Fstack: 3
Total number of electrons:    98.000000
Total ionic charge:    98.000000

* ProcessorY, Blocksize:    2  24


* Orbital distribution balance (max,min):    48    24


Time-reversal symmetry not used.

siesta: k-grid: Number of k-points =     1
siesta: k-grid: Cutoff (effective) =     5.000 Ang
siesta: k-grid: Supercell and displacements
siesta: k-grid:    1   0   0      0.000
siesta: k-grid:    0   1   0      0.000
siesta: k-grid:    0   0   1      0.000

diag: Algorithm                                     = ELPA-1stage
diag: Parallel over k                               =   F
diag: Use parallel 2D distribution                  =   T
diag: Parallel block-size                           = 24
diag: Parallel distribution                         =     2 x     4
diag: Used triangular part                          = Lower
diag: Absolute tolerance                            =  0.100E-15
diag: Orthogonalization factor                      =  0.100E-05
diag: Memory factor                                 =  1.0000


ts: **************************************************************
ts: Save H and S matrices                           =    F
ts: Save DM and EDM matrices                        =    F
ts: Only save the overlap matrix S                  =    F
ts: **************************************************************

************************ Begin: TS CHECKS AND WARNINGS ************************
************************ End: TS CHECKS AND WARNINGS **************************


                     ====================================
                        Begin MD step =      1
                     ====================================

outcoor: Atomic coordinates (Ang):                          
    2.28494382   -5.19529124    0.00000000   1       1  H
    1.37433094   -4.66471070    0.00000000   2       2  N
   -0.21830245   -5.49458215    0.00000000   3       3  Si
   -0.17484108   -6.98516892    0.00000000   1       4  H
   -1.66171682   -4.58600741    0.00000000   2       5  N
   -1.09026419   -2.87456374    0.00000000   3       6  Si
   -1.53038332   -0.70765692    0.00000000   3       7  Si
   -3.14415959   -0.09186471    0.00000000   2       8  N
   -3.40268075    0.95848335    0.00000000   1       9  H
   -3.95073599   -0.76720972    0.00000000   1      10  H
   -0.17836637    0.41349951    0.00000000   2      11  N
    1.49520211   -0.04739960    0.00000000   3      12  Si
    2.45603905    1.10727302    0.00000000   1      13  H
    2.30451743   -1.58574382    0.00000000   2      14  N
    1.10725559   -2.84610319    0.00000000   3      15  Si
   -0.03231307   11.86862786    0.00000000   1      16  H
   -0.84102375   11.17642198    0.00000000   2      17  N
   -2.49761359   11.88954208    0.00000000   3      18  Si
   -2.40074842   13.40026729    0.00000000   1      19  H
   -4.22376994   10.54649395    0.00000000   3      20  Si
   -6.57822419   10.53850702    0.00000000   3      21  Si
   -7.14064231   11.27299667   -1.20183078   1      22  H
   -6.87803794    9.05941589   -0.08618332   1      23  H
   -7.14075477   11.10333948    1.28814761   1      24  H
   -3.29437930    8.47592272    0.00000000   3      25  Si
   -4.24384766    7.18738659    0.00000000   4      26  O
   -1.50343443    8.30218725    0.00000000   2      27  N
   -1.17244307    7.26983027    0.00000000   1      28  H
   -0.19497621    9.49673367    0.00000000   3      29  Si
    1.37096072    9.22948682    0.00000000   4      30  O

outcell: Unit cell vectors (Ang):
       30.000000    0.000000    0.000000
        0.000000   45.000000    0.000000
        0.000000    0.000000   10.000000

outcell: Cell vector modules (Ang)   :   30.000000   45.000000   10.000000
outcell: Cell angles (23,13,12) (deg):     90.0000     90.0000     90.0000
outcell: Cell volume (Ang**3)        :  13500.0000
<dSpData1D:S at geom step 1
  <sparsity:sparsity for geom step 1
    nrows_g=302 nrows=48 sparsity=.0767 nnzs=6994, refcount: 8>
  <dData1D:(new from dSpData1D) n=6994, refcount: 1>
refcount: 1>
new_DM -- step:     1
Initializing Density Matrix...

Attempting to read DM from file... Failed...
DM filled with atomic data:
<dSpData2D:DM initialized from atoms
  <sparsity:sparsity for geom step 1
    nrows_g=302 nrows=48 sparsity=.0767 nnzs=6994, refcount: 9>
  <dData2D:DM n=6994 m=8, refcount: 1>
refcount: 1>
     spin moment: S , {S} =   56.00000   0.00000   0.00000  56.00000
No. of atoms with KB's overlaping orbs in proc 0. Max # of overlaps:      27     134

Initializing spin-orbit part of the Hamiltonian
  Adding spin-orbit effects for H 
  Adding spin-orbit effects for N 
  Adding spin-orbit effects for Si
  Adding spin-orbit effects for O 


New grid distribution:   1
           1       1:  180    1:  125    1:   15
           2       1:  180    1:  125   16:   30
           3       1:  180    1:  125   31:   45
           4       1:  180    1:  125   46:   60
           5       1:  180  126:  250    1:   15
           6       1:  180  126:  250   16:   30
           7       1:  180  126:  250   31:   45
           8       1:  180  126:  250   46:   60

InitMesh: MESH =   360 x   500 x   120 =    21600000
InitMesh: (bp) =   180 x   250 x    60 =     2700000
InitMesh: Mesh cutoff (required, used) =   340.000   341.206 Ry
ExtMesh (bp) on 0 =   288 x   225 x   123 =     7970400
New grid distribution:   2
           1       1:  158    1:   50    1:   60
           2       1:  151  233:  250    1:   60
           3       1:  158   51:   67    1:   60
           4     159:  180   51:   67    1:   60
           5       1:  151   68:  232    1:   60
           6     152:  180   68:  231    1:   60
           7     159:  180    1:   50    1:   60
           8     152:  180  232:  250    1:   60
New grid distribution:   3
           1       1:  144    1:   44    1:   60
           2       1:  146  220:  250    1:   60
           3       1:  144   45:   66    1:   60
           4     145:  180   40:   66    1:   60
           5       1:  146   67:  219    1:   60
           6     147:  180   67:  215    1:   60
           7     145:  180    1:   39    1:   60
           8     147:  180  216:  250    1:   60
Setting up quadratic distribution...
ExtMesh (bp) on 0 =   266 x   150 x   168 =     6703200
PhiOnMesh: Number of (b)points on node 0 =               474000
PhiOnMesh: nlist on node 0 =              1725071

stepf: Fermi-Dirac step function

siesta: Program's energy decomposition (eV):
siesta: Ebs     =      -629.269905
siesta: Eions   =      3553.971015
siesta: Ena     =       374.984508
siesta: Ekin    =      3171.166181
siesta: Enl     =     -2984.560820
siesta: Eso     =        -0.003883
siesta: Edftu   =         0.000000
siesta: DEna    =       129.723490
siesta: DUscf   =        75.720177
siesta: DUext   =         0.000000
siesta: Exc     =     -1168.609177
siesta: eta*DQ  =         0.000000
siesta: Emadel  =         0.000000
siesta: Emeta   =         0.000000
siesta: Emolmec =         0.000000
siesta: Ekinion =         0.000000
siesta: Eharris =     -3884.387056
siesta: Etot    =     -3955.550539
siesta: FreeEng =     -3955.553880

        iscf     Eharris(eV)        E_KS(eV)     FreeEng(eV)     dDmax    Ef(eV) dHmax(eV)
   scf:    1    -3884.387056    -3955.550539    -3955.553880  0.970592 -4.935563 21.662628
     spin moment: S , {S} =    2.02378  -0.00000  -0.00000   2.02378
timer: Routine,Calls,Time,% = IterSCF        1      28.685  40.17
   scf:    2    -3994.694504    -3988.176091    -3988.176099  0.465907 -4.259172 12.161863
     spin moment: S , {S} =    2.00008   0.00000  -0.00000   2.00008
   scf:    3    -3955.520392    -3984.854536    -3984.884479  0.421807 -4.223915 12.638199
     spin moment: S , {S} =    1.99843  -0.00000  -0.00000   1.99843
   scf:    4    -4002.347957    -3997.204993    -3997.204993  0.218707 -3.869711  6.207036
     spin moment: S , {S} =    0.00010  -0.00000   0.00000   0.00010
   scf:    5    -3998.615922    -3997.984453    -3997.984453  0.038477 -3.751491  3.964385
     spin moment: S , {S} =    0.00006  -0.00000   0.00000   0.00006
   scf:    6    -3998.776523    -3998.380517    -3998.380517  0.026562 -3.726539  1.920577
     spin moment: S , {S} =    0.00003  -0.00000   0.00000   0.00003
   scf:    7    -3998.767185    -3998.567983    -3998.567983  0.022450 -3.815699  0.793565
     spin moment: S , {S} =    0.00001  -0.00000   0.00000   0.00001
   scf:    8    -3998.701359    -3998.632310    -3998.632310  0.012633 -3.820304  0.527115
     spin moment: S , {S} =    0.00000  -0.00000   0.00000   0.00000
   scf:    9    -3998.683234    -3998.656612    -3998.656612  0.007263 -3.841618  0.421595
     spin moment: S , {S} =    0.00000  -0.00000   0.00000   0.00000
   scf:   10    -3998.718303    -3998.675936    -3998.675936  0.026053 -3.876252  0.242820
     spin moment: S , {S} =    0.00000  -0.00000  -0.00000  -0.00000
   scf:   11    -3998.682817    -3998.679573    -3998.679574  0.004278 -3.859481  0.089838
     spin moment: S , {S} =    0.00000   0.00000  -0.00000  -0.00000
   scf:   12    -3998.680961    -3998.680304    -3998.680304  0.001123 -3.856084  0.053027
     spin moment: S , {S} =    0.00000   0.00000  -0.00000  -0.00000
   scf:   13    -3998.681518    -3998.680898    -3998.680899  0.001190 -3.853764  0.028820
     spin moment: S , {S} =    0.00000   0.00000  -0.00000   0.00000
   scf:   14    -3998.681482    -3998.681178    -3998.681179  0.000977 -3.852593  0.017931
     spin moment: S , {S} =    0.00000   0.00000  -0.00000  -0.00000
   scf:   15    -3998.681416    -3998.681290    -3998.681291  0.000642 -3.852232  0.010436
     spin moment: S , {S} =    0.00000   0.00000  -0.00000  -0.00000
   scf:   16    -3998.681388    -3998.681334    -3998.681335  0.000501 -3.852194  0.004157
     spin moment: S , {S} =    0.00000   0.00000   0.00000  -0.00000
   scf:   17    -3998.681350    -3998.681342    -3998.681343  0.000165 -3.852374  0.002119
     spin moment: S , {S} =    0.00000   0.00000   0.00000   0.00000
   scf:   18    -3998.681349    -3998.681345    -3998.681346  0.000130 -3.852504  0.001374
     spin moment: S , {S} =    0.00000   0.00000   0.00000   0.00000
   scf:   19    -3998.681348    -3998.681346    -3998.681347  0.000087 -3.852544  0.000775
     spin moment: S , {S} =    0.00000   0.00000   0.00000   0.00000
   scf:   20    -3998.681347    -3998.681347    -3998.681347  0.000040 -3.852569  0.000535
     spin moment: S , {S} =    0.00000   0.00000   0.00000   0.00000
   scf:   21    -3998.681347    -3998.681347    -3998.681347  0.000034 -3.852582  0.000341
     spin moment: S , {S} =    0.00000   0.00000   0.00000   0.00000
   scf:   22    -3998.681347    -3998.681347    -3998.681348  0.000035 -3.852604  0.000161
     spin moment: S , {S} =    0.00000   0.00000   0.00000   0.00000
   scf:   23    -3998.681347    -3998.681347    -3998.681348  0.000012 -3.852606  0.000114
     spin moment: S , {S} =    0.00000   0.00000   0.00000   0.00000
   scf:   24    -3998.681347    -3998.681347    -3998.681348  0.000011 -3.852605  0.000067
     spin moment: S , {S} =    0.00000   0.00000   0.00000   0.00000
mix: Pulay -- resetting history
   scf:   25    -3998.681347    -3998.681347    -3998.681348  0.000008 -3.852601  0.000036
     spin moment: S , {S} =    0.00000   0.00000   0.00000   0.00000
   scf:   26    -3998.681347    -3998.681347    -3998.681348  0.000003 -3.852601  0.000024
     spin moment: S , {S} =    0.00000   0.00000   0.00000   0.00000
   scf:   27    -3998.681347    -3998.681347    -3998.681348  0.000003 -3.852598  0.000016
     spin moment: S , {S} =    0.00000   0.00000   0.00000   0.00000
   scf:   28    -3998.681347    -3998.681347    -3998.681348  0.000002 -3.852600  0.000009
     spin moment: S , {S} =    0.00000   0.00000   0.00000   0.00000
   scf:   29    -3998.681347    -3998.681347    -3998.681348  0.000001 -3.852600  0.000006
     spin moment: S , {S} =    0.00000   0.00000   0.00000   0.00000
   scf:   30    -3998.681347    -3998.681347    -3998.681348  0.000001 -3.852600  0.000003
     spin moment: S , {S} =    0.00000   0.00000   0.00000   0.00000
   scf:   31    -3998.681347    -3998.681347    -3998.681348  0.000000 -3.852599  0.000003
     spin moment: S , {S} =    0.00000   0.00000   0.00000   0.00000
   scf:   32    -3998.681347    -3998.681347    -3998.681348  0.000000 -3.852599  0.000002
     spin moment: S , {S} =    0.00000   0.00000   0.00000   0.00000
   scf:   33    -3998.681347    -3998.681347    -3998.681348  0.000000 -3.852599  0.000001
     spin moment: S , {S} =    0.00000   0.00000   0.00000   0.00000

SCF Convergence by DM+H criterion
max |DM_out - DM_in|         :     0.0000001624
max |H_out - H_in|      (eV) :     0.0000009917
SCF cycle converged after 33 iterations

Using DM_out to compute the final energy and forces
No. of atoms with KB's overlaping orbs in proc 0. Max # of overlaps:      27     134

siesta: E_KS(eV) =            -3998.6813

siesta: E_KS - E_eggbox =     -3998.6813
     spin moment: S , {S} =    0.00000   0.00000   0.00000   0.00000

siesta: Atomic forces (eV/Ang):
     1    0.143192   -0.027212    0.000000
     2   -0.035885    0.044014    0.000000
     3   -0.031072   -0.017932   -0.000000
     4    0.068463   -0.134393    0.000000
     5    0.054240    0.005123   -0.000000
     6   -0.194927    0.018900    0.000000
     7    1.083005   -0.043751   -0.000000
     8   -0.661601    1.419559   -0.000000
     9    0.172040   -1.017250   -0.000000
    10   -0.111486    0.134917    0.000000
    11   -0.196339   -0.378647    0.000000
    12   -0.281242    0.051050   -0.000000
    13   -0.123310   -0.052298    0.000000
    14    0.031228   -0.119569   -0.000000
    15    0.112493    0.097129    0.000000
    16   -0.052593   -0.034874   -0.000950
    17    0.035706   -0.061130   -0.000795
    18   -0.153453    0.039548    0.005209
    19   -0.020873   -0.053202   -0.001426
    20    0.125528    0.079661   -0.001058
    21    0.055262   -0.027262   -0.007214
    22    0.048663   -0.022615    0.120560
    23    0.015689    0.085891   -0.013570
    24    0.047279    0.031182   -0.092059
    25   -0.653498   -0.411932    0.001044
    26   -0.553992    2.648883    0.000490
    27    0.360315   -0.422031   -0.000555
    28   -0.145076    0.825486   -0.000072
    29    0.136080    0.172889   -0.000224
    30   -0.897627    1.488535    0.000252
----------------------------------------
   Tot   -1.623792    4.318669    0.009630
----------------------------------------
   Max    2.648883
   Res    0.437572    sqrt( Sum f_i^2 / 3N )
----------------------------------------
   Max    2.648883    constrained

Stress tensor Voigt[x,y,z,yz,xz,xy] (kbar):        0.12        0.31       -0.01       -0.01        0.00        0.12
(Free)E + p*V (eV/cell)    -3999.8651
Target enthalpy (eV/cell)    -3998.6813

siesta: Stress tensor (static) (eV/Ang**3):
         0.000077    0.000075    0.000000
         0.000075    0.000190   -0.000004
         0.000000   -0.000004   -0.000004

siesta: Pressure (static):         -0.14049061  kBar

siesta: Stress tensor (total) (eV/Ang**3):
         0.000077    0.000075    0.000000
         0.000075    0.000190   -0.000004
         0.000000   -0.000004   -0.000004

siesta: Pressure (total):         -0.14049061  kBar

siesta: Temp_ion =       0.000 K

siesta: Eigenvalues (eV):
ik =     1
  -22.8335  -22.8335  -22.3343  -22.3343  -21.7197  -21.7197  -21.2764  -21.2764  -21.0356  -21.0356
  -20.9636  -20.9636  -19.4113  -19.4113  -19.2484  -19.2484  -18.6243  -18.6243  -15.0124  -15.0124
  -14.1000  -14.1000  -13.6631  -13.6631  -13.5664  -13.5664  -13.0684  -13.0684  -12.9040  -12.9040
  -12.5510  -12.5510  -12.1829  -12.1829  -11.9025  -11.9025  -11.6266  -11.6266  -11.4834  -11.4834
  -11.0040  -11.0040  -10.6098  -10.6098  -10.2168  -10.2168   -9.5325   -9.5325   -9.3157   -9.3157
   -9.1717   -9.1717   -9.0851   -9.0851   -9.0173   -9.0173   -8.8079   -8.8079   -8.5898   -8.5898
   -8.3848   -8.3848   -8.2495   -8.2495   -8.1466   -8.1466   -7.9985   -7.9985   -7.9344   -7.9344
   -7.7005   -7.7005   -7.4112   -7.4112   -7.3151   -7.3151   -7.2574   -7.2574   -6.8569   -6.8569
   -6.8537   -6.8537   -6.7100   -6.7100   -6.4235   -6.4235   -6.2535   -6.2535   -6.1802   -6.1802
   -5.8198   -5.8198   -5.6923   -5.6923   -5.5574   -5.5574   -4.2284   -4.2284   -3.4768   -3.4768
   -2.6897   -2.6897   -2.1939   -2.1939   -2.1857   -2.1857   -2.1103   -2.1103   -1.9784   -1.9784
   -1.9568   -1.9568   -1.7225   -1.7225   -1.6196   -1.6196   -1.6020   -1.6020   -1.4148   -1.4148
   -1.1469   -1.1469   -0.5890   -0.5890   -0.3240   -0.3240   -0.2141   -0.2141   -0.1723   -0.1723
   -0.0076   -0.0076    0.0625    0.0625    0.2581    0.2581    0.5300    0.5300    0.5619    0.5619
    0.6223    0.6223    0.7568    0.7568    1.2044    1.2044    1.2631    1.2631    1.2982    1.2982
    1.4588    1.4588    1.5781    1.5781    1.9044    1.9044    1.9627    1.9627    2.1673    2.1673
    2.4235    2.4235    2.7588    2.7588    2.7912    2.7912    2.8176    2.8176    2.8377    2.8377
    3.0698    3.0698    3.1043    3.1043    3.1482    3.1482    3.2612    3.2612    3.3211    3.3211
    3.6717    3.6717    3.9235    3.9235    4.2015    4.2015    4.2076    4.2076    4.2450    4.2450
    4.3743    4.3743    4.6773    4.6773    4.6832    4.6832    4.8104    4.8104    5.0641    5.0641
    5.0764    5.0764    5.2119    5.2119    5.5671    5.5671    5.7131    5.7131    5.7416    5.7416
    5.8847    5.8847    6.0676    6.0676    6.1544    6.1544    6.2276    6.2276    6.3165    6.3165
    6.6019    6.6019    6.6068    6.6068    6.8306    6.8306    7.0507    7.0507    7.2113    7.2113
    7.2557    7.2557    7.4740    7.4740    7.6292    7.6292    7.8562    7.8562    7.9769    7.9769
    7.9968    7.9968    8.1719    8.1719    8.3583    8.3583    8.3710    8.3710    8.6959    8.6959
    8.9297    8.9297    8.9870    8.9870    9.0093    9.0093    9.2844    9.2844    9.6194    9.6194
    9.6582    9.6582    9.8054    9.8054    9.8297    9.8297    9.9187    9.9187    9.9476    9.9476
   10.1784   10.1784   10.4569   10.4569   10.6544   10.6544   10.9504   10.9504   10.9740   10.9740
   11.3036   11.3036   11.4205   11.4205   11.6340   11.6340   11.6689   11.6689   11.6875   11.6875
   11.9336   11.9336   12.3002   12.3002   12.3408   12.3408   12.4121   12.4121   12.6351   12.6351
   12.9306   12.9306   12.9530   12.9530   13.0525   13.0525   13.2719   13.2719   13.4009   13.4009
   13.4629   13.4629   13.7324   13.7324   14.5061   14.5061   14.6634   14.6634   14.7371   14.7371
   14.8071   14.8071   14.9391   14.9391   15.1545   15.1545   16.1096   16.1096   16.5633   16.5633
   16.7952   16.7952   16.9128   16.9128   17.0274   17.0274   17.1903   17.1903   17.4402   17.4402
   18.2296   18.2296   18.2590   18.2590   18.5737   18.5737   18.7631   18.7631   18.8380   18.8380
   18.8866   18.8866   19.5477   19.5477   19.8753   19.8753   20.0261   20.0261   20.2552   20.2552
   20.7193   20.7193   21.1153   21.1153   21.1872   21.1872   21.7032   21.7032   22.2853   22.2853
   22.3138   22.3138   22.8937   22.8937   22.9811   22.9811   23.1878   23.1878   23.8430   23.8430
   24.5940   24.5940   24.8314   24.8314   24.8435   24.8435   25.7963   25.7963   25.9432   25.9432
   26.1374   26.1374   26.5602   26.5602   26.5981   26.5981   27.7758   27.7758   28.0553   28.0553
   28.4149   28.4149   28.4997   28.4997   29.2204   29.2204   29.5161   29.5161   30.4724   30.4724
   30.8080   30.8080   30.8474   30.8474   30.9423   30.9423   31.3904   31.3904   31.6340   31.6340
   31.7788   31.7788   32.0269   32.0269   32.1748   32.1748   33.3969   33.3969   33.4884   33.4884
   33.7521   33.7521   34.0893   34.0893   34.5164   34.5164   34.8983   34.8983   34.9355   34.9355
   35.5106   35.5106   36.0237   36.0237   36.1579   36.1579   37.1841   37.1841   37.5691   37.5691
   37.5740   37.5740   37.8136   37.8136   38.1413   38.1413   38.4611   38.4611   38.4934   38.4934
   39.1448   39.1448   40.2567   40.2567   40.2892   40.2892   40.7755   40.7755   41.2022   41.2022
   41.7227   41.7227   41.8951   41.8951   41.9281   41.9281   43.3292   43.3292   43.4835   43.4835
   43.9218   43.9218   44.5855   44.5855   44.8971   44.8971   44.9283   44.9283   45.1848   45.1848
   45.6126   45.6126   45.8026   45.8026   45.9895   45.9895   46.6184   46.6184   47.0363   47.0363
   47.1248   47.1248   47.4489   47.4489   48.6419   48.6419   48.8254   48.8254   49.3909   49.3909
   49.7235   49.7235   50.2420   50.2420   50.3139   50.3139   50.3522   50.3522   50.4632   50.4632
   51.7638   51.7638   52.6702   52.6702   52.7579   52.7579   53.9707   53.9707   54.3792   54.3792
   54.8702   54.8702   54.9006   54.9006   56.0776   56.0776   56.1231   56.1231   56.2392   56.2392
   56.9350   56.9350   57.7683   57.7683   58.0126   58.0126   58.4170   58.4170   59.6862   59.6862
   60.0555   60.0555   61.2357   61.2357   61.7389   61.7389   62.8741   62.8741   63.3591   63.3591
   65.2945   65.2945   65.4713   65.4713   67.0785   67.0785   67.3592   67.3592   68.4537   68.4537
   68.4690   68.4690   70.6020   70.6020   72.0128   72.0128   76.5480   76.5480   88.6848   88.6848
   91.9032   91.9032   93.0801   93.0801   95.1076   95.1076   96.6075   96.6075  100.1922  100.1922
  100.7813  100.7813  102.5956  102.5956  114.3203  114.3203  118.3747  118.3747  123.2906  123.2906
  132.4904  132.4904  138.8026  138.8026
siesta: Fermi energy =      -3.852599 eV

siesta: Program's energy decomposition (eV):
siesta: Ebs     =     -1111.665276
siesta: Eions   =      3553.971015
siesta: Ena     =       374.984508
siesta: Ekin    =      2742.959394
siesta: Enl     =     -2522.622275
siesta: Eso     =        -0.004664
siesta: Edftu   =         0.000000
siesta: DEna    =        36.859461
siesta: DUscf   =        13.899689
siesta: DUext   =         0.000000
siesta: Exc     =     -1090.786444
siesta: eta*DQ  =         0.000000
siesta: Emadel  =         0.000000
siesta: Emeta   =         0.000000
siesta: Emolmec =         0.000000
siesta: Ekinion =         0.000000
siesta: Eharris =     -3998.681347
siesta: Etot    =     -3998.681347
siesta: FreeEng =     -3998.681348

siesta: Final energy (eV):
siesta:  Band Struct. =   -1111.665276
siesta:       Kinetic =    2742.959394
siesta:       Hartree =   11768.959288
siesta:       Edftu   =       0.000000
siesta:       Eso     =      -0.004664
siesta:    Ext. field =       0.000000
siesta:   Exch.-corr. =   -1090.786444
siesta:  Ion-electron =  -25976.901407
siesta:       Ion-ion =    8557.092486
siesta:       Ekinion =       0.000000
siesta:         Total =   -3998.681347
siesta:         Fermi =      -3.852599

siesta: Atomic forces (eV/Ang):
siesta:      1    0.143192   -0.027212    0.000000
siesta:      2   -0.035885    0.044014    0.000000
siesta:      3   -0.031072   -0.017932   -0.000000
siesta:      4    0.068463   -0.134393    0.000000
siesta:      5    0.054240    0.005123   -0.000000
siesta:      6   -0.194927    0.018900    0.000000
siesta:      7    1.083005   -0.043751   -0.000000
siesta:      8   -0.661601    1.419559   -0.000000
siesta:      9    0.172040   -1.017250   -0.000000
siesta:     10   -0.111486    0.134917    0.000000
siesta:     11   -0.196339   -0.378647    0.000000
siesta:     12   -0.281242    0.051050   -0.000000
siesta:     13   -0.123310   -0.052298    0.000000
siesta:     14    0.031228   -0.119569   -0.000000
siesta:     15    0.112493    0.097129    0.000000
siesta:     16   -0.052593   -0.034874   -0.000950
siesta:     17    0.035706   -0.061130   -0.000795
siesta:     18   -0.153453    0.039548    0.005209
siesta:     19   -0.020873   -0.053202   -0.001426
siesta:     20    0.125528    0.079661   -0.001058
siesta:     21    0.055262   -0.027262   -0.007214
siesta:     22    0.048663   -0.022615    0.120560
siesta:     23    0.015689    0.085891   -0.013570
siesta:     24    0.047279    0.031182   -0.092059
siesta:     25   -0.653498   -0.411932    0.001044
siesta:     26   -0.553992    2.648883    0.000490
siesta:     27    0.360315   -0.422031   -0.000555
siesta:     28   -0.145076    0.825486   -0.000072
siesta:     29    0.136080    0.172889   -0.000224
siesta:     30   -0.897627    1.488535    0.000252
siesta: ----------------------------------------
siesta:    Tot   -1.623792    4.318669    0.009630

siesta: Stress tensor (static) (eV/Ang**3):
siesta:     0.000077    0.000075    0.000000
siesta:     0.000075    0.000190   -0.000004
siesta:     0.000000   -0.000004   -0.000004

siesta: Cell volume =      13500.000000 Ang**3

siesta: Pressure (static):
siesta:                Solid            Molecule  Units
siesta:          -0.00000096         -0.00000492  Ry/Bohr**3
siesta:          -0.00008769         -0.00045212  eV/Ang**3
siesta:          -0.14049061         -0.72438979  kBar
(Free)E+ p_basis*V_orbitals  =       -3977.553263
(Free)Eharris+ p_basis*V_orbitals  =       -3977.553263
     spin moment: S , {S} =    0.00000   0.00000   0.00000   0.00000

siesta: Electric dipole (a.u.)  =   -1.169001    1.562501   -0.001839
siesta: Electric dipole (Debye) =   -2.971305    3.971485   -0.004675

cite: Please see "AT.bib" for an exhaustive BiBTeX file.
cite: Please clearly indicate Siesta version in published work: v4.1.5-1-g384057250
cite: This calculation has made use of the following articles
cite: which are encouraged to be cited in a published work.
        Primary SIESTA paper
          DOI: www.doi.org/10.1088/0953-8984/14/11/302
        Spin-orbit coupling (on-site approximation)
          DOI: www.doi.org/10.1088/0953-8984/19/19/489001


WARNING: alloc-realloc-dealloc name mismatch
         Name: atomlist isa
         Size:              -120. Bytes
         Node:     0
         Subsequent mismatches will not be reported
>> End of run:   1-FEB-2024  21:23:03
Job completed
