Siesta Version  : v4.1.5-1-g384057250
Architecture    : gcc
Compiler version: GNU Fortran (Debian 12.2.0-14) 12.2.0
Compiler flags  : mpifort -O2 -fPIC -ftree-vectorize -fallow-argument-mismatch
PP flags        : -DFC_HAVE_ABORT -DMPI -DSIESTA__FLOOK -DSIESTA__METIS -DSIESTA__MUMPS -DCDF -DNCDF -DNCDF_4 -DNCDF_PARALLEL -DSIESTA__MRRR -DSIESTA__ELPA
Libraries       : libncdf.a libfdict.a  -lflookall -ldl -lnetcdff -lnetcdf -lz -lscalapack-openmpi -lopenblas -lmetis -lzmumps -lcmumps -ldmumps -lmumps_common -lpord -lsmumps -lesmumps -lscotch -lscotcherr -fopenmp -lelpa
PARALLEL version
NetCDF support
NetCDF-4 support
NetCDF-4 MPI-IO support
METIS ordering support
Lua support

* Running on 32 nodes in parallel
>> Start of run:  16-OCT-2023  21:17:48

                           ***********************       
                           *  WELCOME TO SIESTA  *       
                           ***********************       

reinit: Reading from standard input
reinit: Dumped input in INPUT_TMP.82771
************************** Dump of input data file ****************************
# mpirun -np 4 siesta-4.1.5 < AT.fdf > AT.out &
SystemLabel      AT
NumberOfAtoms    30
NumberOfSpecies  4
%block ChemicalSpeciesLabel
    1    1  H
    2    7  N
    3   14  Si
    4    8  O
%endblock ChemicalSpeciesLabel
############################################
# This overrides Defaults.fdf configuration
############################################
MD.TypeOfRun                Verlet # CG, Verlet
MD.Steps                    0
MaxSCFIterations            300
AtomicCoordinatesFormat NotScaledCartesianAng
%block AtomicCoordinatesAndAtomicSpecies
    2.28494382 -5.19529124 0.0  1  1  H
    1.37433094 -4.6647107 0.0  2  2  N
    -0.21830245 -5.49458215 0.0  3  3  Si
    -0.17484108 -6.98516892 0.0  1  4  H
    -1.66171682 -4.58600741 0.0  2  5  N
    -1.09026419 -2.87456374 0.0  3  6  Si
    -1.53038332 -0.70765692 0.0  3  7  Si
    -3.14415959 -0.09186471 0.0  2  8  N
    -3.40268075 0.95848335 0.0  1  9  H
    -3.95073599 -0.76720972 0.0  1  10  H
    -0.17836637 0.41349951 0.0  2  11  N
    1.49520211 -0.0473996 0.0  3  12  Si
    2.45603905 1.10727302 0.0  1  13  H
    2.30451743 -1.58574382 0.0  2  14  N
    1.10725559 -2.84610319 0.0  3  15  Si
    -0.03195900874302371 11.866088324277431 0.0  1  16  H
    -0.8406696887430237 11.173882444277432 0.0  2  17  N
    -2.4972595287430237 11.887002544277431 0.0  3  18  Si
    -2.4003943587430236 13.39772775427743 0.0  1  19  H
    -4.223415878743023 10.54395441427743 0.0  3  20  Si
    -6.577870128743024 10.535967484277432 0.0  3  21  Si
    -7.140288248743024 11.27045713427743 -1.20183078  1  22  H
    -6.877683878743024 9.056876354277431 -0.08618332  1  23  H
    -7.140400708743024 11.10079994427743 1.28814761  1  24  H
    -3.294025238743024 8.47338318427743 0.0  3  25  Si
    -4.243493598743024 7.18484705427743 0.0  4  26  O
    -1.5030803687430239 8.29964771427743 0.0  2  27  N
    -1.1720890087430238 7.267290734277431 0.0  1  28  H
    -0.19462214874302375 9.49419413427743 0.0  3  29  Si
    1.3713147812569761 9.226947284277431 0.0  4  30  O
%endblock AtomicCoordinatesAndAtomicSpecies
%include ../../../../Defaults.fdf
************************** End of input data file *****************************

reinit: -----------------------------------------------------------------------
reinit: System Name: 
reinit: -----------------------------------------------------------------------
reinit: System Label: AT
reinit: -----------------------------------------------------------------------

initatom: Reading input for the pseudopotentials and atomic orbitals ----------
Species number:   1 Atomic number:    1 Label: H
Species number:   2 Atomic number:    7 Label: N
Species number:   3 Atomic number:   14 Label: Si
Species number:   4 Atomic number:    8 Label: O

Ground state valence configuration:   1s01
Reading pseudopotential information in formatted form from H.psf

Pseudopotential generated from a relativistic atomic calculation

Valence configuration for pseudopotential generation:
1s( 1.00) rc: 0.01
2p( 0.00) rc: 0.60
3d( 0.00) rc: 1.99
4f( 0.00) rc: 2.49
Ground state valence configuration:   2s02  2p03
Reading pseudopotential information in formatted form from N.psf

Pseudopotential generated from a relativistic atomic calculation

Valence configuration for pseudopotential generation:
2s( 2.00) rc: 0.94
2p( 3.00) rc: 0.59
3d( 0.00) rc: 3.46
4f( 0.00) rc: 2.47
Ground state valence configuration:   3s02  3p02
Reading pseudopotential information in formatted form from Si.psf

Pseudopotential generated from a relativistic atomic calculation

Valence configuration for pseudopotential generation:
3s( 2.00) rc: 1.67
3p( 2.00) rc: 2.04
3d( 0.00) rc: 2.89
4f( 0.00) rc: 2.49
Ground state valence configuration:   2s02  2p04
Reading pseudopotential information in formatted form from O.psf

Pseudopotential generated from a relativistic atomic calculation

Valence configuration for pseudopotential generation:
2s( 2.00) rc: 0.45
2p( 4.00) rc: 0.92
3d( 0.00) rc: 2.24
4f( 0.00) rc: 0.25
For H, standard SIESTA heuristics set lmxkb to 2
 (one more than the basis l, including polarization orbitals).
Use PS.lmax or PS.KBprojectors blocks to override.
For N, standard SIESTA heuristics set lmxkb to 3
 (one more than the basis l, including polarization orbitals).
Use PS.lmax or PS.KBprojectors blocks to override.
For Si, standard SIESTA heuristics set lmxkb to 3
 (one more than the basis l, including polarization orbitals).
Use PS.lmax or PS.KBprojectors blocks to override.
For O, standard SIESTA heuristics set lmxkb to 3
 (one more than the basis l, including polarization orbitals).
Use PS.lmax or PS.KBprojectors blocks to override.

<basis_specs>
===============================================================================
H                    Z=   1    Mass=  1.0100        Charge= 0.17977+309
Lmxo=0 Lmxkb= 2    BasisType=split      Semic=F
L=0  Nsemic=0  Cnfigmx=1
          i=1  nzeta=2  polorb=1  (1s)
            splnorm:   0.62000    
               vcte:    0.0000    
               rinn:    0.0000    
               qcoe:    0.0000    
               qyuk:    0.0000    
               qwid:   0.10000E-01
                rcs:    0.0000      0.0000    
            lambdas:    1.0000      1.0000    
-------------------------------------------------------------------------------
L=0  Nkbl=1  erefs: 0.17977+309
L=1  Nkbl=1  erefs: 0.17977+309
L=2  Nkbl=1  erefs: 0.17977+309
===============================================================================
</basis_specs>

atom: Called for H                     (Z =   1)

read_vps: Pseudopotential generation method:
read_vps: ATM4.2.7  Troullier-Martins                       
Valence charge for ps generation:    1.00000

xc_check: Exchange-correlation functional:
xc_check: GGA Perdew, Burke & Ernzerhof 1996
V l=0 = -2*Zval/r beyond r=  0.0098
V l=1 = -2*Zval/r beyond r=  0.5817
V l=2 = -2*Zval/r beyond r=  1.9372
All V_l potentials equal beyond r=  1.9372
This should be close to max(r_c) in ps generation
All pots = -2*Zval/r beyond r=  1.9372

VLOCAL1: 99.0% of the norm of Vloc inside     11.567 Ry
VLOCAL1: 99.9% of the norm of Vloc inside     26.362 Ry
atom: Maximum radius for 4*pi*r*r*local-pseudopot. charge    2.25106
atom: Maximum radius for r*vlocal+2*Zval:    1.91306
GHOST: No ghost state for L =  0
GHOST: No ghost state for L =  1
GHOST: No ghost state for L =  2

KBgen: Kleinman-Bylander projectors: 
   l= 0   rc=  2.036604   el= -0.477180   Ekb= -6.081590   kbcos= -0.277285
   l= 1   rc=  2.195416   el=  0.001076   Ekb= -0.926943   kbcos= -0.034643
   l= 2   rc=  2.251056   el=  0.002010   Ekb= -0.130941   kbcos= -0.009788

KBgen: Total number of Kleinman-Bylander projectors:    9
atom: -------------------------------------------------------------------------

atom: SANKEY-TYPE ORBITALS:
atom: Selected multiple-zeta basis: split     

SPLIT: Orbitals with angular momentum L= 0

SPLIT: Basis orbitals for state 1s

SPLIT: PAO cut-off radius determined from an
SPLIT: energy shift=  0.002000 Ry

   izeta = 1
                 lambda =    1.000000
                     rc =    6.518340
                 energy =   -0.475305
                kinetic =    0.912139
    potential(screened) =   -1.387444
       potential(ionic) =   -1.907295

   izeta = 2
                 rmatch =    2.141150
              splitnorm =    0.620000
                 energy =    0.566467
                kinetic =    3.772856
    potential(screened) =   -3.206389
       potential(ionic) =   -3.759093

POLgen: Perturbative polarization orbital with L=  1

POLgen: Polarization orbital for state 1s

   izeta = 1
                     rc =    6.518340
                 energy =    0.533861
                kinetic =    1.121086
    potential(screened) =   -0.587225
       potential(ionic) =   -1.053027
atom: Total number of Sankey-type orbitals:  5

atm_pop: Valence configuration (for local Pseudopot. screening):
 1s( 1.00)                                                            
Vna: chval, zval:    1.00000   1.00000

Vna:  Cut-off radius for the neutral-atom potential:   6.518340

atom: _________________________________________________________________________

<basis_specs>
===============================================================================
N                    Z=   7    Mass=  14.010        Charge= 0.17977+309
Lmxo=1 Lmxkb= 3    BasisType=split      Semic=F
L=0  Nsemic=0  Cnfigmx=2
          i=1  nzeta=2  polorb=0  (2s)
            splnorm:   0.28000    
               vcte:    0.0000    
               rinn:    0.0000    
               qcoe:    0.0000    
               qyuk:    0.0000    
               qwid:   0.10000E-01
                rcs:    0.0000      0.0000    
            lambdas:    1.0000      1.0000    
L=1  Nsemic=0  Cnfigmx=2
          i=1  nzeta=2  polorb=1  (2p)
            splnorm:   0.28000    
               vcte:    0.0000    
               rinn:    0.0000    
               qcoe:    0.0000    
               qyuk:    0.0000    
               qwid:   0.10000E-01
                rcs:    0.0000      0.0000    
            lambdas:    1.0000      1.0000    
-------------------------------------------------------------------------------
L=0  Nkbl=1  erefs: 0.17977+309
L=1  Nkbl=1  erefs: 0.17977+309
L=2  Nkbl=1  erefs: 0.17977+309
L=3  Nkbl=1  erefs: 0.17977+309
===============================================================================
</basis_specs>

atom: Called for N                     (Z =   7)

read_vps: Pseudopotential generation method:
read_vps: ATM4.2.7  Troullier-Martins                       
Valence charge for ps generation:    5.00000

xc_check: Exchange-correlation functional:
xc_check: GGA Perdew, Burke & Ernzerhof 1996
V l=0 = -2*Zval/r beyond r=  1.2889
V l=1 = -2*Zval/r beyond r=  1.2889
V l=2 = -2*Zval/r beyond r=  3.4178
V l=3 = -2*Zval/r beyond r=  2.4084
All V_l potentials equal beyond r=  3.3753
This should be close to max(r_c) in ps generation
All pots = -2*Zval/r beyond r=  3.4178

VLOCAL1: 99.0% of the norm of Vloc inside      3.810 Ry
VLOCAL1: 99.9% of the norm of Vloc inside      8.683 Ry
atom: Maximum radius for 4*pi*r*r*local-pseudopot. charge    4.02088
atom: Maximum radius for r*vlocal+2*Zval:    3.54838
GHOST: No ghost state for L =  0
GHOST: No ghost state for L =  1
GHOST: No ghost state for L =  2
GHOST: No ghost state for L =  3

KBgen: Kleinman-Bylander projectors: 
   l= 0   rc=  3.417763   el= -1.365098   Ekb= -4.433130   kbcos= -0.707855
   l= 1   rc=  3.375302   el= -0.521201   Ekb=-13.264039   kbcos= -0.535594
   l= 2   rc=  3.872880   el=  0.001991   Ekb= -0.641094   kbcos= -0.062456
   l= 3   rc=  3.970931   el=  0.003093   Ekb= -0.474517   kbcos= -0.018236

KBgen: Total number of Kleinman-Bylander projectors:   16
atom: -------------------------------------------------------------------------

atom: SANKEY-TYPE ORBITALS:
atom: Selected multiple-zeta basis: split     

SPLIT: Orbitals with angular momentum L= 0

SPLIT: Basis orbitals for state 2s

SPLIT: PAO cut-off radius determined from an
SPLIT: energy shift=  0.002000 Ry

   izeta = 1
                 lambda =    1.000000
                     rc =    4.730425
                 energy =   -1.363399
                kinetic =    1.245246
    potential(screened) =   -2.608645
       potential(ionic) =   -8.121105

   izeta = 2
                 rmatch =    2.531849
              splitnorm =    0.280000
                 energy =   -0.959908
                kinetic =    2.409435
    potential(screened) =   -3.369343
       potential(ionic) =   -9.427975

SPLIT: Orbitals with angular momentum L= 1

SPLIT: Basis orbitals for state 2p

SPLIT: PAO cut-off radius determined from an
SPLIT: energy shift=  0.002000 Ry

   izeta = 1
                 lambda =    1.000000
                     rc =    5.924108
                 energy =   -0.519262
                kinetic =    3.672940
    potential(screened) =   -4.192202
       potential(ionic) =   -9.518354

   izeta = 2
                 rmatch =    2.531849
              splitnorm =    0.280000
                 energy =   -0.104258
                kinetic =    6.807538
    potential(screened) =   -6.911796
       potential(ionic) =  -13.149920

POLgen: Perturbative polarization orbital with L=  2

POLgen: Polarization orbital for state 2p

   izeta = 1
                     rc =    5.924108
                 energy =    1.427508
                kinetic =    2.872379
    potential(screened) =   -1.444871
       potential(ionic) =   -5.563644
atom: Total number of Sankey-type orbitals: 13

atm_pop: Valence configuration (for local Pseudopot. screening):
 2s( 2.00)                                                            
 2p( 3.00)                                                            
Vna: chval, zval:    5.00000   5.00000

Vna:  Cut-off radius for the neutral-atom potential:   5.924108

atom: _________________________________________________________________________

<basis_specs>
===============================================================================
Si                   Z=  14    Mass=  28.090        Charge= 0.17977+309
Lmxo=1 Lmxkb= 3    BasisType=split      Semic=F
L=0  Nsemic=0  Cnfigmx=3
          i=1  nzeta=2  polorb=0  (3s)
            splnorm:   0.28000    
               vcte:    0.0000    
               rinn:    0.0000    
               qcoe:    0.0000    
               qyuk:    0.0000    
               qwid:   0.10000E-01
                rcs:    0.0000      0.0000    
            lambdas:    1.0000      1.0000    
L=1  Nsemic=0  Cnfigmx=3
          i=1  nzeta=2  polorb=1  (3p)
            splnorm:   0.28000    
               vcte:    0.0000    
               rinn:    0.0000    
               qcoe:    0.0000    
               qyuk:    0.0000    
               qwid:   0.10000E-01
                rcs:    0.0000      0.0000    
            lambdas:    1.0000      1.0000    
-------------------------------------------------------------------------------
L=0  Nkbl=1  erefs: 0.17977+309
L=1  Nkbl=1  erefs: 0.17977+309
L=2  Nkbl=1  erefs: 0.17977+309
L=3  Nkbl=1  erefs: 0.17977+309
===============================================================================
</basis_specs>

atom: Called for Si                    (Z =  14)

read_vps: Pseudopotential generation method:
read_vps: ATM4.2.7  Troullier-Martins                       
Valence charge for ps generation:    4.00000

xc_check: Exchange-correlation functional:
xc_check: GGA Perdew, Burke & Ernzerhof 1996
V l=0 = -2*Zval/r beyond r=  2.7826
V l=1 = -2*Zval/r beyond r=  2.7826
V l=2 = -2*Zval/r beyond r=  2.9253
V l=3 = -2*Zval/r beyond r=  2.7826
All V_l potentials equal beyond r=  2.8530
This should be close to max(r_c) in ps generation
All pots = -2*Zval/r beyond r=  2.9253

VLOCAL1: 99.0% of the norm of Vloc inside      5.333 Ry
VLOCAL1: 99.9% of the norm of Vloc inside     12.154 Ry
atom: Maximum radius for 4*pi*r*r*local-pseudopot. charge    3.39869
atom: Maximum radius for r*vlocal+2*Zval:    2.96205
GHOST: No ghost state for L =  0
GHOST: No ghost state for L =  1
GHOST: No ghost state for L =  2
GHOST: No ghost state for L =  3

KBgen: Kleinman-Bylander projectors: 
   l= 0   rc=  3.075247   el= -0.794092   Ekb=  5.879390   kbcos=  0.167461
   l= 1   rc=  3.153101   el= -0.300068   Ekb=  2.642817   kbcos=  0.058301
   l= 2   rc=  3.273594   el=  0.001958   Ekb= -1.185135   kbcos= -0.104411
   l= 3   rc=  3.232927   el=  0.003046   Ekb= -0.497174   kbcos= -0.015889

KBgen: Total number of Kleinman-Bylander projectors:   16
atom: -------------------------------------------------------------------------

atom: SANKEY-TYPE ORBITALS:
atom: Selected multiple-zeta basis: split     

SPLIT: Orbitals with angular momentum L= 0

SPLIT: Basis orbitals for state 3s

SPLIT: PAO cut-off radius determined from an
SPLIT: energy shift=  0.002000 Ry

   izeta = 1
                 lambda =    1.000000
                     rc =    6.429618
                 energy =   -0.792283
                kinetic =    0.525293
    potential(screened) =   -1.317576
       potential(ionic) =   -3.744923

   izeta = 2
                 rmatch =    3.998416
              splitnorm =    0.280000
                 energy =   -0.583081
                kinetic =    1.069570
    potential(screened) =   -1.652651
       potential(ionic) =   -4.235185

SPLIT: Orbitals with angular momentum L= 1

SPLIT: Basis orbitals for state 3p

SPLIT: PAO cut-off radius determined from an
SPLIT: energy shift=  0.002000 Ry

   izeta = 1
                 lambda =    1.000000
                     rc =    8.464845
                 energy =   -0.298236
                kinetic =    0.785360
    potential(screened) =   -1.083596
       potential(ionic) =   -3.273779

   izeta = 2
                 rmatch =    4.587816
              splitnorm =    0.280000
                 energy =   -0.131871
                kinetic =    1.403687
    potential(screened) =   -1.535557
       potential(ionic) =   -4.015310

POLgen: Perturbative polarization orbital with L=  2

POLgen: Polarization orbital for state 3p

   izeta = 1
                     rc =    8.464845
                 energy =    0.321949
                kinetic =    1.055677
    potential(screened) =   -0.733728
       potential(ionic) =   -2.672950
atom: Total number of Sankey-type orbitals: 13

atm_pop: Valence configuration (for local Pseudopot. screening):
 3s( 2.00)                                                            
 3p( 2.00)                                                            
Vna: chval, zval:    4.00000   4.00000

Vna:  Cut-off radius for the neutral-atom potential:   8.464845

atom: _________________________________________________________________________

<basis_specs>
===============================================================================
O                    Z=   8    Mass=  16.000        Charge= 0.17977+309
Lmxo=1 Lmxkb= 3    BasisType=split      Semic=F
L=0  Nsemic=0  Cnfigmx=2
          i=1  nzeta=2  polorb=0  (2s)
            splnorm:   0.28000    
               vcte:    0.0000    
               rinn:    0.0000    
               qcoe:    0.0000    
               qyuk:    0.0000    
               qwid:   0.10000E-01
                rcs:    0.0000      0.0000    
            lambdas:    1.0000      1.0000    
L=1  Nsemic=0  Cnfigmx=2
          i=1  nzeta=2  polorb=1  (2p)
            splnorm:   0.28000    
               vcte:    0.0000    
               rinn:    0.0000    
               qcoe:    0.0000    
               qyuk:    0.0000    
               qwid:   0.10000E-01
                rcs:    0.0000      0.0000    
            lambdas:    1.0000      1.0000    
-------------------------------------------------------------------------------
L=0  Nkbl=1  erefs: 0.17977+309
L=1  Nkbl=1  erefs: 0.17977+309
L=2  Nkbl=1  erefs: 0.17977+309
L=3  Nkbl=1  erefs: 0.17977+309
===============================================================================
</basis_specs>

atom: Called for O                     (Z =   8)

read_vps: Pseudopotential generation method:
read_vps: ATM4.2.7  Troullier-Martins                       
Valence charge for ps generation:    6.00000

xc_check: Exchange-correlation functional:
xc_check: GGA Perdew, Burke & Ernzerhof 1996
V l=0 = -2*Zval/r beyond r=  1.1000
V l=1 = -2*Zval/r beyond r=  1.1000
V l=2 = -2*Zval/r beyond r=  2.2154
V l=3 = -2*Zval/r beyond r=  1.1000
All V_l potentials equal beyond r=  2.2154
This should be close to max(r_c) in ps generation
All pots = -2*Zval/r beyond r=  2.2154

VLOCAL1: 99.0% of the norm of Vloc inside      8.845 Ry
VLOCAL1: 99.9% of the norm of Vloc inside     20.157 Ry
atom: Maximum radius for 4*pi*r*r*local-pseudopot. charge    2.67231
atom: Maximum radius for r*vlocal+2*Zval:    2.32897
GHOST: No ghost state for L =  0
GHOST: No ghost state for L =  1
GHOST: No ghost state for L =  2
GHOST: No ghost state for L =  3

KBgen: Kleinman-Bylander projectors: 
   l= 0   rc=  2.243238   el= -1.759686   Ekb=**********   kbcos= -0.171774
   l= 1   rc=  2.328968   el= -0.663873   Ekb=-14.506792   kbcos= -0.519897
   l= 2   rc=  2.573941   el=  0.002031   Ekb= -1.137373   kbcos= -0.019581
   l= 3   rc=  2.606321   el=  0.003153   Ekb= -1.013546   kbcos= -0.003122

KBgen: Total number of Kleinman-Bylander projectors:   16
atom: -------------------------------------------------------------------------

atom: SANKEY-TYPE ORBITALS:
atom: Selected multiple-zeta basis: split     

SPLIT: Orbitals with angular momentum L= 0

SPLIT: Basis orbitals for state 2s

SPLIT: PAO cut-off radius determined from an
SPLIT: energy shift=  0.002000 Ry

   izeta = 1
                 lambda =    1.000000
                     rc =    4.243912
                 energy =   -1.758270
                kinetic =    3.286084
    potential(screened) =   -5.044353
       potential(ionic) =  -12.921184

   izeta = 2
                 rmatch =    2.187845
              splitnorm =    0.280000
                 energy =   -0.885018
                kinetic =    8.134434
    potential(screened) =   -9.019452
       potential(ionic) =  -17.710645

SPLIT: Orbitals with angular momentum L= 1

SPLIT: Basis orbitals for state 2p

SPLIT: PAO cut-off radius determined from an
SPLIT: energy shift=  0.002000 Ry

   izeta = 1
                 lambda =    1.000000
                     rc =    5.314825
                 energy =   -0.661986
                kinetic =    4.917472
    potential(screened) =   -5.579458
       potential(ionic) =  -13.236259

   izeta = 2
                 rmatch =    2.160663
              splitnorm =    0.280000
                 energy =   -0.068760
                kinetic =    9.183374
    potential(screened) =   -9.252135
       potential(ionic) =  -18.274251

POLgen: Perturbative polarization orbital with L=  2

POLgen: Polarization orbital for state 2p

   izeta = 1
                     rc =    5.314825
                 energy =    1.970580
                kinetic =    3.886128
    potential(screened) =   -1.915547
       potential(ionic) =   -7.749584
atom: Total number of Sankey-type orbitals: 13

atm_pop: Valence configuration (for local Pseudopot. screening):
 2s( 2.00)                                                            
 2p( 4.00)                                                            
Vna: chval, zval:    6.00000   6.00000

Vna:  Cut-off radius for the neutral-atom potential:   5.314825

atom: _________________________________________________________________________

prinput: Basis input ----------------------------------------------------------

PAO.BasisType split     

%block ChemicalSpeciesLabel
    1    1 H                       # Species index, atomic number, species label
    2    7 N                       # Species index, atomic number, species label
    3   14 Si                      # Species index, atomic number, species label
    4    8 O                       # Species index, atomic number, species label
%endblock ChemicalSpeciesLabel

%block PAO.Basis                 # Define Basis set
H                     1                    # Species label, number of l-shells
 n=1   0   2 P   1                   # n, l, Nzeta, Polarization, NzetaPol
   6.518      2.141   
   1.000      1.000   
N                     2                    # Species label, number of l-shells
 n=2   0   2                         # n, l, Nzeta 
   4.730      2.532   
   1.000      1.000   
 n=2   1   2 P   1                   # n, l, Nzeta, Polarization, NzetaPol
   5.924      2.532   
   1.000      1.000   
Si                    2                    # Species label, number of l-shells
 n=3   0   2                         # n, l, Nzeta 
   6.430      3.998   
   1.000      1.000   
 n=3   1   2 P   1                   # n, l, Nzeta, Polarization, NzetaPol
   8.465      4.588   
   1.000      1.000   
O                     2                    # Species label, number of l-shells
 n=2   0   2                         # n, l, Nzeta 
   4.244      2.188   
   1.000      1.000   
 n=2   1   2 P   1                   # n, l, Nzeta, Polarization, NzetaPol
   5.315      2.161   
   1.000      1.000   
%endblock PAO.Basis

prinput: ----------------------------------------------------------------------

Dumping basis to NetCDF file H.ion.nc
Dumping basis to NetCDF file N.ion.nc
Dumping basis to NetCDF file Si.ion.nc
Dumping basis to NetCDF file O.ion.nc
coor:   Atomic-coordinates input format  =     Cartesian coordinates
coor:                                          (in Angstroms)

siesta: Atomic coordinates (Bohr) and species
siesta:      4.31792  -9.81768   0.00000  1        1
siesta:      2.59711  -8.81503   0.00000  2        2
siesta:     -0.41253 -10.38326   0.00000  3        3
siesta:     -0.33040 -13.20006   0.00000  1        4
siesta:     -3.14019  -8.66630   0.00000  2        5
siesta:     -2.06030  -5.43214   0.00000  3        6
siesta:     -2.89201  -1.33728   0.00000  3        7
siesta:     -5.94160  -0.17360   0.00000  2        8
siesta:     -6.43014   1.81127   0.00000  1        9
siesta:     -7.46581  -1.44982   0.00000  1       10
siesta:     -0.33706   0.78140   0.00000  2       11
siesta:      2.82552  -0.08957   0.00000  3       12
siesta:      4.64124   2.09244   0.00000  1       13
siesta:      4.35491  -2.99662   0.00000  2       14
siesta:      2.09241  -5.37836   0.00000  3       15
siesta:     -0.06039  22.42367   0.00000  1       16
siesta:     -1.58864  21.11559   0.00000  2       17
siesta:     -4.71914  22.46319   0.00000  3       18
siesta:     -4.53609  25.31805   0.00000  1       19
siesta:     -7.98110  19.92519   0.00000  3       20
siesta:    -12.43038  19.91010   0.00000  3       21
siesta:    -13.49319  21.29809  -2.27113  1       22
siesta:    -12.99694  17.11502  -0.16286  1       23
siesta:    -13.49341  20.97748   2.43425  1       24
siesta:     -6.22481  16.01238   0.00000  3       25
siesta:     -8.01904  13.57740   0.00000  4       26
siesta:     -2.84041  15.68407   0.00000  2       27
siesta:     -2.21493  13.73319   0.00000  1       28
siesta:     -0.36778  17.94143   0.00000  3       29
siesta:      2.59141  17.43641   0.00000  4       30

siesta: Automatic unit cell vectors (Ang):
siesta:   18.735063    0.000000    0.000000
siesta:    0.000000   30.009769    0.000000
siesta:    0.000000    0.000000   10.327559

siesta: System type = molecule  

initatomlists: Number of atoms, orbitals, and projectors:     30   302   403

siesta: ******************** Simulation parameters ****************************
siesta:
siesta: The following are some of the parameters of the simulation.
siesta: A complete list of the parameters used, including default values,
siesta: can be found in file out.fdf
siesta:
redata: Spin configuration                          = spin-orbit
redata: Number of spin components                   = 8
redata: Time-Reversal Symmetry                      = F
redata: Spin spiral                                 = F
############################################################
This spin-orbit implementation uses a local approximation.
From 4.2 and onwards the full non-local approximation is implemented
You are strongly advised to use >=4.2 versions!
############################################################
redata: Long output                                 =   F
redata: Number of Atomic Species                    =        4
redata: Charge density info will appear in .RHO file
redata: Write Mulliken Pop.                         = NO
redata: Matel table size (NRTAB)                    =     1024
redata: Mesh Cutoff                                 =   340.0000 Ry
redata: Net charge of the system                    =     0.0000 |e|
redata: Min. number of SCF Iter                     =        1
redata: Max. number of SCF Iter                     =      300
redata: SCF convergence failure will abort job
redata: SCF mix quantity                            = Hamiltonian
redata: Mix DM or H after convergence               =   F
redata: Recompute H after scf cycle                 =   F
redata: Mix DM in first SCF step                    =   T
redata: Write Pulay info on disk                    =   F
redata: New DM Occupancy tolerance                  = 0.000000000001
redata: No kicks to SCF
redata: DM Mixing Weight for Kicks                  =     0.5000
redata: Require Harris convergence for SCF          =   F
redata: Harris energy tolerance for SCF             =     0.000100 eV
redata: Require DM convergence for SCF              =   T
redata: DM tolerance for SCF                        =     0.000008
redata: Require EDM convergence for SCF             =   F
redata: EDM tolerance for SCF                       =     0.001000 eV
redata: Require H convergence for SCF               =   T
redata: Hamiltonian tolerance for SCF               =     0.000001 eV
redata: Require (free) Energy convergence for SCF   =   F
redata: (free) Energy tolerance for SCF             =     0.000100 eV
redata: Using Saved Data (generic)                  =   F
redata: Use continuation files for DM               =   T
redata: Neglect nonoverlap interactions             =   F
redata: Method of Calculation                       = Diagonalization
redata: Electronic Temperature                      =   299.9978 K
redata: Fix the spin of the system                  =   F
redata: Dynamics option                             = Verlet MD run
redata: Initial MD time step                        =        1
redata:   Final MD time step                        =        1
redata: Length of MD time step                      =     0.5000 fs
redata: Initial Temperature of MD run               =     0.0000 K
redata: Perform a MD quench                         =   F
mix.SCF: Pulay mixing                            = Pulay
mix.SCF:    Variant                              = stable
mix.SCF:    History steps                        = 6
mix.SCF:    Linear mixing weight                 =     0.250000
mix.SCF:    Mixing weight                        =     0.250000
mix.SCF:    SVD condition                        = 0.1000E-07
mix.SCF:    Restart steps                        = 24
mix.SCF:    Restart save steps                   = 3
mix.SCF: Spin-component mixing                   all
redata: Save all siesta data in one NC              =   F
redata: ***********************************************************************

%block SCF.Mixers
  Pulay
%endblock SCF.Mixers

%block SCF.Mixer.Pulay
  # Mixing method
  method pulay
  variant stable

  # Mixing options
  weight 0.2500
  weight.linear 0.2500
  history 6
  restart 24
  restart.save 3
%endblock SCF.Mixer.Pulay

Size of DM history Fstack: 3
Total number of electrons:    98.000000
Total ionic charge:    98.000000

* ProcessorY, Blocksize:    4   9


* Orbital distribution balance (max,min):    18     9


Time-reversal symmetry not used.

siesta: k-grid: Number of k-points =     1
siesta: k-grid: Cutoff (effective) =     5.164 Ang
siesta: k-grid: Supercell and displacements
siesta: k-grid:    1   0   0      0.000
siesta: k-grid:    0   1   0      0.000
siesta: k-grid:    0   0   1      0.000

diag: Algorithm                                     = ELPA-1stage
diag: Parallel over k                               =   F
diag: Use parallel 2D distribution                  =   T
diag: Parallel block-size                           = 9
diag: Parallel distribution                         =     4 x     8
diag: Used triangular part                          = Lower
diag: Absolute tolerance                            =  0.100E-15
diag: Orthogonalization factor                      =  0.100E-05
diag: Memory factor                                 =  1.0000


ts: **************************************************************
ts: Save H and S matrices                           =    F
ts: Save DM and EDM matrices                        =    F
ts: Only save the overlap matrix S                  =    F
ts: **************************************************************

************************ Begin: TS CHECKS AND WARNINGS ************************
************************ End: TS CHECKS AND WARNINGS **************************


                     ====================================
                        Begin MD step =      1
                     ====================================

outcoor: Atomic coordinates (Ang):                          
    2.28494382   -5.19529124    0.00000000   1       1  H
    1.37433094   -4.66471070    0.00000000   2       2  N
   -0.21830245   -5.49458215    0.00000000   3       3  Si
   -0.17484108   -6.98516892    0.00000000   1       4  H
   -1.66171682   -4.58600741    0.00000000   2       5  N
   -1.09026419   -2.87456374    0.00000000   3       6  Si
   -1.53038332   -0.70765692    0.00000000   3       7  Si
   -3.14415959   -0.09186471    0.00000000   2       8  N
   -3.40268075    0.95848335    0.00000000   1       9  H
   -3.95073599   -0.76720972    0.00000000   1      10  H
   -0.17836637    0.41349951    0.00000000   2      11  N
    1.49520211   -0.04739960    0.00000000   3      12  Si
    2.45603905    1.10727302    0.00000000   1      13  H
    2.30451743   -1.58574382    0.00000000   2      14  N
    1.10725559   -2.84610319    0.00000000   3      15  Si
   -0.03195901   11.86608832    0.00000000   1      16  H
   -0.84066969   11.17388244    0.00000000   2      17  N
   -2.49725953   11.88700254    0.00000000   3      18  Si
   -2.40039436   13.39772775    0.00000000   1      19  H
   -4.22341588   10.54395441    0.00000000   3      20  Si
   -6.57787013   10.53596748    0.00000000   3      21  Si
   -7.14028825   11.27045713   -1.20183078   1      22  H
   -6.87768388    9.05687635   -0.08618332   1      23  H
   -7.14040071   11.10079994    1.28814761   1      24  H
   -3.29402524    8.47338318    0.00000000   3      25  Si
   -4.24349360    7.18484705    0.00000000   4      26  O
   -1.50308037    8.29964771    0.00000000   2      27  N
   -1.17208901    7.26729073    0.00000000   1      28  H
   -0.19462215    9.49419413    0.00000000   3      29  Si
    1.37131478    9.22694728    0.00000000   4      30  O

outcell: Unit cell vectors (Ang):
       18.735063    0.000000    0.000000
        0.000000   30.009769    0.000000
        0.000000    0.000000   10.327559

outcell: Cell vector modules (Ang)   :   18.735063   30.009769   10.327559
outcell: Cell angles (23,13,12) (deg):     90.0000     90.0000     90.0000
outcell: Cell volume (Ang**3)        :   5806.5142
<dSpData1D:S at geom step 1
  <sparsity:sparsity for geom step 1
    nrows_g=302 nrows=18 sparsity=.0275 nnzs=2511, refcount: 8>
  <dData1D:(new from dSpData1D) n=2511, refcount: 1>
refcount: 1>
new_DM -- step:     1
Initializing Density Matrix...

Attempting to read DM from file... Failed...
DM filled with atomic data:
<dSpData2D:DM initialized from atoms
  <sparsity:sparsity for geom step 1
    nrows_g=302 nrows=18 sparsity=.0275 nnzs=2511, refcount: 9>
  <dData2D:DM n=2511 m=8, refcount: 1>
refcount: 1>
     spin moment: S , {S} =   56.00000   0.00000   0.00000  56.00000
No. of atoms with KB's overlaping orbs in proc 0. Max # of overlaps:      20     134

Initializing spin-orbit part of the Hamiltonian
  Adding spin-orbit effects for H 
  Adding spin-orbit effects for N 
  Adding spin-orbit effects for Si
  Adding spin-orbit effects for O 


New grid distribution:   1
           1       1:  108    1:   45    1:    8
           2       1:  108    1:   45    9:   16
           3       1:  108    1:   45   17:   24
           4       1:  108    1:   45   25:   32
           5       1:  108    1:   45   33:   39
           6       1:  108    1:   45   40:   46
           7       1:  108    1:   45   47:   53
           8       1:  108    1:   45   54:   60
           9       1:  108   46:   90    1:    8
          10       1:  108   46:   90    9:   16
          11       1:  108   46:   90   17:   24
          12       1:  108   46:   90   25:   32
          13       1:  108   46:   90   33:   39
          14       1:  108   46:   90   40:   46
          15       1:  108   46:   90   47:   53
          16       1:  108   46:   90   54:   60
          17       1:  108   91:  135    1:    8
          18       1:  108   91:  135    9:   16
          19       1:  108   91:  135   17:   24
          20       1:  108   91:  135   25:   32
          21       1:  108   91:  135   33:   39
          22       1:  108   91:  135   40:   46
          23       1:  108   91:  135   47:   53
          24       1:  108   91:  135   54:   60
          25       1:  108  136:  180    1:    8
          26       1:  108  136:  180    9:   16
          27       1:  108  136:  180   17:   24
          28       1:  108  136:  180   25:   32
          29       1:  108  136:  180   33:   39
          30       1:  108  136:  180   40:   46
          31       1:  108  136:  180   47:   53
          32       1:  108  136:  180   54:   60

InitMesh: MESH =   216 x   360 x   120 =     9331200
InitMesh: (bp) =   108 x   180 x    60 =     1166400
InitMesh: Mesh cutoff (required, used) =   340.000   367.366 Ry
ExtMesh (bp) on 0 =   212 x   153 x   116 =     3762576
New grid distribution:   2
           1      60:   87    1:   55    1:   19
           2      88:   98    1:   54    1:   19
           3      98:  108   55:   73    1:   21
           4       1:   60    1:   55   20:   60
           5      61:   87    1:   55   20:   60
           6      10:   80  162:  180    1:   20
           7      99:  108    1:   54    1:   19
           8      88:   97   55:   73    1:   21
           9       1:   59    1:   55    1:   19
          10       1:   72   56:   73    1:   22
          11      73:   87   56:   73    1:   22
          12      73:   87   56:   73   23:   60
          13       1:   72   56:   73   23:   60
          14      88:   98    1:   54   20:   60
          15      98:  108   55:   73   22:   60
          16      88:   97   55:   73   22:   60
          17      81:   99   74:  160    1:   20
          18       1:    9   74:  161    1:   20
          19     100:  108  161:  180    1:   20
          20      10:   80   74:  161   21:   60
          21      81:   99   74:  160   21:   60
          22       1:    9   74:  161   21:   60
          23      81:   99  161:  180    1:   20
          24       1:    9  162:  180    1:   20
          25      10:   80   74:  161    1:   20
          26     100:  108   74:  160    1:   20
          27       1:    9  162:  180   21:   60
          28     100:  108   74:  160   21:   60
          29      10:   80  162:  180   21:   60
          30      99:  108    1:   54   20:   60
          31      81:   99  161:  180   21:   60
          32     100:  108  161:  180   21:   60
New grid distribution:   3
           1       1:   50   49:   71    1:   25
           2      74:   92    1:   42    1:   23
           3      93:  108    1:   42    1:   23
           4      16:   73    1:   48   25:   60
           5      16:   73    1:   48    1:   24
           6      74:   92    1:   42   24:   60
           7      91:  108   43:   71   27:   60
           8      51:   73   49:   71    1:   25
           9      17:   76   72:  147    1:   25
          10       1:   15  148:  180   26:   60
          11      91:  108   43:   71    1:   26
          12       1:   50   49:   71   26:   60
          13      17:   76  148:  180    1:   25
          14       1:   15    1:   48   25:   60
          15      51:   73   49:   71   26:   60
          16      74:   90   43:   71   27:   60
          17      77:   95   72:  143    1:   24
          18      96:  108   72:  143    1:   24
          19       1:   16  148:  180    1:   25
          20      17:   76   72:  147   26:   60
          21      77:   95   72:  143   25:   60
          22      96:  108   72:  143   25:   60
          23       1:   15    1:   48    1:   24
          24      95:  108  144:  180    1:   25
          25       1:   16   72:  147    1:   25
          26      96:  108  144:  180   26:   60
          27      77:   94  144:  180    1:   25
          28      16:   76  148:  180   26:   60
          29       1:   16   72:  147   26:   60
          30      93:  108    1:   42   24:   60
          31      77:   95  144:  180   26:   60
          32      74:   90   43:   71    1:   26
Setting up quadratic distribution...
ExtMesh (bp) on 0 =   132 x   163 x   127 =     2732532
PhiOnMesh: Number of (b)points on node 0 =                29260
PhiOnMesh: nlist on node 0 =               411658

stepf: Fermi-Dirac step function

siesta: Program's energy decomposition (eV):
siesta: Ebs     =      -651.123452
siesta: Eions   =      3553.971015
siesta: Ena     =       374.984508
siesta: Ekin    =      3171.479339
siesta: Enl     =     -2984.838927
siesta: Eso     =        -0.003884
siesta: Edftu   =         0.000000
siesta: DEna    =       129.711509
siesta: DUscf   =        75.747169
siesta: DUext   =         0.000000
siesta: Exc     =     -1168.753809
siesta: eta*DQ  =         0.000000
siesta: Emadel  =         0.000000
siesta: Emeta   =         0.000000
siesta: Emolmec =         0.000000
siesta: Ekinion =         0.000000
siesta: Eharris =     -3884.429117
siesta: Etot    =     -3955.645110
siesta: FreeEng =     -3955.648442

        iscf     Eharris(eV)        E_KS(eV)     FreeEng(eV)     dDmax    Ef(eV) dHmax(eV)
   scf:    1    -3884.429117    -3955.645110    -3955.648442  0.970499 -4.935475 21.541036
     spin moment: S , {S} =    2.02370  -0.00000  -0.00000   2.02370
timer: Routine,Calls,Time,% = IterSCF        1       4.781  10.61
   scf:    2    -3996.362854    -3988.765435    -3988.765452  0.466747 -4.314850 12.111858
     spin moment: S , {S} =    2.00005   0.00000  -0.00000   2.00005
   scf:    3    -3959.509972    -3985.885164    -3985.909635  0.418366 -4.234194 11.506259
     spin moment: S , {S} =    1.98137  -0.00000  -0.00001   1.98137
   scf:    4    -4002.235684    -3997.347571    -3997.347572  0.246032 -3.932403  6.312497
     spin moment: S , {S} =    0.00010  -0.00000   0.00000   0.00010
   scf:    5    -3998.708225    -3998.110811    -3998.110811  0.038976 -3.841687  3.898477
     spin moment: S , {S} =    0.00006  -0.00000   0.00000   0.00006
   scf:    6    -3998.881997    -3998.500160    -3998.500160  0.025442 -3.830465  1.925493
     spin moment: S , {S} =    0.00003  -0.00000   0.00000   0.00003
   scf:    7    -3998.898235    -3998.692298    -3998.692298  0.023145 -3.851095  0.744662
     spin moment: S , {S} =    0.00001  -0.00000   0.00000   0.00001
   scf:    8    -3998.823851    -3998.755387    -3998.755387  0.012588 -3.915613  0.456683
     spin moment: S , {S} =    0.00000  -0.00000   0.00000   0.00000
   scf:    9    -3998.804369    -3998.778743    -3998.778743  0.007102 -3.934596  0.366622
     spin moment: S , {S} =    0.00000  -0.00000   0.00000   0.00000
   scf:   10    -3998.837848    -3998.799329    -3998.799329  0.023230 -3.963651  0.200235
     spin moment: S , {S} =    0.00000  -0.00000  -0.00000  -0.00000
   scf:   11    -3998.803943    -3998.801780    -3998.801780  0.004359 -3.949788  0.070044
     spin moment: S , {S} =    0.00000  -0.00000  -0.00000  -0.00000
   scf:   12    -3998.802497    -3998.802164    -3998.802165  0.001414 -3.947475  0.041757
     spin moment: S , {S} =    0.00000  -0.00000  -0.00000  -0.00000
   scf:   13    -3998.802802    -3998.802480    -3998.802480  0.000785 -3.945743  0.022019
     spin moment: S , {S} =    0.00000  -0.00000  -0.00000  -0.00000
   scf:   14    -3998.802824    -3998.802646    -3998.802646  0.000770 -3.944809  0.013349
     spin moment: S , {S} =    0.00000  -0.00000  -0.00000  -0.00000
   scf:   15    -3998.802778    -3998.802708    -3998.802709  0.000570 -3.944553  0.007958
     spin moment: S , {S} =    0.00000  -0.00000  -0.00000  -0.00000
   scf:   16    -3998.802776    -3998.802739    -3998.802739  0.000522 -3.944530  0.003420
     spin moment: S , {S} =    0.00000   0.00000  -0.00000  -0.00000
   scf:   17    -3998.802752    -3998.802745    -3998.802745  0.000226 -3.944622  0.002743
     spin moment: S , {S} =    0.00000   0.00000  -0.00000   0.00000
   scf:   18    -3998.802750    -3998.802747    -3998.802747  0.000166 -3.944689  0.001842
     spin moment: S , {S} =    0.00000   0.00000  -0.00000   0.00000
   scf:   19    -3998.802750    -3998.802748    -3998.802748  0.000146 -3.944700  0.001236
     spin moment: S , {S} =    0.00000   0.00000  -0.00000   0.00000
   scf:   20    -3998.802749    -3998.802749    -3998.802749  0.000067 -3.944718  0.000864
     spin moment: S , {S} =    0.00000   0.00000   0.00000   0.00000
   scf:   21    -3998.802749    -3998.802749    -3998.802749  0.000059 -3.944737  0.000576
     spin moment: S , {S} =    0.00000   0.00000   0.00000   0.00000
   scf:   22    -3998.802749    -3998.802749    -3998.802749  0.000060 -3.944745  0.000284
     spin moment: S , {S} =    0.00000   0.00000   0.00000   0.00000
   scf:   23    -3998.802749    -3998.802749    -3998.802749  0.000028 -3.944760  0.000193
     spin moment: S , {S} =    0.00000   0.00000   0.00000   0.00000
   scf:   24    -3998.802749    -3998.802749    -3998.802749  0.000028 -3.944756  0.000084
     spin moment: S , {S} =    0.00000   0.00000   0.00000   0.00000
mix: Pulay -- resetting history
   scf:   25    -3998.802749    -3998.802749    -3998.802749  0.000018 -3.944743  0.000032
     spin moment: S , {S} =    0.00000   0.00000   0.00000   0.00000
   scf:   26    -3998.802749    -3998.802749    -3998.802749  0.000004 -3.944742  0.000024
     spin moment: S , {S} =    0.00000   0.00000   0.00000   0.00000
   scf:   27    -3998.802749    -3998.802749    -3998.802749  0.000002 -3.944739  0.000012
     spin moment: S , {S} =    0.00000   0.00000   0.00000   0.00000
   scf:   28    -3998.802749    -3998.802749    -3998.802749  0.000001 -3.944757  0.000008
     spin moment: S , {S} =    0.00000   0.00000   0.00000   0.00000
   scf:   29    -3998.802749    -3998.802749    -3998.802749  0.000000 -3.944756  0.000004
     spin moment: S , {S} =    0.00000   0.00000   0.00000   0.00000
   scf:   30    -3998.802749    -3998.802749    -3998.802749  0.000000 -3.944756  0.000002
     spin moment: S , {S} =    0.00000   0.00000   0.00000   0.00000
   scf:   31    -3998.802749    -3998.802749    -3998.802749  0.000000 -3.944756  0.000002
     spin moment: S , {S} =    0.00000   0.00000   0.00000   0.00000
   scf:   32    -3998.802749    -3998.802749    -3998.802749  0.000000 -3.944755  0.000002
     spin moment: S , {S} =    0.00000   0.00000   0.00000   0.00000
   scf:   33    -3998.802749    -3998.802749    -3998.802749  0.000000 -3.944755  0.000001
     spin moment: S , {S} =    0.00000   0.00000   0.00000   0.00000
   scf:   34    -3998.802749    -3998.802749    -3998.802749  0.000000 -3.944755  0.000001
     spin moment: S , {S} =    0.00000   0.00000   0.00000  -0.00000

SCF Convergence by DM+H criterion
max |DM_out - DM_in|         :     0.0000000930
max |H_out - H_in|      (eV) :     0.0000007759
SCF cycle converged after 34 iterations

Using DM_out to compute the final energy and forces
No. of atoms with KB's overlaping orbs in proc 0. Max # of overlaps:      20     134

siesta: E_KS(eV) =            -3998.8027

siesta: E_KS - E_eggbox =     -3998.8027
     spin moment: S , {S} =    0.00000   0.00000   0.00000  -0.00000

siesta: Atomic forces (eV/Ang):
     1    0.129618    0.031651   -0.000000
     2   -0.086376    0.035942    0.000000
     3   -0.029534   -0.008279   -0.000000
     4    0.063148   -0.209966   -0.000000
     5   -0.065334   -0.032484    0.000000
     6   -0.189974    0.018949   -0.000000
     7    1.060249   -0.019737   -0.000000
     8   -0.659116    1.408822   -0.000000
     9    0.221452   -1.061937   -0.000000
    10   -0.139013    0.164073    0.000000
    11   -0.220378   -0.447022    0.000000
    12   -0.280032    0.056936    0.000000
    13   -0.156979   -0.058669    0.000000
    14    0.033679   -0.132865   -0.000000
    15    0.109715    0.107179    0.000000
    16   -0.065419   -0.084564   -0.000946
    17    0.074179   -0.097117   -0.000809
    18   -0.172686    0.037859    0.005217
    19    0.037127   -0.084253   -0.001436
    20    0.128362    0.083634   -0.000940
    21    0.031150   -0.030942   -0.006968
    22    0.121701   -0.032498    0.101314
    23    0.059844    0.089968   -0.016713
    24    0.121123    0.016298   -0.079384
    25   -0.666142   -0.400117    0.001024
    26   -0.876365   -1.504678    0.000489
    27    0.378250   -0.440540   -0.000552
    28   -0.176348    0.711647   -0.000071
    29    0.111462    0.178850   -0.000229
    30    2.982544    1.552651    0.000263
----------------------------------------
   Tot    1.879904   -0.151210    0.000258
----------------------------------------
   Max    2.982544
   Res    0.486447    sqrt( Sum f_i^2 / 3N )
----------------------------------------
   Max    2.982544    constrained

Stress tensor Voigt[x,y,z,yz,xz,xy] (kbar):        0.15        0.66       -0.06       -0.02        0.00        0.29
(Free)E + p*V (eV/cell)    -3999.7103
Target enthalpy (eV/cell)    -3998.8027

siesta: Stress tensor (static) (eV/Ang**3):
         0.000091    0.000184    0.000001
         0.000184    0.000413   -0.000009
         0.000001   -0.000009   -0.000036

siesta: Pressure (static):         -0.25043022  kBar

siesta: Stress tensor (total) (eV/Ang**3):
         0.000091    0.000184    0.000001
         0.000184    0.000413   -0.000009
         0.000001   -0.000009   -0.000036

siesta: Pressure (total):         -0.25043022  kBar

siesta: Temp_ion =       0.000 K

siesta: Eigenvalues (eV):
ik =     1
  -22.9176  -22.9176  -22.3771  -22.3771  -21.7780  -21.7780  -21.3299  -21.3299  -21.1879  -21.1879
  -21.0858  -21.0858  -19.5507  -19.5507  -19.4020  -19.4020  -18.7618  -18.7618  -15.0475  -15.0475
  -14.1277  -14.1277  -13.8074  -13.8074  -13.6194  -13.6194  -13.1146  -13.1146  -13.0576  -13.0576
  -12.6939  -12.6939  -12.3075  -12.3075  -11.9453  -11.9453  -11.7618  -11.7618  -11.5356  -11.5356
  -11.1451  -11.1451  -10.6580  -10.6580  -10.3669  -10.3669   -9.5677   -9.5677   -9.3289   -9.3289
   -9.3121   -9.3121   -9.1154   -9.1154   -9.0710   -9.0710   -8.9594   -8.9594   -8.6420   -8.6420
   -8.4253   -8.4253   -8.3906   -8.3906   -8.2974   -8.2974   -8.0789   -8.0789   -8.0489   -8.0489
   -7.7426   -7.7426   -7.5447   -7.5447   -7.4588   -7.4588   -7.3183   -7.3183   -6.9936   -6.9936
   -6.9116   -6.9116   -6.7626   -6.7626   -6.5725   -6.5725   -6.3258   -6.3258   -6.2962   -6.2962
   -5.9553   -5.9553   -5.7314   -5.7314   -5.6981   -5.6981   -4.3731   -4.3731   -3.5164   -3.5164
   -2.7245   -2.7245   -2.3408   -2.3408   -2.2388   -2.2388   -2.1576   -2.1576   -2.1052   -2.1052
   -2.0113   -2.0113   -1.8617   -1.8617   -1.7449   -1.7449   -1.6640   -1.6640   -1.5632   -1.5632
   -1.1943   -1.1943   -0.7325   -0.7325   -0.4649   -0.4649   -0.3629   -0.3629   -0.1943   -0.1943
   -0.0254   -0.0254    0.0372    0.0372    0.2195    0.2195    0.4209    0.4209    0.4762    0.4762
    0.4818    0.4818    0.7131    0.7131    1.0604    1.0604    1.1211    1.1211    1.2420    1.2420
    1.4291    1.4291    1.5385    1.5385    1.7645    1.7645    1.9201    1.9201    2.0274    2.0274
    2.2869    2.2869    2.6597    2.6597    2.6863    2.6863    2.7222    2.7222    2.7791    2.7791
    2.9292    2.9292    2.9572    2.9572    3.1066    3.1066    3.2324    3.2324    3.2784    3.2784
    3.5181    3.5181    3.8791    3.8791    4.0555    4.0555    4.0674    4.0674    4.2066    4.2066
    4.3193    4.3193    4.5340    4.5340    4.5400    4.5400    4.7616    4.7616    4.9226    4.9226
    5.0376    5.0376    5.0697    5.0697    5.5423    5.5423    5.6097    5.6097    5.6670    5.6670
    5.7288    5.7288    6.0092    6.0092    6.0226    6.0226    6.1781    6.1781    6.1961    6.1961
    6.4778    6.4778    6.5571    6.5571    6.7936    6.7936    7.0129    7.0129    7.0632    7.0632
    7.1130    7.1130    7.3322    7.3322    7.4950    7.4950    7.8118    7.8118    7.8273    7.8273
    7.9513    7.9513    8.1045    8.1045    8.2210    8.2210    8.2311    8.2311    8.6481    8.6481
    8.7844    8.7844    8.8739    8.8739    8.9493    8.9493    9.1410    9.1410    9.5102    9.5102
    9.5794    9.5794    9.6972    9.6972    9.7687    9.7687    9.7714    9.7714    9.9084    9.9084
   10.1402   10.1402   10.3120   10.3120   10.6020   10.6020   10.8430   10.8430   10.9040   10.9040
   11.2598   11.2598   11.2729   11.2729   11.5244   11.5244   11.5554   11.5554   11.6112   11.6112
   11.8929   11.8929   12.1623   12.1623   12.2912   12.2912   12.3677   12.3677   12.6038   12.6038
   12.7859   12.7859   12.9152   12.9152   13.0110   13.0110   13.1318   13.1318   13.3202   13.3202
   13.3665   13.3665   13.5908   13.5908   14.4523   14.4523   14.5976   14.5976   14.6351   14.6351
   14.6685   14.6685   14.7902   14.7902   15.1368   15.1368   16.0787   16.0787   16.5465   16.5465
   16.6399   16.6399   16.7702   16.7702   16.9967   16.9967   17.1604   17.1604   17.2986   17.2986
   18.0796   18.0796   18.2225   18.2225   18.4399   18.4399   18.6919   18.6919   18.7186   18.7186
   18.7210   18.7210   19.5148   19.5148   19.7451   19.7451   19.9921   19.9921   20.2111   20.2111
   20.5762   20.5762   21.0542   21.0542   21.0892   21.0892   21.6886   21.6886   22.1654   22.1654
   22.2474   22.2474   22.8284   22.8284   22.8638   22.8638   23.0346   23.0346   23.8199   23.8199
   24.5692   24.5692   24.6976   24.6976   24.8013   24.8013   25.6608   25.6608   25.9336   25.9336
   25.9953   25.9953   26.4517   26.4517   26.5157   26.5157   27.7481   27.7481   28.0179   28.0179
   28.2772   28.2772   28.4511   28.4511   29.0939   29.0939   29.4632   29.4632   30.3263   30.3263
   30.6949   30.6949   30.7552   30.7552   30.7939   30.7939   31.2481   31.2481   31.5045   31.5045
   31.7319   31.7319   31.8938   31.8938   32.0426   32.0426   33.3379   33.3379   33.3500   33.3500
   33.6966   33.6966   34.0010   34.0010   34.4807   34.4807   34.7568   34.7568   34.8901   34.8901
   35.4567   35.4567   35.9718   35.9718   36.0085   36.0085   37.0333   37.0333   37.4524   37.4524
   37.5149   37.5149   37.6831   37.6831   38.0043   38.0043   38.4034   38.4034   38.4361   38.4361
   39.0881   39.0881   40.1072   40.1072   40.1502   40.1502   40.7269   40.7269   41.0754   41.0754
   41.5860   41.5860   41.7856   41.7856   41.8411   41.8411   43.2753   43.2753   43.3469   43.3469
   43.7700   43.7700   44.4473   44.4473   44.7826   44.7826   44.8453   44.8453   45.0342   45.0342
   45.4838   45.4838   45.7543   45.7543   45.8587   45.8587   46.4704   46.4704   46.8847   46.8847
   47.0659   47.0659   47.3923   47.3923   48.4965   48.4965   48.7733   48.7733   49.3724   49.3724
   49.6713   49.6713   50.1745   50.1745   50.1968   50.1968   50.3058   50.3059   50.3361   50.3361
   51.7097   51.7097   52.5275   52.5275   52.7008   52.7008   53.8263   53.8263   54.3218   54.3218
   54.7504   54.7504   54.8148   54.8148   55.9456   55.9456   56.0629   56.0629   56.1893   56.1893
   56.8069   56.8069   57.6289   57.6289   57.9572   57.9572   58.3678   58.3678   59.5433   59.5433
   59.9224   59.9224   61.0856   61.0856   61.5995   61.5995   62.8325   62.8325   63.2329   63.2329
   65.1451   65.1451   65.4353   65.4353   66.9361   66.9361   67.2568   67.2568   68.3133   68.3133
   68.3951   68.3951   70.5516   70.5516   71.8611   71.8611   76.4156   76.4156   88.6318   88.6318
   91.8501   91.8501   92.9310   92.9310   94.9657   94.9657   96.4221   96.4221  100.0450  100.0450
  100.6648  100.6648  102.4507  102.4507  114.1923  114.1923  118.3236  118.3236  123.1361  123.1361
  132.4391  132.4391  138.6814  138.6814
siesta: Fermi energy =      -3.944755 eV

siesta: Program's energy decomposition (eV):
siesta: Ebs     =     -1121.002179
siesta: Eions   =      3553.971015
siesta: Ena     =       374.984508
siesta: Ekin    =      2743.270254
siesta: Enl     =     -2522.883365
siesta: Eso     =        -0.004664
siesta: Edftu   =         0.000000
siesta: DEna    =        36.839041
siesta: DUscf   =        13.894024
siesta: DUext   =         0.000000
siesta: Exc     =     -1090.931532
siesta: eta*DQ  =         0.000000
siesta: Emadel  =         0.000000
siesta: Emeta   =         0.000000
siesta: Emolmec =         0.000000
siesta: Ekinion =         0.000000
siesta: Eharris =     -3998.802749
siesta: Etot    =     -3998.802749
siesta: FreeEng =     -3998.802749

siesta: Final energy (eV):
siesta:  Band Struct. =   -1121.002179
siesta:       Kinetic =    2743.270254
siesta:       Hartree =    7252.227521
siesta:       Edftu   =       0.000000
siesta:       Eso     =      -0.004664
siesta:    Ext. field =       0.000000
siesta:   Exch.-corr. =   -1090.931532
siesta:  Ion-electron =  -16952.914893
siesta:       Ion-ion =    4049.550565
siesta:       Ekinion =       0.000000
siesta:         Total =   -3998.802749
siesta:         Fermi =      -3.944755

siesta: Atomic forces (eV/Ang):
siesta:      1    0.129618    0.031651   -0.000000
siesta:      2   -0.086376    0.035942    0.000000
siesta:      3   -0.029534   -0.008279   -0.000000
siesta:      4    0.063148   -0.209966   -0.000000
siesta:      5   -0.065334   -0.032484    0.000000
siesta:      6   -0.189974    0.018949   -0.000000
siesta:      7    1.060249   -0.019737   -0.000000
siesta:      8   -0.659116    1.408822   -0.000000
siesta:      9    0.221452   -1.061937   -0.000000
siesta:     10   -0.139013    0.164073    0.000000
siesta:     11   -0.220378   -0.447022    0.000000
siesta:     12   -0.280032    0.056936    0.000000
siesta:     13   -0.156979   -0.058669    0.000000
siesta:     14    0.033679   -0.132865   -0.000000
siesta:     15    0.109715    0.107179    0.000000
siesta:     16   -0.065419   -0.084564   -0.000946
siesta:     17    0.074179   -0.097117   -0.000809
siesta:     18   -0.172686    0.037859    0.005217
siesta:     19    0.037127   -0.084253   -0.001436
siesta:     20    0.128362    0.083634   -0.000940
siesta:     21    0.031150   -0.030942   -0.006968
siesta:     22    0.121701   -0.032498    0.101314
siesta:     23    0.059844    0.089968   -0.016713
siesta:     24    0.121123    0.016298   -0.079384
siesta:     25   -0.666142   -0.400117    0.001024
siesta:     26   -0.876365   -1.504678    0.000489
siesta:     27    0.378250   -0.440540   -0.000552
siesta:     28   -0.176348    0.711647   -0.000071
siesta:     29    0.111462    0.178850   -0.000229
siesta:     30    2.982544    1.552651    0.000263
siesta: ----------------------------------------
siesta:    Tot    1.879904   -0.151210    0.000258

siesta: Stress tensor (static) (eV/Ang**3):
siesta:     0.000091    0.000184    0.000001
siesta:     0.000184    0.000413   -0.000009
siesta:     0.000001   -0.000009   -0.000036

siesta: Cell volume =       5806.514179 Ang**3

siesta: Pressure (static):
siesta:                Solid            Molecule  Units
siesta:          -0.00000170         -0.00000931  Ry/Bohr**3
siesta:          -0.00015630         -0.00085512  eV/Ang**3
siesta:          -0.25043022         -1.37006959  kBar
(Free)E+ p_basis*V_orbitals  =       -3977.674664
(Free)Eharris+ p_basis*V_orbitals  =       -3977.674664
     spin moment: S , {S} =    0.00000   0.00000   0.00000  -0.00000

siesta: Electric dipole (a.u.)  =   -1.249459    1.631794   -0.001804
siesta: Electric dipole (Debye) =   -3.175811    4.147610   -0.004584

cite: Please see "AT.bib" for an exhaustive BiBTeX file.
cite: Please clearly indicate Siesta version in published work: v4.1.5-1-g384057250
cite: This calculation has made use of the following articles
cite: which are encouraged to be cited in a published work.
        Primary SIESTA paper
          DOI: www.doi.org/10.1088/0953-8984/14/11/302
        Spin-orbit coupling (on-site approximation)
          DOI: www.doi.org/10.1088/0953-8984/19/19/489001


WARNING: alloc-realloc-dealloc name mismatch
         Name: atomlist isa
         Size:              -120. Bytes
         Node:     0
         Subsequent mismatches will not be reported
>> End of run:  16-OCT-2023  21:20:11
Job completed
