Executable      : siesta-5
Version         : 5.1-MaX-41-g6ad11e234
Architecture    : x86_64
Compiler version: GNU-11.4.0
Compiler flags  : -DSIESTA__METIS -fallow-argument-mismatch -O3 -march=native
Parallelisations: MPI, OpenMP
* OpenMP version: 201511
NetCDF support
NetCDF-4 support
NetCDF-4 MPI-IO support
METIS ordering support
Lua support
Native ELPA support
DFT-D3 support
Wannier90 wrapper support

Runtime information:
* Directory : /home/wind/Documents/Si_DNA2/C/DesoxyRibose/1_GGA_OP
* Running on 8 nodes in parallel.
* Running 1 OpenMP threads.
* Running 8 processes.
* OpenMP NOT bound (please bind threads!)
* OpenMP runtime schedule DYNAMIC, chunks 1
** Changing chunk size:
** OpenMP runtime schedule DYNAMIC, chunks 32
** OpenMP (trying to FORCE nesting)
* OpenMP allows 255 nested levels.
>> Start of run:   3-SEP-2024  19:29:59

                           *********************** 
                           *  WELCOME TO SIESTA  * 
                           *********************** 

 NOTE: Siesta V5 introduces some new defaults for basis-set generation
 NOTE: which might lead to slightly different numerical results.
 NOTE: Please see the manual for full details and compatibility measures.


reinit: Reading from standard input
reinit: Dumping input in INPUT_TMP.76766
************************** Dump of input data file ****************************
# mpirun -np 8 siesta-5 < Desoxy.fdf > Desoxy.out
SystemLabel      Desoxy
NumberOfAtoms    17
NumberOfSpecies  3
%block ChemicalSpeciesLabel
    1    1  H ../../../Pseudos/PBE/H/H.psml
    2    8  O ../../../Pseudos/PBE/O/O.psml
    3    6  C ../../../Pseudos/PBE/C/C.psml
%endblock ChemicalSpeciesLabel
############################################
# This overrides Defaults.fdf configuration
############################################
MD.Steps                    1000
%block Geometry.Constraints
    atom [6]
%endblock
AtomicCoordinatesFormat NotScaledCartesianAng
%block AtomicCoordinatesAndAtomicSpecies
     3.558000000    -8.101000000     3.380000000    1
     4.337000000    -7.542000000     3.330000000    2
     5.627000000    -8.157000000     3.190000000    3
     5.654000000    -8.750000000     2.276000000    1
     5.805000000    -8.805000000     4.048000000    1
     6.713000000    -7.099000000     3.130000000    3
     7.693000000    -7.576000000     3.118000000    1
     6.632000000    -6.405000000     1.860000000    2
     6.958000000    -5.037000000     2.040000000    3
     7.745000000    -4.701000000     1.365000000    1
     5.785000000    -4.219000000     1.620000000    1
     6.601000000    -5.985000000     4.170000000    3
     5.567000000    -5.684000000     4.339000000    1
     7.355000000    -4.850000000     3.500000000    3
     7.493000000    -4.036000000     4.211000000    1
     8.328000000    -5.208000000     3.164000000    1
     7.183000000    -6.339000000     5.430000000    1
%endblock AtomicCoordinatesAndAtomicSpecies
#############
# Unit Cell
#############
#LatticeConstant 1.0 Ang
#%block LatticeVectors
#    14.278344    0.000000    0.000000
#    0.000000   19.152444    0.000000
#    0.000000    0.000000   11.202686
#%endblock LatticeVectors
%include ../../../Defaults.fdf
************************** End of input data file *****************************

reinit: -----------------------------------------------------------------------
reinit: System Name: 
reinit: -----------------------------------------------------------------------
reinit: System Label: Desoxy
reinit: -----------------------------------------------------------------------

NOTE on units for spin output: 
{S} is the spin magnetic moment, in units of the Bohr magneton,
assuming a g-factor for the electron spin of exactly 2.
The spin magnetic moment is then numerically equal to the charge inbalance,
in units of electrons, between the spin-up and -down channels.


initatom: Reading input for the pseudopotentials and atomic orbitals ----------
Species number:   1 Atomic number:    1 Label: H
Species number:   2 Atomic number:    8 Label: O
Species number:   3 Atomic number:    6 Label: C

Ground state valence configuration (from tables):   1s01  2p00  3d00  4f00
Ground state valence configuration (from tables):   2s02  2p04  3d00  4f00
Ground state valence configuration (from tables):   2s02  2p02  3d00  4f00

---- Processing specs for species: H
Reading pseudopotential information in PSML from:
  ../../../Pseudos/PBE/H/H.psml
PSML file version: 1.1
Using libxc ids:  101 130
GGA--PBE XC_GGA_X_PBE--XC_GGA_C_PBE pb
PSML uuid: d073b020-3e16-11ef-6770-6689b1f74d2d

---- Processing specs for species: O
Reading pseudopotential information in PSML from:
  ../../../Pseudos/PBE/O/O.psml
PSML file version: 1.1
Using libxc ids:  101 130
GGA--PBE XC_GGA_X_PBE--XC_GGA_C_PBE pb
PSML uuid: 09fbd140-685d-11ef-4271-a98e77ff8e27

---- Processing specs for species: C
Reading pseudopotential information in PSML from:
  ../../../Pseudos/PBE/C/C.psml
PSML file version: 1.1
Using libxc ids:  101 130
GGA--PBE XC_GGA_X_PBE--XC_GGA_C_PBE pb
PSML uuid: b2c727b0-3e65-11ef-7b18-4b3656dbbbdf

---- Pseudopotential check for H 

Pseudopotential generated from a fully relativistic atomic calculation
There are spin-orbit semi-local pseudopotentials available

Pseudized shells:
1s( 1.00) rc: 0.05
Valence configuration for ps generation: 1s: Total charge:   1.000000

---- Pseudopotential check for O 

Pseudopotential generated from a fully relativistic atomic calculation
There are spin-orbit semi-local pseudopotentials available

Pseudized shells:
2s( 2.00) rc: 1.05
2p( 4.00) rc: 1.02
Valence configuration for ps generation: 2s:2p: Total charge:   6.000000

---- Pseudopotential check for C 

Pseudopotential generated from a fully relativistic atomic calculation
There are spin-orbit semi-local pseudopotentials available

Pseudized shells:
2s( 2.00) rc: 1.10
2p( 2.00) rc: 1.00
3d( 0.00) rc: 0.96
Valence configuration for ps generation: 2s:2p: Total charge:   4.000000
For H, standard SIESTA heuristics set lmxkb to 2
 (one more than the basis l, including polarization orbitals).
Use PS.lmax or PS.KBprojectors blocks to override.
For O, standard SIESTA heuristics set lmxkb to 3
 (one more than the basis l, including polarization orbitals).
Use PS.lmax or PS.KBprojectors blocks to override.
For C, standard SIESTA heuristics set lmxkb to 3
 (one more than the basis l, including polarization orbitals).
Use PS.lmax or PS.KBprojectors blocks to override.
../../../Pseudos/PBE/H/H.psml pseudopotential only contains V_ls up to l=0 -- lmxkb reset.
../../../Pseudos/PBE/O/O.psml pseudopotential only contains V_ls up to l=1 -- lmxkb reset.
../../../Pseudos/PBE/C/C.psml pseudopotential only contains V_ls up to l=2 -- lmxkb reset.

<basis_specs>
===============================================================================
H                    Z=   1    Mass=  1.0080        Charge= 0.17977+309
Lmxo=1 Lmxkb= 0    BasisType=split      Semic=F
L=0  Nsemic=0  Cnfigmx=1
          i=1  nzeta=2  polorb=1  (1s)  (to be polarized perturbatively)
            splnorm:   0.62000    
               vcte:    40.000    
               rinn:  -0.90000    
               qcoe:    0.0000    
               qyuk:    0.0000    
               qwid:   0.10000E-01
                rcs:    0.0000      0.0000    
            lambdas:    1.0000      1.0000    
L=1  Nsemic=0  Cnfigmx=2
          i=1  nzeta=0  polorb=0  (2p)  (perturbative polarization orbital) (from 1s)
===============================================================================
</basis_specs>

Filter: Requested cutoff:  290.000000 Ry
Using PAO.SplitTailNorm
atom: Called for H                     (Z =   1)
NOTE: H pseudopotential has channels up to l= 0
NOTE: PAOs with higher l will be generated with V_local
Maximum radius (at nrval) set to   50.00000 8518

read_vps: Pseudopotential generation method:
read_vps: ATM4.2.7  Troullier-Martins                       
Valence charge in pseudo generation:    1.00000

xc_check: Exchange-correlation functional:
xc_check: GGA Perdew, Burke & Ernzerhof 1996
V l=0 = -2*Zval/r beyond r=  0.0665
All V_l potentials equal beyond r=  0.0665
This should be close to max(r_c) in ps generation
All pots = -2*Zval/r beyond r=  0.0665
Using small-core scheme (local charge) for Vlocal

VLOCAL_FROM_CHLOCAL: 99.0% of the norm of Vloc inside   9809.099 Ry
VLOCAL_FROM_CHLOCAL: 99.9% of the norm of Vloc inside  22355.118 Ry
atom: Maximum radius for chlocal:    0.08171
atom: Maximum radius for r*vlocal+2*Zval:    0.07045

KBgen: Kleinman-Bylander projectors: 
GHOST: No ghost state for L =  0
KBproj: WARNING: Rc(0)=      0.2584
KBproj: WARNING: Cut off radius for the KB projector too small
   l= 0   rc=  0.258429   el= -0.477182   Ekb=-40.187490   kbcos= -0.006063

KBgen: Total number of Kleinman-Bylander projectors:   1
atom: -------------------------------------------------------------------------

atom: SANKEY-TYPE ORBITALS:
atom: Selected multiple-zeta basis: split     

SPLIT: Orbitals with angular momentum L= 0

SPLIT: Basis orbitals for state 1s

SPLIT: PAO cut-off radius determined from an
SPLIT: energy shift=  0.005000 Ry
Split based on tail norm

   izeta = 1
                 lambda =    1.000000
                     rc =    5.772464
                 energy =   -0.471503
                kinetic =    0.941611
    potential(screened) =   -1.413114
       potential(ionic) =   -1.936122
PAO Filter: Cutoff used:  142.10 Ry
PAO Filter: diagnostic kin energy tol:    0.003000 Ry
PAO Filter: Nominal cutoff (before filtering):  107.24 Ry
Filter:    Number of eigenfunctions  of the
           filtering kernel (total, used)= 55 20

   izeta = 2
                 rmatch =    1.661681
              splitnorm =    0.620000
                 energy =    1.741021
                kinetic =    5.838313
    potential(screened) =   -4.097292
       potential(ionic) =   -4.634502
PAO Filter: Cutoff used:  142.10 Ry
PAO Filter: diagnostic kin energy tol:    0.003000 Ry
PAO Filter: Nominal cutoff (before filtering):  829.51 Ry
Filter:    Number of eigenfunctions  of the
           filtering kernel (total, used)= 23  5
*Note: V_local used for l= 1

** Using vlocal for PAOs with L= 1

POLgen: Perturbative polarization orbital with L=  1

POLgen: Polarization orbital for state 1s
*Note: V_local used for lpol= 1

** Using vlocal for PAOs with L= 1
Split based on tail norm

   izeta = 1
                     rc =    5.772464
                 energy =    0.606793
                kinetic =    1.227790
    potential(screened) =   -0.620997
       potential(ionic) =   -1.099517
PAO Filter: diagnostic kin energy tol:    0.003000 Ry
PAO Filter: Nominal cutoff (before filtering):   49.50 Ry
Filter:    Number of eigenfunctions  of the
           filtering kernel (total, used)= 55 20
atom: Total number of Sankey-type orbitals:  5

atm_pop: Valence configuration (for local Pseudopot. screening):
 1s( 1.00)                                                            
 2p( 0.00)                                                            
Vna: chval, zval:    1.00000   1.00000

Vna:  Cut-off radius for the neutral-atom potential:   5.772464
VNA Filter: diagnostic kinetic energy tol:    0.003000 Ry
VNA Filter: Nominal cutoff (before filtering):22953.69 Ry
VNA Filter: Cutoff used:   290.00 Ry
Filter:    Number of eigenfunctions  of the
           filtering kernel (total, used)= 74 30

atom: _________________________________________________________________________

<basis_specs>
===============================================================================
O                    Z=   8    Mass=  15.999        Charge= 0.17977+309
Lmxo=2 Lmxkb= 1    BasisType=split      Semic=F
L=0  Nsemic=0  Cnfigmx=2
          i=1  nzeta=2  polorb=0  (2s)
            splnorm:   0.28000    
               vcte:    40.000    
               rinn:  -0.90000    
               qcoe:    0.0000    
               qyuk:    0.0000    
               qwid:   0.10000E-01
                rcs:    0.0000      0.0000    
            lambdas:    1.0000      1.0000    
L=1  Nsemic=0  Cnfigmx=2
          i=1  nzeta=2  polorb=1  (2p)  (to be polarized perturbatively)
            splnorm:   0.28000    
               vcte:    40.000    
               rinn:  -0.90000    
               qcoe:    0.0000    
               qyuk:    0.0000    
               qwid:   0.10000E-01
                rcs:    0.0000      0.0000    
            lambdas:    1.0000      1.0000    
L=2  Nsemic=0  Cnfigmx=3
          i=1  nzeta=0  polorb=0  (3d)  (perturbative polarization orbital) (from 2p)
-------------------------------------------------------------------------------
L=0  Nkbl=1  erefs: 0.17977+309
L=1  Nkbl=1  erefs: 0.17977+309
===============================================================================
</basis_specs>

Filter: Requested cutoff:  290.000000 Ry
Using PAO.SplitTailNorm
atom: Called for O                     (Z =   8)
NOTE: O pseudopotential has channels up to l= 1
NOTE: PAOs with higher l will be generated with V_local
Maximum radius (at nrval) set to   50.00000 8518

read_vps: Pseudopotential generation method:
read_vps: ATM4.2.7  Troullier-Martins                       
Valence charge in pseudo generation:    6.00000

xc_check: Exchange-correlation functional:
xc_check: GGA Perdew, Burke & Ernzerhof 1996
V l=0 = -2*Zval/r beyond r=  1.1230
V l=1 = -2*Zval/r beyond r=  1.1184
All V_l potentials equal beyond r=  1.0390
This should be close to max(r_c) in ps generation
All pots = -2*Zval/r beyond r=  1.1230
Using small-core scheme (local charge) for Vlocal

VLOCAL_FROM_CHLOCAL: 99.0% of the norm of Vloc inside     40.211 Ry
VLOCAL_FROM_CHLOCAL: 99.9% of the norm of Vloc inside     91.641 Ry
atom: Maximum radius for chlocal:    1.25723
atom: Maximum radius for r*vlocal+2*Zval:    1.14816

KBgen: Kleinman-Bylander projectors: 
GHOST: No ghost state for L =  0
   l= 0   rc=  1.272524   el= -1.759797   Ekb= 11.287271   kbcos=  0.312215
GHOST: No ghost state for L =  1
j- l= 1   rc=  1.269961   el= -0.665560   Ekb= -8.895322   kbcos= -0.351626
GHOST: No ghost state for L =  1
j+ l= 1   rc=  1.271242   el= -0.662923   Ekb= -8.864233   kbcos= -0.351011

KBgen: Total number of Kleinman-Bylander projectors:   7
atom: -------------------------------------------------------------------------

atom: SANKEY-TYPE ORBITALS:
atom: Selected multiple-zeta basis: split     

SPLIT: Orbitals with angular momentum L= 0

SPLIT: Basis orbitals for state 2s

SPLIT: PAO cut-off radius determined from an
SPLIT: energy shift=  0.005000 Ry
Split based on tail norm

   izeta = 1
                 lambda =    1.000000
                     rc =    3.812214
                 energy =   -1.754187
                kinetic =    1.612054
    potential(screened) =   -3.366241
       potential(ionic) =  -11.288798
PAO Filter: Cutoff used:  142.10 Ry
PAO Filter: diagnostic kin energy tol:    0.003000 Ry
PAO Filter: Nominal cutoff (before filtering):   62.68 Ry
Filter:    Number of eigenfunctions  of the
           filtering kernel (total, used)= 40 13

   izeta = 2
                 rmatch =    1.895663
              splitnorm =    0.280000
                 energy =   -0.709709
                kinetic =    3.823914
    potential(screened) =   -4.533623
       potential(ionic) =  -13.470361
PAO Filter: Cutoff used:  142.10 Ry
PAO Filter: diagnostic kin energy tol:    0.003000 Ry
PAO Filter: Nominal cutoff (before filtering):  121.35 Ry
Filter:    Number of eigenfunctions  of the
           filtering kernel (total, used)= 25  6

SPLIT: Orbitals with angular momentum L= 1

SPLIT: Basis orbitals for state 2p

SPLIT: PAO cut-off radius determined from an
SPLIT: energy shift=  0.005000 Ry
Split based on tail norm

   izeta = 1
                 lambda =    1.000000
                     rc =    4.733759
                 energy =   -0.658185
                kinetic =    4.925190
    potential(screened) =   -5.583375
       potential(ionic) =  -13.277097
PAO Filter: Cutoff used:  142.10 Ry
PAO Filter: diagnostic kin energy tol:    0.003000 Ry
PAO Filter: Nominal cutoff (before filtering):   97.34 Ry
Filter:    Number of eigenfunctions  of the
           filtering kernel (total, used)= 47 16

   izeta = 2
                 rmatch =    2.269212
              splitnorm =    0.280000
                 energy =   -0.173027
                kinetic =    8.566037
    potential(screened) =   -8.739063
       potential(ionic) =  -17.643478
PAO Filter: Cutoff used:  142.10 Ry
PAO Filter: diagnostic kin energy tol:    0.003000 Ry
PAO Filter: Nominal cutoff (before filtering):  105.19 Ry
Filter:    Number of eigenfunctions  of the
           filtering kernel (total, used)= 28  6
*Note: V_local used for l= 2

** Using vlocal for PAOs with L= 2

POLgen: Perturbative polarization orbital with L=  2

POLgen: Polarization orbital for state 2p
*Note: V_local used for lpol= 2

** Using vlocal for PAOs with L= 2
Split based on tail norm

   izeta = 1
                     rc =    4.733759
                 energy =    2.106194
                kinetic =    3.893912
    potential(screened) =   -1.787718
       potential(ionic) =   -7.731298
PAO Filter: diagnostic kin energy tol:    0.003000 Ry
PAO Filter: Nominal cutoff (before filtering):  104.86 Ry
Filter:    Number of eigenfunctions  of the
           filtering kernel (total, used)= 47 15
atom: Total number of Sankey-type orbitals: 13

atm_pop: Valence configuration (for local Pseudopot. screening):
 2s( 2.00)                                                            
 2p( 4.00)                                                            
 3d( 0.00)                                                            
Vna: chval, zval:    6.00000   6.00000

Vna:  Cut-off radius for the neutral-atom potential:   4.733759
VNA Filter: diagnostic kinetic energy tol:    0.003000 Ry
VNA Filter: Nominal cutoff (before filtering):   51.69 Ry
VNA Filter: Cutoff used:   290.00 Ry
Filter:    Number of eigenfunctions  of the
           filtering kernel (total, used)= 62 24

atom: _________________________________________________________________________

<basis_specs>
===============================================================================
C                    Z=   6    Mass=  12.011        Charge= 0.17977+309
Lmxo=2 Lmxkb= 2    BasisType=split      Semic=F
L=0  Nsemic=0  Cnfigmx=2
          i=1  nzeta=2  polorb=0  (2s)
            splnorm:   0.28000    
               vcte:    40.000    
               rinn:  -0.90000    
               qcoe:    0.0000    
               qyuk:    0.0000    
               qwid:   0.10000E-01
                rcs:    0.0000      0.0000    
            lambdas:    1.0000      1.0000    
L=1  Nsemic=0  Cnfigmx=2
          i=1  nzeta=2  polorb=1  (2p)  (to be polarized perturbatively)
            splnorm:   0.28000    
               vcte:    40.000    
               rinn:  -0.90000    
               qcoe:    0.0000    
               qyuk:    0.0000    
               qwid:   0.10000E-01
                rcs:    0.0000      0.0000    
            lambdas:    1.0000      1.0000    
L=2  Nsemic=0  Cnfigmx=3
          i=1  nzeta=0  polorb=0  (3d)  (perturbative polarization orbital) (from 2p)
-------------------------------------------------------------------------------
L=0  Nkbl=1  erefs: 0.17977+309
L=1  Nkbl=1  erefs: 0.17977+309
L=2  Nkbl=1  erefs: 0.17977+309
===============================================================================
</basis_specs>

Filter: Requested cutoff:  290.000000 Ry
Using PAO.SplitTailNorm
atom: Called for C                     (Z =   6)
Maximum radius (at nrval) set to   50.00000 8518

read_vps: Pseudopotential generation method:
read_vps: ATM4.2.7  Troullier-Martins                       
Valence charge in pseudo generation:    4.00000

xc_check: Exchange-correlation functional:
xc_check: GGA Perdew, Burke & Ernzerhof 1996
V l=0 = -2*Zval/r beyond r=  1.5440
V l=1 = -2*Zval/r beyond r=  1.5440
V l=2 = -2*Zval/r beyond r=  1.5440
All V_l potentials equal beyond r=  1.0917
This should be close to max(r_c) in ps generation
All pots = -2*Zval/r beyond r=  1.5440
Using large-core scheme (fit) for Vlocal

atom: Estimated core radius    1.54400

atom: Including non-local core corrections could be a good idea
Fit of Vlocal with continuous 2nd derivative
Fitting vlocal at       1.0950
Choosing vlocal chloc cutoff:  5160  1.729904
qtot up to nchloc:    3.99992261
atom: Maximum radius for chlocal:    1.72990
atom: Maximum radius for r*vlocal+2*Zval:    1.72990

KBgen: Kleinman-Bylander projectors: 
GHOST: No ghost state for L =  0
   l= 0   rc=  1.092775   el= -1.010231   Ekb=  9.458959   kbcos=  0.268546
GHOST: No ghost state for L =  1
j- l= 1   rc=  1.124089   el= -0.388958   Ekb= -6.558040   kbcos= -0.208835
GHOST: No ghost state for L =  1
j+ l= 1   rc=  1.124089   el= -0.388361   Ekb= -6.536878   kbcos= -0.208625
GHOST: No ghost state for L =  2
j- l= 2   rc=  1.141229   el=  0.012917   Ekb= -2.945149   kbcos= -0.002285
GHOST: No ghost state for L =  2
j+ l= 2   rc=  1.141229   el=  0.012917   Ekb= -2.779662   kbcos= -0.002340

KBgen: Total number of Kleinman-Bylander projectors:  17
atom: -------------------------------------------------------------------------

atom: SANKEY-TYPE ORBITALS:
atom: Selected multiple-zeta basis: split     

SPLIT: Orbitals with angular momentum L= 0

SPLIT: Basis orbitals for state 2s

SPLIT: PAO cut-off radius determined from an
SPLIT: energy shift=  0.005000 Ry
Split based on tail norm

   izeta = 1
                 lambda =    1.000000
                     rc =    4.858714
                 energy =   -1.004485
                kinetic =    0.905437
    potential(screened) =   -1.909922
       potential(ionic) =   -5.480972
PAO Filter: Cutoff used:  142.10 Ry
PAO Filter: diagnostic kin energy tol:    0.003000 Ry
PAO Filter: Nominal cutoff (before filtering):   37.27 Ry
Filter:    Number of eigenfunctions  of the
           filtering kernel (total, used)= 48 17

   izeta = 2
                 rmatch =    2.567525
              splitnorm =    0.280000
                 energy =   -0.342998
                kinetic =    2.329205
    potential(screened) =   -2.672203
       potential(ionic) =   -6.653639
PAO Filter: Cutoff used:  142.10 Ry
PAO Filter: diagnostic kin energy tol:    0.003000 Ry
PAO Filter: Nominal cutoff (before filtering):   92.37 Ry
Filter:    Number of eigenfunctions  of the
           filtering kernel (total, used)= 30  8

SPLIT: Orbitals with angular momentum L= 1

SPLIT: Basis orbitals for state 2p

SPLIT: PAO cut-off radius determined from an
SPLIT: energy shift=  0.005000 Ry
Split based on tail norm

   izeta = 1
                 lambda =    1.000000
                     rc =    6.008450
                 energy =   -0.382852
                kinetic =    2.496059
    potential(screened) =   -2.878912
       potential(ionic) =   -6.319668
PAO Filter: Cutoff used:  142.10 Ry
PAO Filter: diagnostic kin energy tol:    0.003000 Ry
PAO Filter: Nominal cutoff (before filtering):   75.63 Ry
Filter:    Number of eigenfunctions  of the
           filtering kernel (total, used)= 57 21

   izeta = 2
                 rmatch =    3.113112
              splitnorm =    0.280000
                 energy =   -0.102258
                kinetic =    4.484352
    potential(screened) =   -4.586610
       potential(ionic) =   -8.555446
PAO Filter: Cutoff used:  142.10 Ry
PAO Filter: diagnostic kin energy tol:    0.003000 Ry
PAO Filter: Nominal cutoff (before filtering):   84.16 Ry
Filter:    Number of eigenfunctions  of the
           filtering kernel (total, used)= 34 10

POLgen: Perturbative polarization orbital with L=  2

POLgen: Polarization orbital for state 2p
Split based on tail norm

   izeta = 1
                     rc =    6.008450
                 energy =    1.072034
                kinetic =    2.197141
    potential(screened) =   -1.125106
       potential(ionic) =   -3.913062
PAO Filter: diagnostic kin energy tol:    0.003000 Ry
PAO Filter: Nominal cutoff (before filtering):   65.81 Ry
Filter:    Number of eigenfunctions  of the
           filtering kernel (total, used)= 57 20
atom: Total number of Sankey-type orbitals: 13

atm_pop: Valence configuration (for local Pseudopot. screening):
 2s( 2.00)                                                            
 2p( 2.00)                                                            
 3d( 0.00)                                                            
Vna: chval, zval:    4.00000   4.00000

Vna:  Cut-off radius for the neutral-atom potential:   6.008450
VNA Filter: diagnostic kinetic energy tol:    0.003000 Ry
VNA Filter: Nominal cutoff (before filtering):   48.87 Ry
VNA Filter: Cutoff used:   290.00 Ry
Filter:    Number of eigenfunctions  of the
           filtering kernel (total, used)= 77 31

atom: _________________________________________________________________________

prinput: Basis input 

PAO.BasisType split     

%block ChemicalSpeciesLabel
    1    1 H                       # Species index, atomic number, species label
    2    8 O                       # Species index, atomic number, species label
    3    6 C                       # Species index, atomic number, species label
%endblock ChemicalSpeciesLabel

%block PAO.Basis                 # Define Basis set
# WARNING: This information might be incomplete!
H                     1                    # Species label, number of l-shells
 n=1   0   2 P   1                   # n, l, Nzeta, Polarization, NzetaPol
   5.772      1.662   
   1.000      1.000   
O                     2                    # Species label, number of l-shells
 n=2   0   2                         # n, l, Nzeta 
   3.812      1.896   
   1.000      1.000   
 n=2   1   2 P   1                   # n, l, Nzeta, Polarization, NzetaPol
   4.734      2.269   
   1.000      1.000   
C                     2                    # Species label, number of l-shells
 n=2   0   2                         # n, l, Nzeta 
   4.859      2.568   
   1.000      1.000   
 n=2   1   2 P   1                   # n, l, Nzeta, Polarization, NzetaPol
   6.008      3.113   
   1.000      1.000   
%endblock PAO.Basis

prinput: ----------------------------------------------------------------------

Dumping basis to NetCDF file H.ion.nc
Dumping basis to NetCDF file O.ion.nc
Dumping basis to NetCDF file C.ion.nc
coor:   Atomic-coordinates input format  =     Cartesian coordinates
coor:                                          (in Angstroms)

siesta: Atomic coordinates (Bohr) and species
siesta:      6.72365 -15.30867   6.38727  1        1
siesta:      8.19574 -14.25231   6.29279  2        2
siesta:     10.63349 -15.41450   6.02823  3        3
siesta:     10.68451 -16.53510   4.30102  1        4
siesta:     10.96986 -16.63904   7.64961  1        5
siesta:     12.68573 -13.41517   5.91484  3        6
siesta:     14.53766 -14.31657   5.89217  1        7
siesta:     12.53266 -12.10370   3.51489  2        8
siesta:     13.14871  -9.51855   3.85504  3        9
siesta:     14.63593  -8.88360   2.57948  1       10
siesta:     10.93207  -7.97275   3.06136  1       11
siesta:     12.47408 -11.31001   7.88016  3       12
siesta:     10.52011 -10.74120   8.19952  1       13
siesta:     13.89894  -9.16517   6.61404  3       14
siesta:     14.15972  -7.62693   7.95764  1       15
siesta:     15.73764  -9.84169   5.97909  1       16
siesta:     13.57390 -11.97897  10.26121  1       17

siesta: Automatic unit cell vectors (Ang):
siesta:   11.967244    0.000000    0.000000
siesta:    0.000000   11.966144    0.000000
siesta:    0.000000    0.000000   11.191744

siesta: System type = molecule  

initatomlists: Number of atoms, orbitals, and projectors:     17   141   109

siesta: ******************** Simulation parameters ****************************
siesta:
siesta: The following are some of the parameters of the simulation.
siesta: A complete list of the parameters used, including default values,
siesta: can be found in file out.fdf
siesta:
redata: Spin configuration                          = spin-orbit+offsite
redata: Number of spin components                   = 8
redata: Time-Reversal Symmetry                      = F
redata: Spin spiral                                 = F
redata: Long output                                 =   F
redata: Number of Atomic Species                    =        3
redata: Charge density info will appear in .RHO file
redata: Write Mulliken Pop.                         = NO
redata: Matel table size (NRTAB)                    =     1024
redata: Mesh Cutoff                                 =   300.0000 Ry
redata: Net charge of the system                    =     0.0000 |e|
redata: Min. number of SCF Iter                     =        1
redata: Max. number of SCF Iter                     =      200
redata: SCF convergence failure will abort job
redata: SCF mix quantity                            = Hamiltonian
redata: Mix DM or H after convergence               =   F
redata: Recompute H after scf cycle                 =   F
redata: Mix DM in first SCF step                    =   T
redata: Write Pulay info on disk                    =   F
redata: New DM Occupancy tolerance                  = 0.000000000001
redata: No kicks to SCF
redata: DM Mixing Weight for Kicks                  =     0.5000
redata: Require Harris convergence for SCF          =   F
redata: Harris energy tolerance for SCF             =     0.000100 eV
redata: Require DM convergence for SCF              =   T
redata: DM tolerance for SCF                        =     0.000008
redata: Require EDM convergence for SCF             =   F
redata: EDM tolerance for SCF                       =     0.001000 eV
redata: Require H convergence for SCF               =   T
redata: Hamiltonian tolerance for SCF               =     0.000001 eV
redata: Require (free) Energy convergence for SCF   =   F
redata: (free) Energy tolerance for SCF             =     0.000100 eV
redata: Using DFT-D3 dispersion                     =   F
redata: Using Saved Data (generic)                  =   F
redata: Use continuation files for DM               =   T
redata: Neglect nonoverlap interactions             =   F
redata: Method of Calculation                       = Diagonalization
redata: Electronic Temperature                      =     0.0000 K
redata: Fix the spin of the system                  =   F
redata: Split SR and SO contributions               =   F
redata: Max. number of TDED Iter                    =        1
redata: Number of TDED substeps                     =        3
redata: Dynamics option                             = Broyden coord. optimization
redata: Variable cell                               =   F
redata: Maximum number of optimization moves        =     1000
redata: Force tolerance                             =     0.0080 eV/Ang
mix.SCF: Pulay mixing                            = Pulay
mix.SCF:    Variant                              = stable
mix.SCF:    History steps                        = 6
mix.SCF:    Linear mixing weight                 =     0.250000
mix.SCF:    Mixing weight                        =     0.250000
mix.SCF:    SVD condition                        = 0.1000E-07
mix.SCF:    Restart steps                        = 24
mix.SCF:    Restart save steps                   = 3
mix.SCF: Spin-component mixing                   all
redata: Save all siesta data in one NC              =   F
redata: ***********************************************************************

%block SCF.Mixers
  Pulay
%endblock SCF.Mixers

%block SCF.Mixer.Pulay
  # Mixing method
  method pulay
  variant stable

  # Mixing options
  weight 0.2500
  weight.linear 0.2500
  history 6
  restart 24
  restart.save 3
%endblock SCF.Mixer.Pulay

DM_history_depth set to one: no extrapolation allowed by default for geometry relaxation
Size of DM history Fstack: 1
Total number of electrons:    42.000000
Total ionic charge:    42.000000

* ProcessorY, Blocksize:    4  18


* Orbital distribution balance (max,min):    18    15


siesta: k-grid: Number of k-points = 1
siesta: k-point is Gamma-only

diag: Algorithm                                     = ELPA-2stage
diag: ELPA GPU string key                           = nvidia-gpu
diag: Parallel over k                               =   F
diag: Use parallel 2D distribution                  =   T
diag: Parallel block-size                           = 18
diag: Parallel distribution                         =     2 x     4
diag: Used triangular part                          = Lower
diag: Absolute tolerance                            =  0.100E-15
diag: Orthogonalization factor                      =  0.100E-05
diag: Memory factor                                 =  1.0000

siesta: Constraint (1): pos
  [ 6 ]


ts: **************************************************************
ts: Save H and S matrices                           =    F
ts: Save DM and EDM matrices                        =    F
ts: Only save the overlap matrix S                  =    F
ts: **************************************************************

************************ Begin: TS CHECKS AND WARNINGS ************************
************************ End: TS CHECKS AND WARNINGS **************************


                     ====================================
                        Begin Broyden opt. move =      0
                     ====================================

outcell: Unit cell vectors (Ang):
       11.967244    0.000000    0.000000
        0.000000   11.966144    0.000000
        0.000000    0.000000   11.191744

outcell: Cell vector modules (Ang)   :   11.967244   11.966144   11.191744
outcell: Cell angles (23,13,12) (deg):     90.0000     90.0000     90.0000
outcell: Cell volume (Ang**3)        :   1602.6773
<dSpData1D:S at geom step 0
  <sparsity:sparsity for geom step 0
    nrows_g=141 nrows=18 sparsity=.1123 nnzs=2233, refcount: 8>
  <dData1D:(new from dSpData1D) n=2233, refcount: 1>
refcount: 1>
new_DM -- step:     1
Initializing Density Matrix...

Attempting to read DM from file... Failed...
DM filled with atomic data:
<dSpData2D:DM initialized from atoms
  <sparsity:sparsity for geom step 0
    nrows_g=141 nrows=18 sparsity=.1123 nnzs=2233, refcount: 9>
  <dData2D:DM n=2233 m=8, refcount: 1>
refcount: 1>
     spin moment: {S} , |S| = {    0.00000    0.00000   24.00000 }    24.00000

InitMesh: MESH = 128 x 128 x 120 = 1966080
InitMesh: Mesh cutoff (required, used) =   300.000   316.179 Ry
New grid distribution [1]: sub = 2
New grid distribution [2]: sub = 2
New grid distribution [3]: sub = 2
Setting up quadratic distribution...

stepf: Fermi-Dirac step function

siesta: Program's energy decomposition (eV):
siesta: Ebs     =      -337.892595
siesta: Eions   =      7213.400106
siesta: Ena     =      2441.073262
siesta: Ekin    =      1472.285814
siesta: Enl(+so)=       -79.498259
siesta: Eso(nil)=         0.000000
siesta: Edftu   =         0.000000
siesta: DEna    =      -136.713612
siesta: DUscf   =        17.499177
siesta: DUext   =         0.000000
siesta: Ex      =      -498.616021
siesta: Ec      =       -43.058974
siesta: Exc     =      -541.674995
siesta: EbV     =         0.000000
siesta: eta*DQ  =         0.000000
siesta: Emadel  =         0.000000
siesta: Emeta   =         0.000000
siesta: Emolmec =         0.000000
siesta: Ekinion =         0.000000
siesta: Eharris =     -4026.667438
siesta: Etot    =     -4040.428720
siesta: FreeEng =     -4040.428720

        iscf     Eharris(eV)        E_KS(eV)     FreeEng(eV)     dDmax    Ef(eV) dHmax(eV)
   scf:    1    -4026.667438    -4040.428720    -4040.428720  0.938682 -3.697142 44.086521
     spin moment: {S} , |S| = {    0.00001   -0.00000    0.00001 }     0.00001
timer: Routine,Calls,Time,% = IterSCF        1       0.944   8.96
   scf:    2    -4052.306992    -4047.248038    -4047.248038  0.123576 -3.639476 33.501997
     spin moment: {S} , |S| = {    0.00001   -0.00000    0.00001 }     0.00002
   scf:    3    -4050.333659    -4049.213386    -4049.213386  0.080939 -2.159222 19.477995
     spin moment: {S} , |S| = {    0.00001    0.00000    0.00000 }     0.00001
   scf:    4    -4051.173287    -4050.202787    -4050.202787  0.070426 -2.532664  2.471499
     spin moment: {S} , |S| = {    0.00000    0.00000    0.00000 }     0.00000
   scf:    5    -4050.489737    -4050.349112    -4050.349112  0.031375 -2.549215  0.621045
     spin moment: {S} , |S| = {    0.00000    0.00000    0.00000 }     0.00000
   scf:    6    -4050.423307    -4050.389944    -4050.389944  0.035454 -2.722242  0.484636
     spin moment: {S} , |S| = {    0.00000    0.00000    0.00000 }     0.00000
   scf:    7    -4050.415065    -4050.404496    -4050.404496  0.015484 -2.649417  0.329707
     spin moment: {S} , |S| = {    0.00000    0.00000    0.00000 }     0.00000
   scf:    8    -4050.433039    -4050.418067    -4050.418067  0.019282 -2.695286  0.233218
     spin moment: {S} , |S| = {    0.00000    0.00000    0.00000 }     0.00000
   scf:    9    -4050.432685    -4050.424546    -4050.424546  0.014830 -2.695388  0.102807
     spin moment: {S} , |S| = {    0.00000    0.00000    0.00000 }     0.00000
   scf:   10    -4050.429816    -4050.426723    -4050.426723  0.011326 -2.689775  0.051906
     spin moment: {S} , |S| = {    0.00000    0.00000    0.00000 }     0.00000
   scf:   11    -4050.427220    -4050.426948    -4050.426948  0.002754 -2.686129  0.030074
     spin moment: {S} , |S| = {    0.00000    0.00000    0.00000 }     0.00000
   scf:   12    -4050.427212    -4050.427061    -4050.427061  0.002546 -2.682679  0.018962
     spin moment: {S} , |S| = {    0.00000    0.00000    0.00000 }     0.00000
   scf:   13    -4050.427107    -4050.427081    -4050.427081  0.000944 -2.682535  0.008926
     spin moment: {S} , |S| = {    0.00000    0.00000    0.00000 }     0.00000
   scf:   14    -4050.427092    -4050.427086    -4050.427086  0.000410 -2.683462  0.002668
     spin moment: {S} , |S| = {    0.00000    0.00000   -0.00000 }     0.00000
   scf:   15    -4050.427089    -4050.427087    -4050.427087  0.000293 -2.683682  0.001352
     spin moment: {S} , |S| = {    0.00000    0.00000   -0.00000 }     0.00000
   scf:   16    -4050.427088    -4050.427088    -4050.427088  0.000148 -2.683637  0.001142
     spin moment: {S} , |S| = {    0.00000    0.00000   -0.00000 }     0.00000
   scf:   17    -4050.427088    -4050.427088    -4050.427088  0.000067 -2.683748  0.000810
     spin moment: {S} , |S| = {    0.00000    0.00000   -0.00000 }     0.00000
   scf:   18    -4050.427088    -4050.427088    -4050.427088  0.000044 -2.683732  0.000322
     spin moment: {S} , |S| = {   -0.00000    0.00000   -0.00000 }     0.00000
   scf:   19    -4050.427088    -4050.427088    -4050.427088  0.000017 -2.683702  0.000203
     spin moment: {S} , |S| = {   -0.00000    0.00000    0.00000 }     0.00000
   scf:   20    -4050.427088    -4050.427088    -4050.427088  0.000014 -2.683700  0.000103
     spin moment: {S} , |S| = {   -0.00000   -0.00000    0.00000 }     0.00000
   scf:   21    -4050.427088    -4050.427088    -4050.427088  0.000009 -2.683699  0.000048
     spin moment: {S} , |S| = {   -0.00000    0.00000    0.00000 }     0.00000
   scf:   22    -4050.427088    -4050.427088    -4050.427088  0.000003 -2.683697  0.000026
     spin moment: {S} , |S| = {   -0.00000    0.00000    0.00000 }     0.00000
   scf:   23    -4050.427088    -4050.427088    -4050.427088  0.000003 -2.683698  0.000013
     spin moment: {S} , |S| = {   -0.00000    0.00000   -0.00000 }     0.00000
   scf:   24    -4050.427088    -4050.427088    -4050.427088  0.000001 -2.683698  0.000004
     spin moment: {S} , |S| = {   -0.00000    0.00000    0.00000 }     0.00000
mix: Pulay -- resetting history
   scf:   25    -4050.427088    -4050.427088    -4050.427088  0.000000 -2.683698  0.000003
     spin moment: {S} , |S| = {   -0.00000    0.00000    0.00000 }     0.00000
   scf:   26    -4050.427088    -4050.427088    -4050.427088  0.000000 -2.683698  0.000002
     spin moment: {S} , |S| = {   -0.00000    0.00000    0.00000 }     0.00000
   scf:   27    -4050.427088    -4050.427088    -4050.427088  0.000000 -2.683698  0.000001
     spin moment: {S} , |S| = {   -0.00000    0.00000    0.00000 }     0.00000
   scf:   28    -4050.427088    -4050.427088    -4050.427088  0.000000 -2.683698  0.000001
     spin moment: {S} , |S| = {    0.00000    0.00000    0.00000 }     0.00000

SCF Convergence by DM+H criterion
max |DM_out - DM_in|         :     0.0000000676
max |H_out - H_in|      (eV) :     0.0000007810
SCF cycle converged after 28 iterations

Using DM_out to compute the final energy and forces

siesta: E_KS(eV) =            -4050.4271

siesta: E_KS - E_eggbox =     -4050.4271
     spin moment: {S} , |S| = {    0.00000    0.00000    0.00000 }     0.00000

siesta: Atomic forces (eV/Ang):
     1    2.770822   -1.230337   -0.036285
     2    0.549198    1.560702   -0.043419
     3   -0.921859    0.025102    0.096318
     4   -2.107568   -0.856052   -0.076810
     5    0.106799   -0.813377   -1.849164
     6   -1.102792    0.596118    0.309775
     7    0.208284    0.230732    2.835571
     8    0.191013    0.495116   -0.357320
     9   -4.652741    3.318222   -1.414385
    10   -2.640748    0.528877   -4.470430
    11    4.627475   -2.774303    1.551430
    12    2.445811   -1.117213    3.035600
    13    1.447596   -0.890380   -1.130108
    14    0.553813   -1.760432   -0.213416
    15    0.607688    0.709273    2.754372
    16   -0.240549   -2.371780    4.721618
    17   -1.822538    4.339431   -5.729085
----------------------------------------
   Tot    0.019705   -0.010301   -0.015740
----------------------------------------
   Max    5.729085
   Res    2.174563    sqrt( Sum f_i^2 / 3N )
----------------------------------------
   Max    5.729085    constrained

Stress tensor Voigt[x,y,z,yz,xz,xy] (kbar):       17.24        1.81        2.52       -6.75       -6.09       -4.75
(Free)E + p*V (eV/cell)    -4057.6174
Target enthalpy (eV/cell)    -4050.4271

Broyden_optim: max_history for broyden:   5
Broyden_optim: cycle on maxit: T
Broyden_optim: initial inverse jacobian:   1.0000

Broyden_optim: No of elements:     51

                     ====================================
                        Begin Broyden opt. move =      1
                     ====================================

outcell: Unit cell vectors (Ang):
       11.967244    0.000000    0.000000
        0.000000   11.966144    0.000000
        0.000000    0.000000   11.191744

outcell: Cell vector modules (Ang)   :   11.967244   11.966144   11.191744
outcell: Cell angles (23,13,12) (deg):     90.0000     90.0000     90.0000
outcell: Cell volume (Ang**3)        :   1602.6773
<dSpData1D:S at geom step 1
  <sparsity:sparsity for geom step 1
    nrows_g=141 nrows=18 sparsity=.1125 nnzs=2237, refcount: 8>
  <dData1D:(new from dSpData1D) n=2237, refcount: 1>
refcount: 1>
new_DM -- step:     2
Re-using DM from previous geometries...
Number of DMs in history: 1
 DM extrapolation coefficients: 
1   1.00000
New DM after history re-use:
<dSpData2D:SpM extrapolated using coords
  <sparsity:sparsity for geom step 1
    nrows_g=141 nrows=18 sparsity=.1125 nnzs=2237, refcount: 10>
  <dData2D:(temp array for extrapolation) n=2237 m=8, refcount: 1>
refcount: 1>
     spin moment: {S} , |S| = {    0.00000    0.00000   -0.00000 }     0.00000
Note: For starting DM, Qtot, Tr[D*S] =         42.00000000         42.11292836

InitMesh: MESH = 128 x 128 x 120 = 1966080
InitMesh: Mesh cutoff (required, used) =   300.000   316.179 Ry
New grid distribution [1]: sub = 2
New grid distribution [2]: sub = 2
New grid distribution [3]: sub = 2
Setting up quadratic distribution...

        iscf     Eharris(eV)        E_KS(eV)     FreeEng(eV)     dDmax    Ef(eV) dHmax(eV)
   scf:    1    -4052.764493    -4052.796101    -4052.796101  0.103200 -2.656360  2.657692
     spin moment: {S} , |S| = {   -0.00000    0.00000    0.00000 }     0.00000
   scf:    2    -4050.493703    -4052.274559    -4052.274559  0.069302 -1.383461  5.951052
     spin moment: {S} , |S| = {   -0.00000    0.00000    0.00000 }     0.00000
   scf:    3    -4053.346621    -4053.087346    -4053.087346  0.045753 -2.141883  0.673582
     spin moment: {S} , |S| = {   -0.00000    0.00000    0.00000 }     0.00000
   scf:    4    -4053.098973    -4053.094159    -4053.094159  0.007170 -2.092853  0.103403
     spin moment: {S} , |S| = {   -0.00000    0.00000    0.00000 }     0.00000
   scf:    5    -4053.094747    -4053.094554    -4053.094554  0.001445 -2.098482  0.023503
     spin moment: {S} , |S| = {   -0.00000    0.00000    0.00000 }     0.00000
   scf:    6    -4053.094577    -4053.094572    -4053.094572  0.000367 -2.091825  0.012019
     spin moment: {S} , |S| = {   -0.00000    0.00000    0.00000 }     0.00000
   scf:    7    -4053.094583    -4053.094579    -4053.094579  0.000189 -2.091818  0.001307
     spin moment: {S} , |S| = {   -0.00000    0.00000   -0.00000 }     0.00000
   scf:    8    -4053.094580    -4053.094579    -4053.094579  0.000045 -2.091667  0.001118
     spin moment: {S} , |S| = {   -0.00000    0.00000    0.00000 }     0.00000
   scf:    9    -4053.094580    -4053.094580    -4053.094580  0.000014 -2.091402  0.000381
     spin moment: {S} , |S| = {   -0.00000    0.00000   -0.00000 }     0.00000
   scf:   10    -4053.094580    -4053.094580    -4053.094580  0.000011 -2.091331  0.000125
     spin moment: {S} , |S| = {   -0.00000    0.00000   -0.00000 }     0.00000
   scf:   11    -4053.094580    -4053.094580    -4053.094580  0.000003 -2.091318  0.000030
     spin moment: {S} , |S| = {   -0.00000    0.00000    0.00000 }     0.00000
   scf:   12    -4053.094580    -4053.094580    -4053.094580  0.000001 -2.091319  0.000019
     spin moment: {S} , |S| = {   -0.00000    0.00000    0.00000 }     0.00000
   scf:   13    -4053.094580    -4053.094580    -4053.094580  0.000001 -2.091323  0.000010
     spin moment: {S} , |S| = {   -0.00000    0.00000    0.00000 }     0.00000
   scf:   14    -4053.094580    -4053.094580    -4053.094580  0.000000 -2.091323  0.000003
     spin moment: {S} , |S| = {   -0.00000    0.00000   -0.00000 }     0.00000
   scf:   15    -4053.094580    -4053.094580    -4053.094580  0.000000 -2.091323  0.000001
     spin moment: {S} , |S| = {   -0.00000    0.00000    0.00000 }     0.00000

SCF Convergence by DM+H criterion
max |DM_out - DM_in|         :     0.0000000864
max |H_out - H_in|      (eV) :     0.0000005197
SCF cycle converged after 15 iterations

Using DM_out to compute the final energy and forces

siesta: E_KS(eV) =            -4053.0946
     spin moment: {S} , |S| = {   -0.00000    0.00000    0.00000 }     0.00000

siesta: Atomic forces (eV/Ang):
     1    1.145704   -0.208610    0.615350
     2    0.175098    1.036690    0.105221
     3   -0.088923    0.568187   -0.770626
     4   -0.137636   -0.142643   -2.819713
     5    1.190185   -1.126823    1.994237
     6   -0.793195    0.542689    0.370883
     7   -2.171221    1.755609    1.327866
     8   -0.255144    0.363193    0.015672
     9   -1.550073    1.659692   -0.738115
    10    0.696661   -0.376451    2.170752
    11    2.109415   -2.858148    5.558293
    12    0.475350   -0.336942    0.489310
    13   -5.439218   -0.882651   -2.946073
    14   -0.398419    1.089549    0.818031
    15    1.141176    0.385452   -6.445503
    16    2.748626   -0.205649   -0.225685
    17    1.142271   -1.329753    0.418652
----------------------------------------
   Tot   -0.009342   -0.066608   -0.061447
----------------------------------------
   Max    6.445503
   Res    1.875179    sqrt( Sum f_i^2 / 3N )
----------------------------------------
   Max    6.445503    constrained

Stress tensor Voigt[x,y,z,yz,xz,xy] (kbar):       -3.27        4.19       16.26        1.52        2.90       -3.77
(Free)E + p*V (eV/cell)    -4058.8201
Target enthalpy (eV/cell)    -4053.0946

                     ====================================
                        Begin Broyden opt. move =      2
                     ====================================

outcell: Unit cell vectors (Ang):
       11.967244    0.000000    0.000000
        0.000000   11.966144    0.000000
        0.000000    0.000000   11.191744

outcell: Cell vector modules (Ang)   :   11.967244   11.966144   11.191744
outcell: Cell angles (23,13,12) (deg):     90.0000     90.0000     90.0000
outcell: Cell volume (Ang**3)        :   1602.6773
<dSpData1D:S at geom step 2
  <sparsity:sparsity for geom step 2
    nrows_g=141 nrows=18 sparsity=.1125 nnzs=2237, refcount: 8>
  <dData1D:(new from dSpData1D) n=2237, refcount: 1>
refcount: 1>
new_DM -- step:     3
Re-using DM from previous geometries...
Number of DMs in history: 1
 DM extrapolation coefficients: 
1   1.00000
New DM after history re-use:
<dSpData2D:SpM extrapolated using coords
  <sparsity:sparsity for geom step 2
    nrows_g=141 nrows=18 sparsity=.1125 nnzs=2237, refcount: 10>
  <dData2D:(temp array for extrapolation) n=2237 m=8, refcount: 1>
refcount: 1>
     spin moment: {S} , |S| = {    0.00000   -0.00000   -0.00000 }     0.00000

InitMesh: MESH = 128 x 128 x 120 = 1966080
InitMesh: Mesh cutoff (required, used) =   300.000   316.179 Ry
New grid distribution [1]: sub = 2
New grid distribution [2]: sub = 2
New grid distribution [3]: sub = 2
Setting up quadratic distribution...

        iscf     Eharris(eV)        E_KS(eV)     FreeEng(eV)     dDmax    Ef(eV) dHmax(eV)
   scf:    1    -4053.952049    -4053.760854    -4053.760854  0.043088 -2.192718  1.008304
     spin moment: {S} , |S| = {   -0.00000    0.00000   -0.00000 }     0.00000
   scf:    2    -4053.563220    -4053.720147    -4053.720147  0.020144 -1.779314  1.498876
     spin moment: {S} , |S| = {   -0.00000   -0.00000   -0.00000 }     0.00000
   scf:    3    -4053.818339    -4053.792655    -4053.792655  0.012781 -2.020225  0.200029
     spin moment: {S} , |S| = {   -0.00000    0.00000   -0.00000 }     0.00000
   scf:    4    -4053.793854    -4053.793359    -4053.793359  0.001577 -2.003332  0.027266
     spin moment: {S} , |S| = {   -0.00000    0.00000   -0.00000 }     0.00000
   scf:    5    -4053.793401    -4053.793384    -4053.793384  0.000239 -2.001664  0.006658
     spin moment: {S} , |S| = {   -0.00000    0.00000   -0.00000 }     0.00000
   scf:    6    -4053.793390    -4053.793388    -4053.793388  0.000080 -2.000696  0.002784
     spin moment: {S} , |S| = {   -0.00000    0.00000   -0.00000 }     0.00000
   scf:    7    -4053.793388    -4053.793388    -4053.793388  0.000027 -2.000735  0.000675
     spin moment: {S} , |S| = {   -0.00000    0.00000   -0.00000 }     0.00000
   scf:    8    -4053.793388    -4053.793388    -4053.793388  0.000022 -2.000515  0.000197
     spin moment: {S} , |S| = {   -0.00000    0.00000   -0.00000 }     0.00000
   scf:    9    -4053.793388    -4053.793388    -4053.793388  0.000004 -2.000495  0.000159
     spin moment: {S} , |S| = {   -0.00000    0.00000   -0.00000 }     0.00000
   scf:   10    -4053.793388    -4053.793388    -4053.793388  0.000006 -2.000475  0.000063
     spin moment: {S} , |S| = {   -0.00000    0.00000   -0.00000 }     0.00000
   scf:   11    -4053.793388    -4053.793388    -4053.793388  0.000002 -2.000470  0.000016
     spin moment: {S} , |S| = {   -0.00000    0.00000   -0.00000 }     0.00000
   scf:   12    -4053.793388    -4053.793388    -4053.793388  0.000001 -2.000469  0.000003
     spin moment: {S} , |S| = {   -0.00000    0.00000   -0.00000 }     0.00000
   scf:   13    -4053.793388    -4053.793388    -4053.793388  0.000000 -2.000469  0.000002
     spin moment: {S} , |S| = {   -0.00000    0.00000   -0.00000 }     0.00000
   scf:   14    -4053.793388    -4053.793388    -4053.793388  0.000000 -2.000469  0.000000
     spin moment: {S} , |S| = {   -0.00000    0.00000   -0.00000 }     0.00000

SCF Convergence by DM+H criterion
max |DM_out - DM_in|         :     0.0000000295
max |H_out - H_in|      (eV) :     0.0000004292
SCF cycle converged after 14 iterations

Using DM_out to compute the final energy and forces

siesta: E_KS(eV) =            -4053.7934
     spin moment: {S} , |S| = {   -0.00000    0.00000   -0.00000 }     0.00000

siesta: Atomic forces (eV/Ang):
     1    1.498473   -1.240481    0.260741
     2    0.234196    0.762608    0.049425
     3    0.087603   -0.286064   -0.291085
     4    0.630185    0.706530    3.503641
     5   -0.422113   -0.452205   -4.291693
     6   -1.376996    1.131396    0.263506
     7   -1.061993   -0.624973   -0.647092
     8   -0.291331    0.456622   -0.031868
     9   -0.218038    0.459565    0.644364
    10   -0.643889   -0.277939   -2.919729
    11    1.563152   -0.240759   -2.677194
    12   -1.026582    0.258722    0.445489
    13    8.010047   -0.750060    3.269154
    14    0.591520   -0.540413   -0.707236
    15   -1.284990    1.860224    2.387805
    16   -3.060580   -2.675853    2.138810
    17   -3.230418    1.395434   -1.445580
----------------------------------------
   Tot   -0.001756   -0.057645   -0.048540
----------------------------------------
   Max    8.010047
   Res    1.908365    sqrt( Sum f_i^2 / 3N )
----------------------------------------
   Max    8.010047    constrained

Stress tensor Voigt[x,y,z,yz,xz,xy] (kbar):       25.10       -1.16       -5.04       -2.33        1.52        0.47
(Free)E + p*V (eV/cell)    -4060.0934
Target enthalpy (eV/cell)    -4053.7934

                     ====================================
                        Begin Broyden opt. move =      3
                     ====================================

outcell: Unit cell vectors (Ang):
       11.967244    0.000000    0.000000
        0.000000   11.966144    0.000000
        0.000000    0.000000   11.191744

outcell: Cell vector modules (Ang)   :   11.967244   11.966144   11.191744
outcell: Cell angles (23,13,12) (deg):     90.0000     90.0000     90.0000
outcell: Cell volume (Ang**3)        :   1602.6773
<dSpData1D:S at geom step 3
  <sparsity:sparsity for geom step 3
    nrows_g=141 nrows=18 sparsity=.1125 nnzs=2237, refcount: 8>
  <dData1D:(new from dSpData1D) n=2237, refcount: 1>
refcount: 1>
new_DM -- step:     4
Re-using DM from previous geometries...
Number of DMs in history: 1
 DM extrapolation coefficients: 
1   1.00000
New DM after history re-use:
<dSpData2D:SpM extrapolated using coords
  <sparsity:sparsity for geom step 3
    nrows_g=141 nrows=18 sparsity=.1125 nnzs=2237, refcount: 10>
  <dData2D:(temp array for extrapolation) n=2237 m=8, refcount: 1>
refcount: 1>
     spin moment: {S} , |S| = {    0.00000    0.00000   -0.00000 }     0.00000
Note: For starting DM, Qtot, Tr[D*S] =         42.00000000         42.04874376

InitMesh: MESH = 128 x 128 x 120 = 1966080
InitMesh: Mesh cutoff (required, used) =   300.000   316.179 Ry
New grid distribution [1]: sub = 2
New grid distribution [2]: sub = 2
New grid distribution [3]: sub = 2
Setting up quadratic distribution...

        iscf     Eharris(eV)        E_KS(eV)     FreeEng(eV)     dDmax    Ef(eV) dHmax(eV)
   scf:    1    -4053.693070    -4053.928600    -4053.928600  0.033219 -2.033104  0.733393
     spin moment: {S} , |S| = {    0.00000    0.00000   -0.00000 }     0.00000
   scf:    2    -4053.775663    -4053.893956    -4053.893956  0.013428 -1.574206  1.506300
     spin moment: {S} , |S| = {    0.00000    0.00000   -0.00000 }     0.00000
   scf:    3    -4053.966130    -4053.947521    -4053.947521  0.008614 -1.851358  0.101475
     spin moment: {S} , |S| = {    0.00000    0.00000   -0.00000 }     0.00000
   scf:    4    -4053.947963    -4053.947776    -4053.947776  0.000648 -1.835481  0.031667
     spin moment: {S} , |S| = {    0.00000    0.00000   -0.00000 }     0.00000
   scf:    5    -4053.947818    -4053.947800    -4053.947800  0.000224 -1.830844  0.005779
     spin moment: {S} , |S| = {    0.00000    0.00000   -0.00000 }     0.00000
   scf:    6    -4053.947803    -4053.947802    -4053.947802  0.000074 -1.829147  0.001926
     spin moment: {S} , |S| = {    0.00000    0.00000   -0.00000 }     0.00000
   scf:    7    -4053.947802    -4053.947802    -4053.947802  0.000029 -1.829273  0.001214
     spin moment: {S} , |S| = {    0.00000    0.00000   -0.00000 }     0.00000
   scf:    8    -4053.947802    -4053.947802    -4053.947802  0.000012 -1.829004  0.000117
     spin moment: {S} , |S| = {    0.00000    0.00000   -0.00000 }     0.00000
   scf:    9    -4053.947802    -4053.947802    -4053.947802  0.000005 -1.828972  0.000066
     spin moment: {S} , |S| = {    0.00000    0.00000   -0.00000 }     0.00000
   scf:   10    -4053.947802    -4053.947802    -4053.947802  0.000004 -1.828956  0.000036
     spin moment: {S} , |S| = {    0.00000    0.00000   -0.00000 }     0.00000
   scf:   11    -4053.947802    -4053.947802    -4053.947802  0.000002 -1.828949  0.000014
     spin moment: {S} , |S| = {    0.00000    0.00000    0.00000 }     0.00000
   scf:   12    -4053.947802    -4053.947802    -4053.947802  0.000000 -1.828949  0.000009
     spin moment: {S} , |S| = {    0.00000    0.00000   -0.00000 }     0.00000
   scf:   13    -4053.947802    -4053.947802    -4053.947802  0.000000 -1.828950  0.000004
     spin moment: {S} , |S| = {    0.00000    0.00000   -0.00000 }     0.00000
   scf:   14    -4053.947802    -4053.947802    -4053.947802  0.000000 -1.828951  0.000001
     spin moment: {S} , |S| = {    0.00000    0.00000   -0.00000 }     0.00000

SCF Convergence by DM+H criterion
max |DM_out - DM_in|         :     0.0000001852
max |H_out - H_in|      (eV) :     0.0000008807
SCF cycle converged after 14 iterations

Using DM_out to compute the final energy and forces

siesta: E_KS(eV) =            -4053.9478
     spin moment: {S} , |S| = {    0.00000    0.00000   -0.00000 }     0.00000

siesta: Atomic forces (eV/Ang):
     1   -1.538930    0.861074    0.768571
     2    0.111242    0.224379    0.033792
     3    0.154790    0.446257    0.042942
     4   -0.306028   -0.819197   -4.304342
     5    1.270391   -1.998347    2.596817
     6   -2.241610    1.600564    0.194699
     7    5.013275   -4.141061   -2.130594
     8   -0.375234    0.355193    0.048804
     9    1.194873   -0.380156    0.595443
    10   -2.559320   -0.300148    2.252082
    11    1.890178   -0.323530   -4.244695
    12    0.346127    0.054441   -0.204438
    13   -6.820017    1.658434    3.346055
    14    0.052079   -0.204117   -0.287546
    15    0.991058    0.329827    1.058526
    16    2.666572    3.037873   -3.278382
    17    0.072906   -0.461008    3.463574
----------------------------------------
   Tot   -0.077647   -0.059522   -0.048693
----------------------------------------
   Max    6.820017
   Res    2.114117    sqrt( Sum f_i^2 / 3N )
----------------------------------------
   Max    6.820017    constrained

Stress tensor Voigt[x,y,z,yz,xz,xy] (kbar):      -17.10      -11.03      -18.79       -1.67        3.53        2.01
(Free)E + p*V (eV/cell)    -4038.3038
Target enthalpy (eV/cell)    -4053.9478

                     ====================================
                        Begin Broyden opt. move =      4
                     ====================================

outcell: Unit cell vectors (Ang):
       11.967244    0.000000    0.000000
        0.000000   11.966144    0.000000
        0.000000    0.000000   11.191744

outcell: Cell vector modules (Ang)   :   11.967244   11.966144   11.191744
outcell: Cell angles (23,13,12) (deg):     90.0000     90.0000     90.0000
outcell: Cell volume (Ang**3)        :   1602.6773
<dSpData1D:S at geom step 4
  <sparsity:sparsity for geom step 4
    nrows_g=141 nrows=18 sparsity=.1125 nnzs=2237, refcount: 8>
  <dData1D:(new from dSpData1D) n=2237, refcount: 1>
refcount: 1>
new_DM -- step:     5
Re-using DM from previous geometries...
Number of DMs in history: 1
 DM extrapolation coefficients: 
1   1.00000
New DM after history re-use:
<dSpData2D:SpM extrapolated using coords
  <sparsity:sparsity for geom step 4
    nrows_g=141 nrows=18 sparsity=.1125 nnzs=2237, refcount: 10>
  <dData2D:(temp array for extrapolation) n=2237 m=8, refcount: 1>
refcount: 1>
     spin moment: {S} , |S| = {    0.00000   -0.00000   -0.00000 }     0.00000

InitMesh: MESH = 128 x 128 x 120 = 1966080
InitMesh: Mesh cutoff (required, used) =   300.000   316.179 Ry
New grid distribution [1]: sub = 2
New grid distribution [2]: sub = 2
New grid distribution [3]: sub = 2
Setting up quadratic distribution...

        iscf     Eharris(eV)        E_KS(eV)     FreeEng(eV)     dDmax    Ef(eV) dHmax(eV)
   scf:    1    -4054.615108    -4054.459083    -4054.459083  0.021821 -1.855643  0.492530
     spin moment: {S} , |S| = {    0.00000   -0.00000   -0.00000 }     0.00000
   scf:    2    -4054.385422    -4054.442080    -4054.442080  0.008766 -2.133886  0.961252
     spin moment: {S} , |S| = {    0.00000    0.00000   -0.00000 }     0.00000
   scf:    3    -4054.476532    -4054.467450    -4054.467450  0.005413 -1.956048  0.031822
     spin moment: {S} , |S| = {    0.00000    0.00000   -0.00000 }     0.00000
   scf:    4    -4054.467521    -4054.467491    -4054.467491  0.000207 -1.957391  0.011215
     spin moment: {S} , |S| = {    0.00000   -0.00000   -0.00000 }     0.00000
   scf:    5    -4054.467502    -4054.467497    -4054.467497  0.000118 -1.958869  0.002540
     spin moment: {S} , |S| = {    0.00000   -0.00000   -0.00000 }     0.00000
   scf:    6    -4054.467498    -4054.467497    -4054.467497  0.000040 -1.959035  0.000946
     spin moment: {S} , |S| = {    0.00000    0.00000   -0.00000 }     0.00000
   scf:    7    -4054.467498    -4054.467498    -4054.467498  0.000018 -1.959423  0.000634
     spin moment: {S} , |S| = {    0.00000   -0.00000   -0.00000 }     0.00000
   scf:    8    -4054.467498    -4054.467498    -4054.467498  0.000008 -1.959345  0.000090
     spin moment: {S} , |S| = {    0.00000    0.00000   -0.00000 }     0.00000
   scf:    9    -4054.467498    -4054.467498    -4054.467498  0.000003 -1.959361  0.000039
     spin moment: {S} , |S| = {    0.00000   -0.00000   -0.00000 }     0.00000
   scf:   10    -4054.467498    -4054.467498    -4054.467498  0.000003 -1.959371  0.000016
     spin moment: {S} , |S| = {    0.00000   -0.00000   -0.00000 }     0.00000
   scf:   11    -4054.467498    -4054.467498    -4054.467498  0.000001 -1.959374  0.000008
     spin moment: {S} , |S| = {    0.00000    0.00000   -0.00000 }     0.00000
   scf:   12    -4054.467498    -4054.467498    -4054.467498  0.000000 -1.959374  0.000005
     spin moment: {S} , |S| = {    0.00000    0.00000   -0.00000 }     0.00000
   scf:   13    -4054.467498    -4054.467498    -4054.467498  0.000000 -1.959374  0.000002
     spin moment: {S} , |S| = {    0.00000    0.00000   -0.00000 }     0.00000
   scf:   14    -4054.467498    -4054.467498    -4054.467498  0.000000 -1.959374  0.000000
     spin moment: {S} , |S| = {    0.00000   -0.00000   -0.00000 }     0.00000

SCF Convergence by DM+H criterion
max |DM_out - DM_in|         :     0.0000001190
max |H_out - H_in|      (eV) :     0.0000002234
SCF cycle converged after 14 iterations

Using DM_out to compute the final energy and forces

siesta: E_KS(eV) =            -4054.4675
     spin moment: {S} , |S| = {    0.00000   -0.00000   -0.00000 }     0.00000

siesta: Atomic forces (eV/Ang):
     1    0.583330    0.291005    0.521605
     2   -0.016792    0.128005    0.059973
     3    0.121185   -0.043075   -0.096874
     4   -0.283162   -0.228139   -0.826670
     5    0.690720   -0.778988   -0.642848
     6   -1.292900    1.126416    0.224962
     7   -0.244167    0.914467    1.115787
     8   -0.357793    0.265018    0.090327
     9    0.592478   -0.240733    0.470072
    10   -3.850023    0.324665    1.407325
    11    3.675834   -1.803361   -0.880614
    12   -0.095182    0.085853    0.171543
    13    0.770592    1.554395   -1.957955
    14    0.172700    0.097066   -0.043442
    15   -0.118571   -1.109767   -0.542492
    16   -2.013412   -0.097108    1.209416
    17    1.602852   -0.529064   -0.343514
----------------------------------------
   Tot   -0.062311   -0.043343   -0.063397
----------------------------------------
   Max    3.850023
   Res    1.088583    sqrt( Sum f_i^2 / 3N )
----------------------------------------
   Max    3.850023    constrained

Stress tensor Voigt[x,y,z,yz,xz,xy] (kbar):       12.43        5.19        5.01       -1.16       -6.50        0.68
(Free)E + p*V (eV/cell)    -4062.0112
Target enthalpy (eV/cell)    -4054.4675

                     ====================================
                        Begin Broyden opt. move =      5
                     ====================================

outcell: Unit cell vectors (Ang):
       11.967244    0.000000    0.000000
        0.000000   11.966144    0.000000
        0.000000    0.000000   11.191744

outcell: Cell vector modules (Ang)   :   11.967244   11.966144   11.191744
outcell: Cell angles (23,13,12) (deg):     90.0000     90.0000     90.0000
outcell: Cell volume (Ang**3)        :   1602.6773
<dSpData1D:S at geom step 5
  <sparsity:sparsity for geom step 5
    nrows_g=141 nrows=18 sparsity=.1125 nnzs=2237, refcount: 8>
  <dData1D:(new from dSpData1D) n=2237, refcount: 1>
refcount: 1>
new_DM -- step:     6
Re-using DM from previous geometries...
Number of DMs in history: 1
 DM extrapolation coefficients: 
1   1.00000
New DM after history re-use:
<dSpData2D:SpM extrapolated using coords
  <sparsity:sparsity for geom step 5
    nrows_g=141 nrows=18 sparsity=.1125 nnzs=2237, refcount: 10>
  <dData2D:(temp array for extrapolation) n=2237 m=8, refcount: 1>
refcount: 1>
     spin moment: {S} , |S| = {   -0.00000    0.00000    0.00000 }     0.00000

InitMesh: MESH = 128 x 128 x 120 = 1966080
InitMesh: Mesh cutoff (required, used) =   300.000   316.179 Ry
New grid distribution [1]: sub = 2
New grid distribution [2]: sub = 2
New grid distribution [3]: sub = 2
Setting up quadratic distribution...

        iscf     Eharris(eV)        E_KS(eV)     FreeEng(eV)     dDmax    Ef(eV) dHmax(eV)
   scf:    1    -4054.518996    -4054.601842    -4054.601842  0.005281 -1.974709  0.103772
     spin moment: {S} , |S| = {    0.00000   -0.00000   -0.00000 }     0.00000
   scf:    2    -4054.597755    -4054.600940    -4054.600940  0.002068 -1.899591  0.171199
     spin moment: {S} , |S| = {    0.00000    0.00000   -0.00000 }     0.00000
   scf:    3    -4054.602909    -4054.602373    -4054.602373  0.001233 -1.944841  0.012352
     spin moment: {S} , |S| = {    0.00000    0.00000   -0.00000 }     0.00000
   scf:    4    -4054.602381    -4054.602378    -4054.602378  0.000099 -1.942656  0.002155
     spin moment: {S} , |S| = {    0.00000    0.00000   -0.00000 }     0.00000
   scf:    5    -4054.602378    -4054.602378    -4054.602378  0.000028 -1.942104  0.000731
     spin moment: {S} , |S| = {    0.00000    0.00000   -0.00000 }     0.00000
   scf:    6    -4054.602378    -4054.602378    -4054.602378  0.000012 -1.941982  0.000242
     spin moment: {S} , |S| = {    0.00000    0.00000   -0.00000 }     0.00000
   scf:    7    -4054.602378    -4054.602378    -4054.602378  0.000006 -1.941927  0.000041
     spin moment: {S} , |S| = {    0.00000    0.00000   -0.00000 }     0.00000
   scf:    8    -4054.602378    -4054.602378    -4054.602378  0.000001 -1.941919  0.000022
     spin moment: {S} , |S| = {    0.00000    0.00000   -0.00000 }     0.00000
   scf:    9    -4054.602378    -4054.602378    -4054.602378  0.000000 -1.941917  0.000012
     spin moment: {S} , |S| = {    0.00000    0.00000   -0.00000 }     0.00000
   scf:   10    -4054.602378    -4054.602378    -4054.602378  0.000001 -1.941915  0.000003
     spin moment: {S} , |S| = {    0.00000    0.00000   -0.00000 }     0.00000
   scf:   11    -4054.602378    -4054.602378    -4054.602378  0.000000 -1.941914  0.000002
     spin moment: {S} , |S| = {    0.00000    0.00000   -0.00000 }     0.00000
   scf:   12    -4054.602378    -4054.602378    -4054.602378  0.000000 -1.941914  0.000001
     spin moment: {S} , |S| = {    0.00000    0.00000   -0.00000 }     0.00000

SCF Convergence by DM+H criterion
max |DM_out - DM_in|         :     0.0000000665
max |H_out - H_in|      (eV) :     0.0000006807
SCF cycle converged after 12 iterations

Using DM_out to compute the final energy and forces

siesta: E_KS(eV) =            -4054.6024
     spin moment: {S} , |S| = {    0.00000    0.00000   -0.00000 }     0.00000

siesta: Atomic forces (eV/Ang):
     1    0.550742    0.303875    0.535021
     2    0.056440    0.139767    0.058593
     3    0.119356   -0.066239   -0.127129
     4   -0.088800   -0.097429   -0.723055
     5    0.634065   -0.688012   -0.600404
     6   -1.355356    1.174786    0.221465
     7   -0.059901    0.121975    0.510458
     8   -0.352443    0.217507    0.111432
     9    0.564432   -0.362125    0.617212
    10   -2.789925    0.037270    0.590522
    11    2.009756   -1.096231   -1.912105
    12   -0.025647    0.081967    0.121801
    13   -0.660282    1.022825   -0.864768
    14    0.029837    0.061812   -0.038537
    15   -0.001585   -0.160311    0.709569
    16    0.255222   -0.144777    0.219520
    17    1.035944   -0.588650    0.522088
----------------------------------------
   Tot   -0.078144   -0.041989   -0.048318
----------------------------------------
   Max    2.789925
   Res    0.750472    sqrt( Sum f_i^2 / 3N )
----------------------------------------
   Max    2.789925    constrained

Stress tensor Voigt[x,y,z,yz,xz,xy] (kbar):        4.99        2.18       -2.07       -1.01       -4.25        1.30
(Free)E + p*V (eV/cell)    -4056.3061
Target enthalpy (eV/cell)    -4054.6024

                     ====================================
                        Begin Broyden opt. move =      6
                     ====================================

outcell: Unit cell vectors (Ang):
       11.967244    0.000000    0.000000
        0.000000   11.966144    0.000000
        0.000000    0.000000   11.191744

outcell: Cell vector modules (Ang)   :   11.967244   11.966144   11.191744
outcell: Cell angles (23,13,12) (deg):     90.0000     90.0000     90.0000
outcell: Cell volume (Ang**3)        :   1602.6773
<dSpData1D:S at geom step 6
  <sparsity:sparsity for geom step 6
    nrows_g=141 nrows=18 sparsity=.1125 nnzs=2237, refcount: 8>
  <dData1D:(new from dSpData1D) n=2237, refcount: 1>
refcount: 1>
new_DM -- step:     7
Re-using DM from previous geometries...
Number of DMs in history: 1
 DM extrapolation coefficients: 
1   1.00000
New DM after history re-use:
<dSpData2D:SpM extrapolated using coords
  <sparsity:sparsity for geom step 6
    nrows_g=141 nrows=18 sparsity=.1125 nnzs=2237, refcount: 10>
  <dData2D:(temp array for extrapolation) n=2237 m=8, refcount: 1>
refcount: 1>
     spin moment: {S} , |S| = {   -0.00000    0.00000    0.00000 }     0.00000

InitMesh: MESH = 128 x 128 x 120 = 1966080
InitMesh: Mesh cutoff (required, used) =   300.000   316.179 Ry
New grid distribution [1]: sub = 2
New grid distribution [2]: sub = 2
New grid distribution [3]: sub = 2
Setting up quadratic distribution...

        iscf     Eharris(eV)        E_KS(eV)     FreeEng(eV)     dDmax    Ef(eV) dHmax(eV)
   scf:    1    -4054.584483    -4054.620400    -4054.620400  0.009364 -1.907272  0.140647
     spin moment: {S} , |S| = {    0.00000   -0.00000   -0.00000 }     0.00000
   scf:    2    -4054.614751    -4054.619130    -4054.619130  0.002834 -1.981159  0.309491
     spin moment: {S} , |S| = {    0.00000   -0.00000    0.00000 }     0.00000
   scf:    3    -4054.621802    -4054.621126    -4054.621126  0.001758 -1.936786  0.025743
     spin moment: {S} , |S| = {    0.00000   -0.00000   -0.00000 }     0.00000
   scf:    4    -4054.621157    -4054.621145    -4054.621145  0.000187 -1.941404  0.003455
     spin moment: {S} , |S| = {    0.00000   -0.00000   -0.00000 }     0.00000
   scf:    5    -4054.621146    -4054.621146    -4054.621146  0.000041 -1.941833  0.000919
     spin moment: {S} , |S| = {    0.00000   -0.00000   -0.00000 }     0.00000
   scf:    6    -4054.621146    -4054.621146    -4054.621146  0.000026 -1.942052  0.000185
     spin moment: {S} , |S| = {    0.00000   -0.00000   -0.00000 }     0.00000
   scf:    7    -4054.621146    -4054.621146    -4054.621146  0.000007 -1.942130  0.000090
     spin moment: {S} , |S| = {    0.00000   -0.00000   -0.00000 }     0.00000
   scf:    8    -4054.621146    -4054.621146    -4054.621146  0.000003 -1.942126  0.000031
     spin moment: {S} , |S| = {    0.00000   -0.00000   -0.00000 }     0.00000
   scf:    9    -4054.621146    -4054.621146    -4054.621146  0.000002 -1.942131  0.000014
     spin moment: {S} , |S| = {    0.00000   -0.00000    0.00000 }     0.00000
   scf:   10    -4054.621146    -4054.621146    -4054.621146  0.000001 -1.942134  0.000010
     spin moment: {S} , |S| = {    0.00000   -0.00000    0.00000 }     0.00000
   scf:   11    -4054.621146    -4054.621146    -4054.621146  0.000000 -1.942135  0.000003
     spin moment: {S} , |S| = {    0.00000   -0.00000    0.00000 }     0.00000
   scf:   12    -4054.621146    -4054.621146    -4054.621146  0.000000 -1.942135  0.000002
     spin moment: {S} , |S| = {    0.00000   -0.00000   -0.00000 }     0.00000
   scf:   13    -4054.621146    -4054.621146    -4054.621146  0.000000 -1.942134  0.000001
     spin moment: {S} , |S| = {    0.00000   -0.00000    0.00000 }     0.00000

SCF Convergence by DM+H criterion
max |DM_out - DM_in|         :     0.0000000546
max |H_out - H_in|      (eV) :     0.0000006547
SCF cycle converged after 13 iterations

Using DM_out to compute the final energy and forces

siesta: E_KS(eV) =            -4054.6211
     spin moment: {S} , |S| = {    0.00000   -0.00000    0.00000 }     0.00000

siesta: Atomic forces (eV/Ang):
     1   -0.358522    0.138232    0.488806
     2    0.248863    0.218431    0.040033
     3    0.120949    0.077621   -0.131248
     4   -0.243313   -0.251777   -1.848367
     5    0.669543   -1.026847    0.661893
     6   -1.548630    1.243949    0.231246
     7    1.097069   -0.113500   -0.071035
     8   -0.333275    0.144109    0.167222
     9    0.332113   -0.238568    0.409196
    10   -0.939821   -0.287103    2.240349
    11    2.060726   -1.089613    0.531722
    12   -0.123254    0.056353    0.182862
    13    1.496003    1.527241   -0.914687
    14    0.480939    0.029137    0.073998
    15   -0.178817   -2.395703   -2.455164
    16   -3.330498    1.609403    0.609171
    17    0.436612    0.306829   -0.268239
----------------------------------------
   Tot   -0.113313   -0.051804   -0.052243
----------------------------------------
   Max    3.330498
   Res    1.041662    sqrt( Sum f_i^2 / 3N )
----------------------------------------
   Max    3.330498    constrained

Stress tensor Voigt[x,y,z,yz,xz,xy] (kbar):        8.20        4.21        7.28       -1.75       -1.59        0.39
(Free)E + p*V (eV/cell)    -4061.1889
Target enthalpy (eV/cell)    -4054.6211

                     ====================================
                        Begin Broyden opt. move =      7
                     ====================================

outcell: Unit cell vectors (Ang):
       11.967244    0.000000    0.000000
        0.000000   11.966144    0.000000
        0.000000    0.000000   11.191744

outcell: Cell vector modules (Ang)   :   11.967244   11.966144   11.191744
outcell: Cell angles (23,13,12) (deg):     90.0000     90.0000     90.0000
outcell: Cell volume (Ang**3)        :   1602.6773
<dSpData1D:S at geom step 7
  <sparsity:sparsity for geom step 7
    nrows_g=141 nrows=18 sparsity=.1125 nnzs=2237, refcount: 8>
  <dData1D:(new from dSpData1D) n=2237, refcount: 1>
refcount: 1>
new_DM -- step:     8
Re-using DM from previous geometries...
Number of DMs in history: 1
 DM extrapolation coefficients: 
1   1.00000
New DM after history re-use:
<dSpData2D:SpM extrapolated using coords
  <sparsity:sparsity for geom step 7
    nrows_g=141 nrows=18 sparsity=.1125 nnzs=2237, refcount: 10>
  <dData2D:(temp array for extrapolation) n=2237 m=8, refcount: 1>
refcount: 1>
     spin moment: {S} , |S| = {   -0.00000    0.00000   -0.00000 }     0.00000

InitMesh: MESH = 128 x 128 x 120 = 1966080
InitMesh: Mesh cutoff (required, used) =   300.000   316.179 Ry
New grid distribution [1]: sub = 2
New grid distribution [2]: sub = 2
New grid distribution [3]: sub = 2
Setting up quadratic distribution...

        iscf     Eharris(eV)        E_KS(eV)     FreeEng(eV)     dDmax    Ef(eV) dHmax(eV)
   scf:    1    -4054.604419    -4054.701470    -4054.701470  0.010093 -1.952548  0.192497
     spin moment: {S} , |S| = {    0.00000   -0.00000    0.00000 }     0.00000
   scf:    2    -4054.694034    -4054.699992    -4054.699992  0.003586 -1.998505  0.325053
     spin moment: {S} , |S| = {    0.00000   -0.00000    0.00000 }     0.00000
   scf:    3    -4054.703740    -4054.702759    -4054.702759  0.002131 -1.967257  0.041498
     spin moment: {S} , |S| = {    0.00000   -0.00000   -0.00000 }     0.00000
   scf:    4    -4054.702817    -4054.702792    -4054.702792  0.000336 -1.965737  0.007613
     spin moment: {S} , |S| = {    0.00000    0.00000   -0.00000 }     0.00000
   scf:    5    -4054.702795    -4054.702794    -4054.702794  0.000083 -1.965468  0.001663
     spin moment: {S} , |S| = {    0.00000   -0.00000   -0.00000 }     0.00000
   scf:    6    -4054.702794    -4054.702794    -4054.702794  0.000031 -1.965467  0.000255
     spin moment: {S} , |S| = {    0.00000   -0.00000   -0.00000 }     0.00000
   scf:    7    -4054.702794    -4054.702794    -4054.702794  0.000009 -1.965499  0.000096
     spin moment: {S} , |S| = {    0.00000   -0.00000    0.00000 }     0.00000
   scf:    8    -4054.702794    -4054.702794    -4054.702794  0.000002 -1.965497  0.000044
     spin moment: {S} , |S| = {    0.00000   -0.00000    0.00000 }     0.00000
   scf:    9    -4054.702794    -4054.702794    -4054.702794  0.000001 -1.965501  0.000029
     spin moment: {S} , |S| = {    0.00000    0.00000    0.00000 }     0.00000
   scf:   10    -4054.702794    -4054.702794    -4054.702794  0.000001 -1.965505  0.000011
     spin moment: {S} , |S| = {    0.00000   -0.00000    0.00000 }     0.00000
   scf:   11    -4054.702794    -4054.702794    -4054.702794  0.000000 -1.965505  0.000006
     spin moment: {S} , |S| = {    0.00000    0.00000    0.00000 }     0.00000
   scf:   12    -4054.702794    -4054.702794    -4054.702794  0.000000 -1.965506  0.000003
     spin moment: {S} , |S| = {    0.00000    0.00000   -0.00000 }     0.00000
   scf:   13    -4054.702794    -4054.702794    -4054.702794  0.000000 -1.965506  0.000001
     spin moment: {S} , |S| = {    0.00000   -0.00000   -0.00000 }     0.00000

SCF Convergence by DM+H criterion
max |DM_out - DM_in|         :     0.0000000298
max |H_out - H_in|      (eV) :     0.0000009133
SCF cycle converged after 13 iterations

Using DM_out to compute the final energy and forces

siesta: E_KS(eV) =            -4054.7028
     spin moment: {S} , |S| = {    0.00000   -0.00000   -0.00000 }     0.00000

siesta: Atomic forces (eV/Ang):
     1    0.900788    0.036785    0.279694
     2    0.173291    0.091181    0.053709
     3    0.148713   -0.101048   -0.178018
     4   -0.432475    0.009709    0.045314
     5    0.068660    0.195932   -0.756023
     6   -1.400665    1.120200    0.288756
     7    0.508971    1.146049    0.679450
     8   -0.303431    0.035307    0.266171
     9   -0.165942    0.125871    0.042283
    10    0.423956   -0.347783   -0.756433
    11    1.147663   -0.711573    1.359349
    12    0.141935   -0.059729    0.181850
    13   -0.367425   -0.885808    0.073974
    14    0.158881   -0.221010    0.040859
    15   -0.062462    1.073531   -1.093555
    16   -1.016006   -0.968737    0.721205
    17   -0.026199   -0.580697   -1.283401
----------------------------------------
   Tot   -0.101747   -0.041819   -0.034816
----------------------------------------
   Max    1.400665
   Res    0.622670    sqrt( Sum f_i^2 / 3N )
[...]
     spin moment: {S} , |S| = {    0.00000    0.00000    0.00000 }     0.00000
   scf:    3    -4054.921403    -4054.921403    -4054.921403  0.000007 -2.088956  0.000077
     spin moment: {S} , |S| = {    0.00000    0.00000    0.00000 }     0.00000
   scf:    4    -4054.921403    -4054.921403    -4054.921403  0.000001 -2.088959  0.000012
     spin moment: {S} , |S| = {    0.00000    0.00000    0.00000 }     0.00000
   scf:    5    -4054.921403    -4054.921403    -4054.921403  0.000000 -2.088960  0.000003
     spin moment: {S} , |S| = {    0.00000    0.00000    0.00000 }     0.00000
   scf:    6    -4054.921403    -4054.921403    -4054.921403  0.000000 -2.088961  0.000001
     spin moment: {S} , |S| = {    0.00000    0.00000    0.00000 }     0.00000

SCF Convergence by DM+H criterion
max |DM_out - DM_in|         :     0.0000000850
max |H_out - H_in|      (eV) :     0.0000008675
SCF cycle converged after 6 iterations

Using DM_out to compute the final energy and forces

siesta: E_KS(eV) =            -4054.9214
     spin moment: {S} , |S| = {    0.00000    0.00000    0.00000 }     0.00000

siesta: Atomic forces (eV/Ang):
     1   -0.004727    0.000319   -0.008275
     2   -0.001934    0.000667   -0.002273
     3   -0.001120    0.000308   -0.003108
     4    0.000990    0.002644   -0.003699
     5   -0.001702    0.002003   -0.003938
     6   -0.036819    0.020224   -0.000123
     7   -0.006114   -0.005536    0.001485
     8    0.002843   -0.001066   -0.001681
     9    0.000368   -0.000599   -0.001782
    10    0.001139    0.000405   -0.000328
    11    0.003778   -0.002519    0.000449
    12   -0.004920    0.000656   -0.001309
    13    0.006218    0.003271   -0.005688
    14   -0.002187    0.000318   -0.000766
    15   -0.005092   -0.010916   -0.005720
    16   -0.010972    0.006388    0.008028
    17   -0.007960    0.004299   -0.004777
----------------------------------------
   Tot   -0.068211    0.020867   -0.033504
----------------------------------------
   Max    0.036819
   Res    0.007208    sqrt( Sum f_i^2 / 3N )
----------------------------------------
   Max    0.010972    constrained

Stress tensor Voigt[x,y,z,yz,xz,xy] (kbar):        0.11        0.06        0.05        0.00        0.06       -0.05
(Free)E + p*V (eV/cell)    -4054.9960
Target enthalpy (eV/cell)    -4054.9214

                     ====================================
                        Begin Broyden opt. move =    164
                     ====================================

outcell: Unit cell vectors (Ang):
       11.967244    0.000000    0.000000
        0.000000   11.966144    0.000000
        0.000000    0.000000   11.191744

outcell: Cell vector modules (Ang)   :   11.967244   11.966144   11.191744
outcell: Cell angles (23,13,12) (deg):     90.0000     90.0000     90.0000
outcell: Cell volume (Ang**3)        :   1602.6773
<dSpData1D:S at geom step 164
  <sparsity:sparsity for geom step 164
    nrows_g=141 nrows=18 sparsity=.1121 nnzs=2229, refcount: 8>
  <dData1D:(new from dSpData1D) n=2229, refcount: 1>
refcount: 1>
new_DM -- step:   165
Re-using DM from previous geometries...
Number of DMs in history: 1
 DM extrapolation coefficients: 
1   1.00000
New DM after history re-use:
<dSpData2D:SpM extrapolated using coords
  <sparsity:sparsity for geom step 164
    nrows_g=141 nrows=18 sparsity=.1121 nnzs=2229, refcount: 10>
  <dData2D:(temp array for extrapolation) n=2229 m=8, refcount: 1>
refcount: 1>
     spin moment: {S} , |S| = {    0.00000    0.00000    0.00000 }     0.00000

InitMesh: MESH = 128 x 128 x 120 = 1966080
InitMesh: Mesh cutoff (required, used) =   300.000   316.179 Ry
New grid distribution [1]: sub = 2
New grid distribution [2]: sub = 2
New grid distribution [3]: sub = 2
Setting up quadratic distribution...

        iscf     Eharris(eV)        E_KS(eV)     FreeEng(eV)     dDmax    Ef(eV) dHmax(eV)
   scf:    1    -4054.921414    -4054.921408    -4054.921408  0.000033 -2.088903  0.000666
     spin moment: {S} , |S| = {    0.00000    0.00000    0.00000 }     0.00000
   scf:    2    -4054.921408    -4054.921408    -4054.921408  0.000013 -2.088540  0.001368
     spin moment: {S} , |S| = {    0.00000    0.00000    0.00000 }     0.00000
   scf:    3    -4054.921408    -4054.921408    -4054.921408  0.000008 -2.088769  0.000147
     spin moment: {S} , |S| = {    0.00000    0.00000    0.00000 }     0.00000
   scf:    4    -4054.921408    -4054.921408    -4054.921408  0.000001 -2.088765  0.000018
     spin moment: {S} , |S| = {    0.00000    0.00000    0.00000 }     0.00000
   scf:    5    -4054.921408    -4054.921408    -4054.921408  0.000000 -2.088765  0.000005
     spin moment: {S} , |S| = {    0.00000    0.00000    0.00000 }     0.00000
   scf:    6    -4054.921408    -4054.921408    -4054.921408  0.000000 -2.088764  0.000001
     spin moment: {S} , |S| = {    0.00000    0.00000    0.00000 }     0.00000

SCF Convergence by DM+H criterion
max |DM_out - DM_in|         :     0.0000001228
max |H_out - H_in|      (eV) :     0.0000007337
SCF cycle converged after 6 iterations

Using DM_out to compute the final energy and forces

siesta: E_KS(eV) =            -4054.9214
     spin moment: {S} , |S| = {    0.00000    0.00000    0.00000 }     0.00000

siesta: Atomic forces (eV/Ang):
     1    0.005985    0.001020   -0.008887
     2   -0.003459   -0.000629   -0.002218
     3   -0.001371   -0.000147   -0.002943
     4   -0.003434    0.002267    0.001207
     5   -0.009474    0.002906   -0.007145
     6   -0.038219    0.020303   -0.000703
     7   -0.000182    0.000038    0.001612
     8    0.002741   -0.001069   -0.001524
     9    0.001316   -0.002116   -0.001271
    10    0.003082   -0.000662   -0.002879
    11   -0.005927    0.002338   -0.015673
    12   -0.004013    0.000509   -0.001241
    13   -0.006301   -0.006738    0.003260
    14   -0.003256    0.000366   -0.000732
    15   -0.002407   -0.000086    0.006109
    16    0.005511   -0.002505    0.004900
    17   -0.008773    0.004168   -0.005168
----------------------------------------
   Tot   -0.068182    0.019962   -0.033299
----------------------------------------
   Max    0.038219
   Res    0.007489    sqrt( Sum f_i^2 / 3N )
----------------------------------------
   Max    0.015673    constrained

Stress tensor Voigt[x,y,z,yz,xz,xy] (kbar):        0.07        0.05        0.01        0.01        0.06       -0.05
(Free)E + p*V (eV/cell)    -4054.9661
Target enthalpy (eV/cell)    -4054.9214

                     ====================================
                        Begin Broyden opt. move =    165
                     ====================================

outcell: Unit cell vectors (Ang):
       11.967244    0.000000    0.000000
        0.000000   11.966144    0.000000
        0.000000    0.000000   11.191744

outcell: Cell vector modules (Ang)   :   11.967244   11.966144   11.191744
outcell: Cell angles (23,13,12) (deg):     90.0000     90.0000     90.0000
outcell: Cell volume (Ang**3)        :   1602.6773
<dSpData1D:S at geom step 165
  <sparsity:sparsity for geom step 165
    nrows_g=141 nrows=18 sparsity=.1121 nnzs=2229, refcount: 8>
  <dData1D:(new from dSpData1D) n=2229, refcount: 1>
refcount: 1>
new_DM -- step:   166
Re-using DM from previous geometries...
Number of DMs in history: 1
 DM extrapolation coefficients: 
1   1.00000
New DM after history re-use:
<dSpData2D:SpM extrapolated using coords
  <sparsity:sparsity for geom step 165
    nrows_g=141 nrows=18 sparsity=.1121 nnzs=2229, refcount: 10>
  <dData2D:(temp array for extrapolation) n=2229 m=8, refcount: 1>
refcount: 1>
     spin moment: {S} , |S| = {    0.00000    0.00000    0.00000 }     0.00000

InitMesh: MESH = 128 x 128 x 120 = 1966080
InitMesh: Mesh cutoff (required, used) =   300.000   316.179 Ry
New grid distribution [1]: sub = 2
New grid distribution [2]: sub = 2
New grid distribution [3]: sub = 2
Setting up quadratic distribution...

        iscf     Eharris(eV)        E_KS(eV)     FreeEng(eV)     dDmax    Ef(eV) dHmax(eV)
   scf:    1    -4054.921061    -4054.921397    -4054.921397  0.000064 -2.088948  0.000890
     spin moment: {S} , |S| = {    0.00000    0.00000    0.00000 }     0.00000
   scf:    2    -4054.921397    -4054.921397    -4054.921397  0.000016 -2.089207  0.001674
     spin moment: {S} , |S| = {    0.00000    0.00000    0.00000 }     0.00000
   scf:    3    -4054.921397    -4054.921397    -4054.921397  0.000010 -2.089035  0.000169
     spin moment: {S} , |S| = {    0.00000    0.00000    0.00000 }     0.00000
   scf:    4    -4054.921397    -4054.921397    -4054.921397  0.000002 -2.089032  0.000034
     spin moment: {S} , |S| = {    0.00000    0.00000    0.00000 }     0.00000
   scf:    5    -4054.921397    -4054.921397    -4054.921397  0.000001 -2.089033  0.000007
     spin moment: {S} , |S| = {    0.00000    0.00000    0.00000 }     0.00000
   scf:    6    -4054.921397    -4054.921397    -4054.921397  0.000000 -2.089033  0.000002
     spin moment: {S} , |S| = {    0.00000    0.00000    0.00000 }     0.00000
   scf:    7    -4054.921397    -4054.921397    -4054.921397  0.000000 -2.089033  0.000000
     spin moment: {S} , |S| = {    0.00000    0.00000    0.00000 }     0.00000

SCF Convergence by DM+H criterion
max |DM_out - DM_in|         :     0.0000000524
max |H_out - H_in|      (eV) :     0.0000004151
SCF cycle converged after 7 iterations

Using DM_out to compute the final energy and forces

siesta: E_KS(eV) =            -4054.9214
     spin moment: {S} , |S| = {    0.00000    0.00000    0.00000 }     0.00000

siesta: Atomic forces (eV/Ang):
     1   -0.003508    0.000945   -0.007985
     2   -0.002084    0.000471   -0.002025
     3   -0.001427    0.000975   -0.003420
     4   -0.002145    0.001193   -0.006952
     5   -0.006029   -0.003117   -0.001402
     6   -0.035802    0.020328    0.000640
     7    0.003456    0.001959   -0.000075
     8    0.003135   -0.001234   -0.001685
     9    0.000749   -0.000560   -0.002125
    10    0.002755   -0.000947    0.004025
    11    0.001583   -0.001987   -0.001065
    12   -0.004023    0.000471   -0.001885
    13   -0.008778    0.003239   -0.004866
    14   -0.002964    0.000153   -0.001062
    15   -0.004860    0.000173   -0.003824
    16   -0.003029   -0.000957   -0.001886
    17   -0.005475   -0.000424    0.002047
----------------------------------------
   Tot   -0.068450    0.020682   -0.033544
----------------------------------------
   Max    0.035802
   Res    0.006558    sqrt( Sum f_i^2 / 3N )
----------------------------------------
   Max    0.008778    constrained

Stress tensor Voigt[x,y,z,yz,xz,xy] (kbar):        0.06        0.04        0.04        0.00        0.07       -0.05
(Free)E + p*V (eV/cell)    -4054.9676
Target enthalpy (eV/cell)    -4054.9214

                     ====================================
                        Begin Broyden opt. move =    166
                     ====================================

outcell: Unit cell vectors (Ang):
       11.967244    0.000000    0.000000
        0.000000   11.966144    0.000000
        0.000000    0.000000   11.191744

outcell: Cell vector modules (Ang)   :   11.967244   11.966144   11.191744
outcell: Cell angles (23,13,12) (deg):     90.0000     90.0000     90.0000
outcell: Cell volume (Ang**3)        :   1602.6773
<dSpData1D:S at geom step 166
  <sparsity:sparsity for geom step 166
    nrows_g=141 nrows=18 sparsity=.1121 nnzs=2229, refcount: 8>
  <dData1D:(new from dSpData1D) n=2229, refcount: 1>
refcount: 1>
new_DM -- step:   167
Re-using DM from previous geometries...
Number of DMs in history: 1
 DM extrapolation coefficients: 
1   1.00000
New DM after history re-use:
<dSpData2D:SpM extrapolated using coords
  <sparsity:sparsity for geom step 166
    nrows_g=141 nrows=18 sparsity=.1121 nnzs=2229, refcount: 10>
  <dData2D:(temp array for extrapolation) n=2229 m=8, refcount: 1>
refcount: 1>
     spin moment: {S} , |S| = {    0.00000    0.00000    0.00000 }     0.00000

InitMesh: MESH = 128 x 128 x 120 = 1966080
InitMesh: Mesh cutoff (required, used) =   300.000   316.179 Ry
New grid distribution [1]: sub = 2
New grid distribution [2]: sub = 2
New grid distribution [3]: sub = 2
Setting up quadratic distribution...

        iscf     Eharris(eV)        E_KS(eV)     FreeEng(eV)     dDmax    Ef(eV) dHmax(eV)
   scf:    1    -4054.921761    -4054.921411    -4054.921411  0.000062 -2.088982  0.000911
     spin moment: {S} , |S| = {    0.00000    0.00000    0.00000 }     0.00000
   scf:    2    -4054.921411    -4054.921411    -4054.921411  0.000018 -2.088612  0.001987
     spin moment: {S} , |S| = {    0.00000    0.00000    0.00000 }     0.00000
   scf:    3    -4054.921411    -4054.921411    -4054.921411  0.000011 -2.088859  0.000184
     spin moment: {S} , |S| = {    0.00000    0.00000    0.00000 }     0.00000
   scf:    4    -4054.921411    -4054.921411    -4054.921411  0.000002 -2.088863  0.000033
     spin moment: {S} , |S| = {    0.00000    0.00000    0.00000 }     0.00000
   scf:    5    -4054.921411    -4054.921411    -4054.921411  0.000001 -2.088863  0.000010
     spin moment: {S} , |S| = {    0.00000    0.00000    0.00000 }     0.00000
   scf:    6    -4054.921411    -4054.921411    -4054.921411  0.000000 -2.088863  0.000002
     spin moment: {S} , |S| = {    0.00000    0.00000    0.00000 }     0.00000
   scf:    7    -4054.921411    -4054.921411    -4054.921411  0.000000 -2.088862  0.000000
     spin moment: {S} , |S| = {    0.00000    0.00000    0.00000 }     0.00000

SCF Convergence by DM+H criterion
max |DM_out - DM_in|         :     0.0000000508
max |H_out - H_in|      (eV) :     0.0000004960
SCF cycle converged after 7 iterations

Using DM_out to compute the final energy and forces

siesta: E_KS(eV) =            -4054.9214
     spin moment: {S} , |S| = {    0.00000    0.00000    0.00000 }     0.00000

siesta: Atomic forces (eV/Ang):
     1   -0.001974    0.000651   -0.007988
     2   -0.002166    0.000142   -0.002268
     3   -0.001893    0.000582   -0.003088
     4   -0.000013    0.001905   -0.000998
     5   -0.005391    0.000004   -0.005993
     6   -0.038201    0.020144   -0.000740
     7   -0.001666    0.001539    0.001606
     8    0.002815   -0.001214   -0.001505
     9    0.000570   -0.001526   -0.001850
    10    0.002641   -0.000978    0.001017
    11    0.001489   -0.002254   -0.000856
    12   -0.004193    0.000438   -0.001649
    13   -0.002338    0.001218   -0.006703
    14   -0.002730    0.000260   -0.000604
    15   -0.005684    0.000703   -0.001242
    16   -0.003616   -0.002034    0.000351
    17   -0.005581    0.000677    0.000214
----------------------------------------
   Tot   -0.067930    0.020257   -0.032295
----------------------------------------
   Max    0.038201
   Res    0.006617    sqrt( Sum f_i^2 / 3N )
----------------------------------------
   Max    0.007988    constrained

Stress tensor Voigt[x,y,z,yz,xz,xy] (kbar):        0.08        0.05        0.05       -0.00        0.06       -0.05
(Free)E + p*V (eV/cell)    -4054.9805
Target enthalpy (eV/cell)    -4054.9214

outcoor: Relaxed atomic coordinates (Ang):                  
    3.68694437   -8.23006530    3.46012804   1       1  H
    4.37435466   -7.54425362    3.42916773   2       2  O
    5.63521741   -8.16385252    3.14594895   3       3  C
    5.61508901   -8.67698888    2.15866830   1       4  H
    5.91266772   -8.92730503    3.89282109   1       5  H
    6.71300000   -7.09900000    3.13000000   3       6  C
    7.70882557   -7.56865022    3.15047918   1       7  H
    6.59861199   -6.40547788    1.86769838   2       8  O
    6.92554454   -4.99922893    2.00685878   3       9  C
    7.76477632   -4.74681974    1.29058978   1      10  H
    6.03885547   -4.48517894    1.60184115   1      11  H
    6.65543236   -6.03781694    4.24050338   3      12  C
    5.57484462   -5.75893250    4.26485902   1      13  H
    7.39194100   -4.91153523    3.50049592   3      14  C
    7.48253718   -4.02829560    4.17829239   1      15  H
    8.38171209   -5.29164259    3.30496151   1      16  H
    7.13313752   -6.31215356    5.30231666   1      17  H

siesta: Program's energy decomposition (eV):
siesta: Ebs     =      -531.335523
siesta: Eions   =      7213.400106
siesta: Ena     =      2438.211597
siesta: Ekin    =      1373.214718
siesta: Enl(+so)=       -63.431305
siesta: Eso(nil)=         0.000000
siesta: Edftu   =         0.000000
siesta: DEna    =       -71.340572
siesta: DUscf   =         5.820889
siesta: DUext   =         0.000000
siesta: Ex      =      -481.656024
siesta: Ec      =       -42.340608
siesta: Exc     =      -523.996632
siesta: EbV     =         0.000000
siesta: eta*DQ  =         0.000000
siesta: Emadel  =         0.000000
siesta: Emeta   =         0.000000
siesta: Emolmec =         0.000000
siesta: Ekinion =         0.000000
siesta: Eharris =     -4054.921411
siesta: Etot    =     -4054.921411
siesta: FreeEng =     -4054.921411

siesta: Final energy (eV):
siesta:  Band Struct. =    -531.335523
siesta:       Kinetic =    1373.214718
siesta:       Hartree =    3528.092584
siesta:         Edftu =       0.000000
siesta:      Eso(nil) =       0.000000
siesta:    Ext. field =       0.000000
siesta:         Exch. =    -481.656024
siesta:         Corr. =     -42.340608
siesta:     Bulk bias =       0.000000
siesta:   Exch.-corr. =    -523.996632
siesta:  Ion-electron =   -8280.445387
siesta:       Ion-ion =    -151.786693
siesta:       Ekinion =       0.000000
siesta: D3 dispersion =       0.000000
siesta:         Total =   -4054.921411
siesta:         Fermi =      -2.088862

siesta: Atomic forces (eV/Ang):
siesta:      1   -0.001974    0.000651   -0.007988
siesta:      2   -0.002166    0.000142   -0.002268
siesta:      3   -0.001893    0.000582   -0.003088
siesta:      4   -0.000013    0.001905   -0.000998
siesta:      5   -0.005391    0.000004   -0.005993
siesta:      6   -0.038201    0.020144   -0.000740
siesta:      7   -0.001666    0.001539    0.001606
siesta:      8    0.002815   -0.001214   -0.001505
siesta:      9    0.000570   -0.001526   -0.001850
siesta:     10    0.002641   -0.000978    0.001017
siesta:     11    0.001489   -0.002254   -0.000856
siesta:     12   -0.004193    0.000438   -0.001649
siesta:     13   -0.002338    0.001218   -0.006703
siesta:     14   -0.002730    0.000260   -0.000604
siesta:     15   -0.005684    0.000703   -0.001242
siesta:     16   -0.003616   -0.002034    0.000351
siesta:     17   -0.005581    0.000677    0.000214
siesta: ----------------------------------------
siesta:    Tot   -0.067930    0.020257   -0.032295

siesta: Stress tensor (static) (eV/Ang**3):
siesta:     0.000051   -0.000031    0.000040
siesta:    -0.000031    0.000030   -0.000001
siesta:     0.000040   -0.000001    0.000029

siesta: Cell volume =       1602.677318 Ang**3

siesta: Pressure (static):
siesta:                Solid            Molecule  Units
siesta:          -0.00000040         -0.00000028  Ry/Bohr**3
siesta:          -0.00003684         -0.00002551  eV/Ang**3
siesta:          -0.05902561         -0.04087034  kBar
(Free)E+ p_basis*V_orbitals  =       -4049.154258
(Free)Eharris+ p_basis*V_orbitals  =       -4049.154258
     spin moment: {S} , |S| = {    0.00000    0.00000    0.00000 }     0.00000

siesta: Electric dipole (a.u.)  =    0.078803   -0.343556    0.387847
siesta: Electric dipole (Debye) =    0.200297   -0.873232    0.985810

cite: Please see "Desoxy.bib" for an exhaustive BiBTeX file.
cite: Please clearly indicate Siesta version in published work: 5.1-MaX-41-g6ad11e234
cite: This calculation has made use of the following articles
cite: which are encouraged to be cited in a published work.
        Primary SIESTA paper
          DOI: www.doi.org/10.1088/0953-8984/14/11/302
        Spin-orbit coupling (off-site approximation)
          DOI: www.doi.org/10.1088/0953-8984/24/8/086005
        ELPA library
          DOI: www.doi.org/10.1088/0953-8984/26/21/213201


>> End of run:   3-SEP-2024  19:59:31
Job completed
