Siesta Version  : v4.1.5-1-g384057250
Architecture    : gcc
Compiler version: GNU Fortran (Ubuntu 11.4.0-1ubuntu1~22.04) 11.4.0
Compiler flags  : mpifort -O2 -fPIC -ftree-vectorize -fallow-argument-mismatch
PP flags        : -DFC_HAVE_ABORT -DMPI -DSIESTA__FLOOK -DSIESTA__METIS -DSIESTA__MUMPS -DCDF -DNCDF -DNCDF_4 -DNCDF_PARALLEL -DSIESTA__MRRR -DSIESTA__ELPA
Libraries       : libncdf.a libfdict.a  -lflookall -ldl -lnetcdff -lnetcdf -lhdf5_hl -lhdf5 -lhdf5_fortran -lz -lscalapack-openmpi -lopenblas -lmetis -lzmumps -lcmumps -ldmumps -lmumps_common -lpord -lsmumps -lesmumps -lscotch -lscotcherr -fopenmp -lelpa
PARALLEL version
NetCDF support
NetCDF-4 support
NetCDF-4 MPI-IO support
METIS ordering support
Lua support

* Running on 8 nodes in parallel
>> Start of run:   1-FEB-2024  18:24:17

                           ***********************       
                           *  WELCOME TO SIESTA  *       
                           ***********************       

reinit: Reading from standard input
reinit: Dumped input in INPUT_TMP.47344
************************** Dump of input data file ****************************
# mpirun -np 4 siesta-4.1.5 < AT.fdf > AT.out &
SystemLabel      AT
NumberOfAtoms    30
NumberOfSpecies  4
%block ChemicalSpeciesLabel
    1    1  H
    2    7  N
    3   14  Si
    4    8  O
%endblock ChemicalSpeciesLabel
############################################
# This overrides Defaults.fdf configuration
############################################
MD.TypeOfRun                Verlet # CG, Verlet
MD.Steps                    0
MaxSCFIterations            200
SCF.MustConverge            F
AtomicCoordinatesFormat NotScaledCartesianAng
%block AtomicCoordinatesAndAtomicSpecies
    2.28494382 -5.19529124 0.0  1  1  H
    1.37433094 -4.6647107 0.0  2  2  N
    -0.21830245 -5.49458215 0.0  3  3  Si
    -0.17484108 -6.98516892 0.0  1  4  H
    -1.66171682 -4.58600741 0.0  2  5  N
    -1.09026419 -2.87456374 0.0  3  6  Si
    -1.53038332 -0.70765692 0.0  3  7  Si
    -3.14415959 -0.09186471 0.0  2  8  N
    -3.40268075 0.95848335 0.0  1  9  H
    -3.95073599 -0.76720972 0.0  1  10  H
    -0.17836637 0.41349951 0.0  2  11  N
    1.49520211 -0.0473996 0.0  3  12  Si
    2.45603905 1.10727302 0.0  1  13  H
    2.30451743 -1.58574382 0.0  2  14  N
    1.10725559 -2.84610319 0.0  3  15  Si
    0.5549568414890249 7.656435142864929 0.0  1  16  H
    -0.25375383851097516 6.9642292628649285 0.0  2  17  N
    -1.910343678510975 7.677349362864929 0.0  3  18  Si
    -1.813478508510975 9.18807457286493 0.0  1  19  H
    -3.636500028510975 6.334301232864928 0.0  3  20  Si
    -5.9909542785109755 6.326314302864929 0.0  3  21  Si
    -6.553372398510976 7.060803952864928 -1.20183078  1  22  H
    -6.290768028510976 4.847223172864928 -0.08618332  1  23  H
    -6.553484858510975 6.8911467628649286 1.28814761  1  24  H
    -2.7071093885109754 4.2637300028649285 0.0  3  25  Si
    -3.6565777485109754 2.9751938728649283 0.0  4  26  O
    -0.9161645185109751 4.089994532864929 0.0  2  27  N
    -0.5851731585109751 3.0576375528649287 0.0  1  28  H
    0.3922937014890248 5.284540952864928 0.0  3  29  Si
    1.9582306314890248 5.017294102864929 0.0  4  30  O
%endblock AtomicCoordinatesAndAtomicSpecies
#############
# Unit Cell
#############
LatticeConstant 1.0 Ang
%block LatticeVectors
    30.00000    0.000000    0.000000
    0.000000    45.00000    0.000000
    0.000000    0.000000    10.00000
%endblock LatticeVectors
%include ../../../../Defaults.fdf
************************** End of input data file *****************************

reinit: -----------------------------------------------------------------------
reinit: System Name: 
reinit: -----------------------------------------------------------------------
reinit: System Label: AT
reinit: -----------------------------------------------------------------------

initatom: Reading input for the pseudopotentials and atomic orbitals ----------
Species number:   1 Atomic number:    1 Label: H
Species number:   2 Atomic number:    7 Label: N
Species number:   3 Atomic number:   14 Label: Si
Species number:   4 Atomic number:    8 Label: O

Ground state valence configuration:   1s01
Reading pseudopotential information in formatted form from H.psf

Pseudopotential generated from a relativistic atomic calculation

Valence configuration for pseudopotential generation:
1s( 1.00) rc: 0.01
2p( 0.00) rc: 0.60
3d( 0.00) rc: 1.99
4f( 0.00) rc: 2.49
Ground state valence configuration:   2s02  2p03
Reading pseudopotential information in formatted form from N.psf

Pseudopotential generated from a relativistic atomic calculation

Valence configuration for pseudopotential generation:
2s( 2.00) rc: 0.94
2p( 3.00) rc: 0.59
3d( 0.00) rc: 3.46
4f( 0.00) rc: 2.47
Ground state valence configuration:   3s02  3p02
Reading pseudopotential information in formatted form from Si.psf

Pseudopotential generated from a relativistic atomic calculation

Valence configuration for pseudopotential generation:
3s( 2.00) rc: 1.67
3p( 2.00) rc: 2.04
3d( 0.00) rc: 2.89
4f( 0.00) rc: 2.49
Ground state valence configuration:   2s02  2p04
Reading pseudopotential information in formatted form from O.psf

Pseudopotential generated from a relativistic atomic calculation

Valence configuration for pseudopotential generation:
2s( 2.00) rc: 0.45
2p( 4.00) rc: 0.92
3d( 0.00) rc: 2.24
4f( 0.00) rc: 0.25
For H, standard SIESTA heuristics set lmxkb to 2
 (one more than the basis l, including polarization orbitals).
Use PS.lmax or PS.KBprojectors blocks to override.
For N, standard SIESTA heuristics set lmxkb to 3
 (one more than the basis l, including polarization orbitals).
Use PS.lmax or PS.KBprojectors blocks to override.
For Si, standard SIESTA heuristics set lmxkb to 3
 (one more than the basis l, including polarization orbitals).
Use PS.lmax or PS.KBprojectors blocks to override.
For O, standard SIESTA heuristics set lmxkb to 3
 (one more than the basis l, including polarization orbitals).
Use PS.lmax or PS.KBprojectors blocks to override.

<basis_specs>
===============================================================================
H                    Z=   1    Mass=  1.0100        Charge= 0.17977+309
Lmxo=0 Lmxkb= 2    BasisType=split      Semic=F
L=0  Nsemic=0  Cnfigmx=1
          i=1  nzeta=2  polorb=1  (1s)
            splnorm:   0.62000    
               vcte:    0.0000    
               rinn:    0.0000    
               qcoe:    0.0000    
               qyuk:    0.0000    
               qwid:   0.10000E-01
                rcs:    0.0000      0.0000    
            lambdas:    1.0000      1.0000    
-------------------------------------------------------------------------------
L=0  Nkbl=1  erefs: 0.17977+309
L=1  Nkbl=1  erefs: 0.17977+309
L=2  Nkbl=1  erefs: 0.17977+309
===============================================================================
</basis_specs>

atom: Called for H                     (Z =   1)

read_vps: Pseudopotential generation method:
read_vps: ATM4.2.7  Troullier-Martins                       
Valence charge for ps generation:    1.00000

xc_check: Exchange-correlation functional:
xc_check: GGA Perdew, Burke & Ernzerhof 1996
V l=0 = -2*Zval/r beyond r=  0.0098
V l=1 = -2*Zval/r beyond r=  0.5817
V l=2 = -2*Zval/r beyond r=  1.9372
All V_l potentials equal beyond r=  1.9372
This should be close to max(r_c) in ps generation
All pots = -2*Zval/r beyond r=  1.9372

VLOCAL1: 99.0% of the norm of Vloc inside     11.567 Ry
VLOCAL1: 99.9% of the norm of Vloc inside     26.362 Ry
atom: Maximum radius for 4*pi*r*r*local-pseudopot. charge    2.25106
atom: Maximum radius for r*vlocal+2*Zval:    1.91306
GHOST: No ghost state for L =  0
GHOST: No ghost state for L =  1
GHOST: No ghost state for L =  2

KBgen: Kleinman-Bylander projectors: 
   l= 0   rc=  2.036604   el= -0.477180   Ekb= -6.081590   kbcos= -0.277285
   l= 1   rc=  2.195416   el=  0.001076   Ekb= -0.926943   kbcos= -0.034643
   l= 2   rc=  2.251056   el=  0.002010   Ekb= -0.130941   kbcos= -0.009788

KBgen: Total number of Kleinman-Bylander projectors:    9
atom: -------------------------------------------------------------------------

atom: SANKEY-TYPE ORBITALS:
atom: Selected multiple-zeta basis: split     

SPLIT: Orbitals with angular momentum L= 0

SPLIT: Basis orbitals for state 1s

SPLIT: PAO cut-off radius determined from an
SPLIT: energy shift=  0.002000 Ry

   izeta = 1
                 lambda =    1.000000
                     rc =    6.518340
                 energy =   -0.475305
                kinetic =    0.912139
    potential(screened) =   -1.387444
       potential(ionic) =   -1.907295

   izeta = 2
                 rmatch =    2.141150
              splitnorm =    0.620000
                 energy =    0.566467
                kinetic =    3.772856
    potential(screened) =   -3.206389
       potential(ionic) =   -3.759093

POLgen: Perturbative polarization orbital with L=  1

POLgen: Polarization orbital for state 1s

   izeta = 1
                     rc =    6.518340
                 energy =    0.533861
                kinetic =    1.121086
    potential(screened) =   -0.587225
       potential(ionic) =   -1.053027
atom: Total number of Sankey-type orbitals:  5

atm_pop: Valence configuration (for local Pseudopot. screening):
 1s( 1.00)                                                            
Vna: chval, zval:    1.00000   1.00000

Vna:  Cut-off radius for the neutral-atom potential:   6.518340

atom: _________________________________________________________________________

<basis_specs>
===============================================================================
N                    Z=   7    Mass=  14.010        Charge= 0.17977+309
Lmxo=1 Lmxkb= 3    BasisType=split      Semic=F
L=0  Nsemic=0  Cnfigmx=2
          i=1  nzeta=2  polorb=0  (2s)
            splnorm:   0.28000    
               vcte:    0.0000    
               rinn:    0.0000    
               qcoe:    0.0000    
               qyuk:    0.0000    
               qwid:   0.10000E-01
                rcs:    0.0000      0.0000    
            lambdas:    1.0000      1.0000    
L=1  Nsemic=0  Cnfigmx=2
          i=1  nzeta=2  polorb=1  (2p)
            splnorm:   0.28000    
               vcte:    0.0000    
               rinn:    0.0000    
               qcoe:    0.0000    
               qyuk:    0.0000    
               qwid:   0.10000E-01
                rcs:    0.0000      0.0000    
            lambdas:    1.0000      1.0000    
-------------------------------------------------------------------------------
L=0  Nkbl=1  erefs: 0.17977+309
L=1  Nkbl=1  erefs: 0.17977+309
L=2  Nkbl=1  erefs: 0.17977+309
L=3  Nkbl=1  erefs: 0.17977+309
===============================================================================
</basis_specs>

atom: Called for N                     (Z =   7)

read_vps: Pseudopotential generation method:
read_vps: ATM4.2.7  Troullier-Martins                       
Valence charge for ps generation:    5.00000

xc_check: Exchange-correlation functional:
xc_check: GGA Perdew, Burke & Ernzerhof 1996
V l=0 = -2*Zval/r beyond r=  1.2889
V l=1 = -2*Zval/r beyond r=  1.2889
V l=2 = -2*Zval/r beyond r=  3.4178
V l=3 = -2*Zval/r beyond r=  2.4084
All V_l potentials equal beyond r=  3.3753
This should be close to max(r_c) in ps generation
All pots = -2*Zval/r beyond r=  3.4178

VLOCAL1: 99.0% of the norm of Vloc inside      3.810 Ry
VLOCAL1: 99.9% of the norm of Vloc inside      8.683 Ry
atom: Maximum radius for 4*pi*r*r*local-pseudopot. charge    4.02088
atom: Maximum radius for r*vlocal+2*Zval:    3.54838
GHOST: No ghost state for L =  0
GHOST: No ghost state for L =  1
GHOST: No ghost state for L =  2
GHOST: No ghost state for L =  3

KBgen: Kleinman-Bylander projectors: 
   l= 0   rc=  3.417763   el= -1.365098   Ekb= -4.433130   kbcos= -0.707855
   l= 1   rc=  3.375302   el= -0.521201   Ekb=-13.264039   kbcos= -0.535594
   l= 2   rc=  3.872880   el=  0.001991   Ekb= -0.641094   kbcos= -0.062456
   l= 3   rc=  3.970931   el=  0.003093   Ekb= -0.474517   kbcos= -0.018236

KBgen: Total number of Kleinman-Bylander projectors:   16
atom: -------------------------------------------------------------------------

atom: SANKEY-TYPE ORBITALS:
atom: Selected multiple-zeta basis: split     

SPLIT: Orbitals with angular momentum L= 0

SPLIT: Basis orbitals for state 2s

SPLIT: PAO cut-off radius determined from an
SPLIT: energy shift=  0.002000 Ry

   izeta = 1
                 lambda =    1.000000
                     rc =    4.730425
                 energy =   -1.363399
                kinetic =    1.245246
    potential(screened) =   -2.608645
       potential(ionic) =   -8.121105

   izeta = 2
                 rmatch =    2.531849
              splitnorm =    0.280000
                 energy =   -0.959908
                kinetic =    2.409435
    potential(screened) =   -3.369343
       potential(ionic) =   -9.427975

SPLIT: Orbitals with angular momentum L= 1

SPLIT: Basis orbitals for state 2p

SPLIT: PAO cut-off radius determined from an
SPLIT: energy shift=  0.002000 Ry

   izeta = 1
                 lambda =    1.000000
                     rc =    5.924108
                 energy =   -0.519262
                kinetic =    3.672940
    potential(screened) =   -4.192202
       potential(ionic) =   -9.518354

   izeta = 2
                 rmatch =    2.531849
              splitnorm =    0.280000
                 energy =   -0.104258
                kinetic =    6.807538
    potential(screened) =   -6.911796
       potential(ionic) =  -13.149920

POLgen: Perturbative polarization orbital with L=  2

POLgen: Polarization orbital for state 2p

   izeta = 1
                     rc =    5.924108
                 energy =    1.427508
                kinetic =    2.872379
    potential(screened) =   -1.444871
       potential(ionic) =   -5.563644
atom: Total number of Sankey-type orbitals: 13

atm_pop: Valence configuration (for local Pseudopot. screening):
 2s( 2.00)                                                            
 2p( 3.00)                                                            
Vna: chval, zval:    5.00000   5.00000

Vna:  Cut-off radius for the neutral-atom potential:   5.924108

atom: _________________________________________________________________________

<basis_specs>
===============================================================================
Si                   Z=  14    Mass=  28.090        Charge= 0.17977+309
Lmxo=1 Lmxkb= 3    BasisType=split      Semic=F
L=0  Nsemic=0  Cnfigmx=3
          i=1  nzeta=2  polorb=0  (3s)
            splnorm:   0.28000    
               vcte:    0.0000    
               rinn:    0.0000    
               qcoe:    0.0000    
               qyuk:    0.0000    
               qwid:   0.10000E-01
                rcs:    0.0000      0.0000    
            lambdas:    1.0000      1.0000    
L=1  Nsemic=0  Cnfigmx=3
          i=1  nzeta=2  polorb=1  (3p)
            splnorm:   0.28000    
               vcte:    0.0000    
               rinn:    0.0000    
               qcoe:    0.0000    
               qyuk:    0.0000    
               qwid:   0.10000E-01
                rcs:    0.0000      0.0000    
            lambdas:    1.0000      1.0000    
-------------------------------------------------------------------------------
L=0  Nkbl=1  erefs: 0.17977+309
L=1  Nkbl=1  erefs: 0.17977+309
L=2  Nkbl=1  erefs: 0.17977+309
L=3  Nkbl=1  erefs: 0.17977+309
===============================================================================
</basis_specs>

atom: Called for Si                    (Z =  14)

read_vps: Pseudopotential generation method:
read_vps: ATM4.2.7  Troullier-Martins                       
Valence charge for ps generation:    4.00000

xc_check: Exchange-correlation functional:
xc_check: GGA Perdew, Burke & Ernzerhof 1996
V l=0 = -2*Zval/r beyond r=  2.7826
V l=1 = -2*Zval/r beyond r=  2.7826
V l=2 = -2*Zval/r beyond r=  2.9253
V l=3 = -2*Zval/r beyond r=  2.7826
All V_l potentials equal beyond r=  2.8530
This should be close to max(r_c) in ps generation
All pots = -2*Zval/r beyond r=  2.9253

VLOCAL1: 99.0% of the norm of Vloc inside      5.333 Ry
VLOCAL1: 99.9% of the norm of Vloc inside     12.154 Ry
atom: Maximum radius for 4*pi*r*r*local-pseudopot. charge    3.39869
atom: Maximum radius for r*vlocal+2*Zval:    2.96205
GHOST: No ghost state for L =  0
GHOST: No ghost state for L =  1
GHOST: No ghost state for L =  2
GHOST: No ghost state for L =  3

KBgen: Kleinman-Bylander projectors: 
   l= 0   rc=  3.075247   el= -0.794092   Ekb=  5.879390   kbcos=  0.167461
   l= 1   rc=  3.153101   el= -0.300068   Ekb=  2.642817   kbcos=  0.058301
   l= 2   rc=  3.273594   el=  0.001958   Ekb= -1.185135   kbcos= -0.104411
   l= 3   rc=  3.232927   el=  0.003046   Ekb= -0.497174   kbcos= -0.015889

KBgen: Total number of Kleinman-Bylander projectors:   16
atom: -------------------------------------------------------------------------

atom: SANKEY-TYPE ORBITALS:
atom: Selected multiple-zeta basis: split     

SPLIT: Orbitals with angular momentum L= 0

SPLIT: Basis orbitals for state 3s

SPLIT: PAO cut-off radius determined from an
SPLIT: energy shift=  0.002000 Ry

   izeta = 1
                 lambda =    1.000000
                     rc =    6.429618
                 energy =   -0.792283
                kinetic =    0.525293
    potential(screened) =   -1.317576
       potential(ionic) =   -3.744923

   izeta = 2
                 rmatch =    3.998416
              splitnorm =    0.280000
                 energy =   -0.583081
                kinetic =    1.069570
    potential(screened) =   -1.652651
       potential(ionic) =   -4.235185

SPLIT: Orbitals with angular momentum L= 1

SPLIT: Basis orbitals for state 3p

SPLIT: PAO cut-off radius determined from an
SPLIT: energy shift=  0.002000 Ry

   izeta = 1
                 lambda =    1.000000
                     rc =    8.464845
                 energy =   -0.298236
                kinetic =    0.785360
    potential(screened) =   -1.083596
       potential(ionic) =   -3.273779

   izeta = 2
                 rmatch =    4.587816
              splitnorm =    0.280000
                 energy =   -0.131871
                kinetic =    1.403687
    potential(screened) =   -1.535557
       potential(ionic) =   -4.015310

POLgen: Perturbative polarization orbital with L=  2

POLgen: Polarization orbital for state 3p

   izeta = 1
                     rc =    8.464845
                 energy =    0.321949
                kinetic =    1.055677
    potential(screened) =   -0.733728
       potential(ionic) =   -2.672950
atom: Total number of Sankey-type orbitals: 13

atm_pop: Valence configuration (for local Pseudopot. screening):
 3s( 2.00)                                                            
 3p( 2.00)                                                            
Vna: chval, zval:    4.00000   4.00000

Vna:  Cut-off radius for the neutral-atom potential:   8.464845

atom: _________________________________________________________________________

<basis_specs>
===============================================================================
O                    Z=   8    Mass=  16.000        Charge= 0.17977+309
Lmxo=1 Lmxkb= 3    BasisType=split      Semic=F
L=0  Nsemic=0  Cnfigmx=2
          i=1  nzeta=2  polorb=0  (2s)
            splnorm:   0.28000    
               vcte:    0.0000    
               rinn:    0.0000    
               qcoe:    0.0000    
               qyuk:    0.0000    
               qwid:   0.10000E-01
                rcs:    0.0000      0.0000    
            lambdas:    1.0000      1.0000    
L=1  Nsemic=0  Cnfigmx=2
          i=1  nzeta=2  polorb=1  (2p)
            splnorm:   0.28000    
               vcte:    0.0000    
               rinn:    0.0000    
               qcoe:    0.0000    
               qyuk:    0.0000    
               qwid:   0.10000E-01
                rcs:    0.0000      0.0000    
            lambdas:    1.0000      1.0000    
-------------------------------------------------------------------------------
L=0  Nkbl=1  erefs: 0.17977+309
L=1  Nkbl=1  erefs: 0.17977+309
L=2  Nkbl=1  erefs: 0.17977+309
L=3  Nkbl=1  erefs: 0.17977+309
===============================================================================
</basis_specs>

atom: Called for O                     (Z =   8)

read_vps: Pseudopotential generation method:
read_vps: ATM4.2.7  Troullier-Martins                       
Valence charge for ps generation:    6.00000

xc_check: Exchange-correlation functional:
xc_check: GGA Perdew, Burke & Ernzerhof 1996
V l=0 = -2*Zval/r beyond r=  1.1000
V l=1 = -2*Zval/r beyond r=  1.1000
V l=2 = -2*Zval/r beyond r=  2.2154
V l=3 = -2*Zval/r beyond r=  1.1000
All V_l potentials equal beyond r=  2.2154
This should be close to max(r_c) in ps generation
All pots = -2*Zval/r beyond r=  2.2154

VLOCAL1: 99.0% of the norm of Vloc inside      8.845 Ry
VLOCAL1: 99.9% of the norm of Vloc inside     20.157 Ry
atom: Maximum radius for 4*pi*r*r*local-pseudopot. charge    2.67231
atom: Maximum radius for r*vlocal+2*Zval:    2.32897
GHOST: No ghost state for L =  0
GHOST: No ghost state for L =  1
GHOST: No ghost state for L =  2
GHOST: No ghost state for L =  3

KBgen: Kleinman-Bylander projectors: 
   l= 0   rc=  2.243238   el= -1.759686   Ekb=**********   kbcos= -0.171774
   l= 1   rc=  2.328968   el= -0.663873   Ekb=-14.506792   kbcos= -0.519897
   l= 2   rc=  2.573941   el=  0.002031   Ekb= -1.137373   kbcos= -0.019581
   l= 3   rc=  2.606321   el=  0.003153   Ekb= -1.013546   kbcos= -0.003122

KBgen: Total number of Kleinman-Bylander projectors:   16
atom: -------------------------------------------------------------------------

atom: SANKEY-TYPE ORBITALS:
atom: Selected multiple-zeta basis: split     

SPLIT: Orbitals with angular momentum L= 0

SPLIT: Basis orbitals for state 2s

SPLIT: PAO cut-off radius determined from an
SPLIT: energy shift=  0.002000 Ry

   izeta = 1
                 lambda =    1.000000
                     rc =    4.243912
                 energy =   -1.758270
                kinetic =    3.286084
    potential(screened) =   -5.044353
       potential(ionic) =  -12.921184

   izeta = 2
                 rmatch =    2.187845
              splitnorm =    0.280000
                 energy =   -0.885018
                kinetic =    8.134434
    potential(screened) =   -9.019452
       potential(ionic) =  -17.710645

SPLIT: Orbitals with angular momentum L= 1

SPLIT: Basis orbitals for state 2p

SPLIT: PAO cut-off radius determined from an
SPLIT: energy shift=  0.002000 Ry

   izeta = 1
                 lambda =    1.000000
                     rc =    5.314825
                 energy =   -0.661986
                kinetic =    4.917472
    potential(screened) =   -5.579458
       potential(ionic) =  -13.236259

   izeta = 2
                 rmatch =    2.160663
              splitnorm =    0.280000
                 energy =   -0.068760
                kinetic =    9.183374
    potential(screened) =   -9.252135
       potential(ionic) =  -18.274251

POLgen: Perturbative polarization orbital with L=  2

POLgen: Polarization orbital for state 2p

   izeta = 1
                     rc =    5.314825
                 energy =    1.970580
                kinetic =    3.886128
    potential(screened) =   -1.915547
       potential(ionic) =   -7.749584
atom: Total number of Sankey-type orbitals: 13

atm_pop: Valence configuration (for local Pseudopot. screening):
 2s( 2.00)                                                            
 2p( 4.00)                                                            
Vna: chval, zval:    6.00000   6.00000

Vna:  Cut-off radius for the neutral-atom potential:   5.314825

atom: _________________________________________________________________________

prinput: Basis input ----------------------------------------------------------

PAO.BasisType split     

%block ChemicalSpeciesLabel
    1    1 H                       # Species index, atomic number, species label
    2    7 N                       # Species index, atomic number, species label
    3   14 Si                      # Species index, atomic number, species label
    4    8 O                       # Species index, atomic number, species label
%endblock ChemicalSpeciesLabel

%block PAO.Basis                 # Define Basis set
H                     1                    # Species label, number of l-shells
 n=1   0   2 P   1                   # n, l, Nzeta, Polarization, NzetaPol
   6.518      2.141   
   1.000      1.000   
N                     2                    # Species label, number of l-shells
 n=2   0   2                         # n, l, Nzeta 
   4.730      2.532   
   1.000      1.000   
 n=2   1   2 P   1                   # n, l, Nzeta, Polarization, NzetaPol
   5.924      2.532   
   1.000      1.000   
Si                    2                    # Species label, number of l-shells
 n=3   0   2                         # n, l, Nzeta 
   6.430      3.998   
   1.000      1.000   
 n=3   1   2 P   1                   # n, l, Nzeta, Polarization, NzetaPol
   8.465      4.588   
   1.000      1.000   
O                     2                    # Species label, number of l-shells
 n=2   0   2                         # n, l, Nzeta 
   4.244      2.188   
   1.000      1.000   
 n=2   1   2 P   1                   # n, l, Nzeta, Polarization, NzetaPol
   5.315      2.161   
   1.000      1.000   
%endblock PAO.Basis

prinput: ----------------------------------------------------------------------

Dumping basis to NetCDF file H.ion.nc
Dumping basis to NetCDF file N.ion.nc
Dumping basis to NetCDF file Si.ion.nc
Dumping basis to NetCDF file O.ion.nc
coor:   Atomic-coordinates input format  =     Cartesian coordinates
coor:                                          (in Angstroms)

siesta: Atomic coordinates (Bohr) and species
siesta:      4.31792  -9.81768   0.00000  1        1
siesta:      2.59711  -8.81503   0.00000  2        2
siesta:     -0.41253 -10.38326   0.00000  3        3
siesta:     -0.33040 -13.20006   0.00000  1        4
siesta:     -3.14019  -8.66630   0.00000  2        5
siesta:     -2.06030  -5.43214   0.00000  3        6
siesta:     -2.89201  -1.33728   0.00000  3        7
siesta:     -5.94160  -0.17360   0.00000  2        8
siesta:     -6.43014   1.81127   0.00000  1        9
siesta:     -7.46581  -1.44982   0.00000  1       10
siesta:     -0.33706   0.78140   0.00000  2       11
siesta:      2.82552  -0.08957   0.00000  3       12
siesta:      4.64124   2.09244   0.00000  1       13
siesta:      4.35491  -2.99662   0.00000  2       14
siesta:      2.09241  -5.37836   0.00000  3       15
siesta:      1.04872  14.46857   0.00000  1       16
siesta:     -0.47953  13.16049   0.00000  2       17
siesta:     -3.61003  14.50809   0.00000  3       18
siesta:     -3.42698  17.36295   0.00000  1       19
siesta:     -6.87199  11.97010   0.00000  3       20
siesta:    -11.32127  11.95501   0.00000  3       21
siesta:    -12.38408  13.34299  -2.27113  1       22
siesta:    -11.88783   9.15993  -0.16286  1       23
siesta:    -12.38430  13.02239   2.43425  1       24
siesta:     -5.11570   8.05729   0.00000  3       25
siesta:     -6.90993   5.62230   0.00000  4       26
siesta:     -1.73130   7.72897   0.00000  2       27
siesta:     -1.10582   5.77810   0.00000  1       28
siesta:      0.74133   9.98634   0.00000  3       29
siesta:      3.70052   9.48132   0.00000  4       30

siesta: System type = molecule  

initatomlists: Number of atoms, orbitals, and projectors:     30   302   403

siesta: ******************** Simulation parameters ****************************
siesta:
siesta: The following are some of the parameters of the simulation.
siesta: A complete list of the parameters used, including default values,
siesta: can be found in file out.fdf
siesta:
redata: Spin configuration                          = spin-orbit
redata: Number of spin components                   = 8
redata: Time-Reversal Symmetry                      = F
redata: Spin spiral                                 = F
############################################################
This spin-orbit implementation uses a local approximation.
From 4.2 and onwards the full non-local approximation is implemented
You are strongly advised to use >=4.2 versions!
############################################################
redata: Long output                                 =   F
redata: Number of Atomic Species                    =        4
redata: Charge density info will appear in .RHO file
redata: Write Mulliken Pop.                         = NO
redata: Matel table size (NRTAB)                    =     1024
redata: Mesh Cutoff                                 =   340.0000 Ry
redata: Net charge of the system                    =     0.0000 |e|
redata: Min. number of SCF Iter                     =        1
redata: Max. number of SCF Iter                     =      200
redata: SCF mix quantity                            = Hamiltonian
redata: Mix DM or H after convergence               =   F
redata: Recompute H after scf cycle                 =   F
redata: Mix DM in first SCF step                    =   T
redata: Write Pulay info on disk                    =   F
redata: New DM Occupancy tolerance                  = 0.000000000001
redata: No kicks to SCF
redata: DM Mixing Weight for Kicks                  =     0.5000
redata: Require Harris convergence for SCF          =   F
redata: Harris energy tolerance for SCF             =     0.000100 eV
redata: Require DM convergence for SCF              =   T
redata: DM tolerance for SCF                        =     0.000008
redata: Require EDM convergence for SCF             =   F
redata: EDM tolerance for SCF                       =     0.001000 eV
redata: Require H convergence for SCF               =   T
redata: Hamiltonian tolerance for SCF               =     0.000001 eV
redata: Require (free) Energy convergence for SCF   =   F
redata: (free) Energy tolerance for SCF             =     0.000100 eV
redata: Using Saved Data (generic)                  =   F
redata: Use continuation files for DM               =   T
redata: Neglect nonoverlap interactions             =   F
redata: Method of Calculation                       = Diagonalization
redata: Electronic Temperature                      =   299.9978 K
redata: Fix the spin of the system                  =   F
redata: Dynamics option                             = Verlet MD run
redata: Initial MD time step                        =        1
redata:   Final MD time step                        =        1
redata: Length of MD time step                      =     0.5000 fs
redata: Initial Temperature of MD run               =     0.0000 K
redata: Perform a MD quench                         =   F
mix.SCF: Pulay mixing                            = Pulay
mix.SCF:    Variant                              = stable
mix.SCF:    History steps                        = 6
mix.SCF:    Linear mixing weight                 =     0.250000
mix.SCF:    Mixing weight                        =     0.250000
mix.SCF:    SVD condition                        = 0.1000E-07
mix.SCF:    Restart steps                        = 24
mix.SCF:    Restart save steps                   = 3
mix.SCF: Spin-component mixing                   all
redata: Save all siesta data in one NC              =   F
redata: ***********************************************************************

%block SCF.Mixers
  Pulay
%endblock SCF.Mixers

%block SCF.Mixer.Pulay
  # Mixing method
  method pulay
  variant stable

  # Mixing options
  weight 0.2500
  weight.linear 0.2500
  history 6
  restart 24
  restart.save 3
%endblock SCF.Mixer.Pulay

Size of DM history Fstack: 3
Total number of electrons:    98.000000
Total ionic charge:    98.000000

* ProcessorY, Blocksize:    2  24


* Orbital distribution balance (max,min):    48    24


Time-reversal symmetry not used.

siesta: k-grid: Number of k-points =     1
siesta: k-grid: Cutoff (effective) =     5.000 Ang
siesta: k-grid: Supercell and displacements
siesta: k-grid:    1   0   0      0.000
siesta: k-grid:    0   1   0      0.000
siesta: k-grid:    0   0   1      0.000

diag: Algorithm                                     = ELPA-1stage
diag: Parallel over k                               =   F
diag: Use parallel 2D distribution                  =   T
diag: Parallel block-size                           = 24
diag: Parallel distribution                         =     2 x     4
diag: Used triangular part                          = Lower
diag: Absolute tolerance                            =  0.100E-15
diag: Orthogonalization factor                      =  0.100E-05
diag: Memory factor                                 =  1.0000


ts: **************************************************************
ts: Save H and S matrices                           =    F
ts: Save DM and EDM matrices                        =    F
ts: Only save the overlap matrix S                  =    F
ts: **************************************************************

************************ Begin: TS CHECKS AND WARNINGS ************************
************************ End: TS CHECKS AND WARNINGS **************************


                     ====================================
                        Begin MD step =      1
                     ====================================

outcoor: Atomic coordinates (Ang):                          
    2.28494382   -5.19529124    0.00000000   1       1  H
    1.37433094   -4.66471070    0.00000000   2       2  N
   -0.21830245   -5.49458215    0.00000000   3       3  Si
   -0.17484108   -6.98516892    0.00000000   1       4  H
   -1.66171682   -4.58600741    0.00000000   2       5  N
   -1.09026419   -2.87456374    0.00000000   3       6  Si
   -1.53038332   -0.70765692    0.00000000   3       7  Si
   -3.14415959   -0.09186471    0.00000000   2       8  N
   -3.40268075    0.95848335    0.00000000   1       9  H
   -3.95073599   -0.76720972    0.00000000   1      10  H
   -0.17836637    0.41349951    0.00000000   2      11  N
    1.49520211   -0.04739960    0.00000000   3      12  Si
    2.45603905    1.10727302    0.00000000   1      13  H
    2.30451743   -1.58574382    0.00000000   2      14  N
    1.10725559   -2.84610319    0.00000000   3      15  Si
    0.55495684    7.65643514    0.00000000   1      16  H
   -0.25375384    6.96422926    0.00000000   2      17  N
   -1.91034368    7.67734936    0.00000000   3      18  Si
   -1.81347851    9.18807457    0.00000000   1      19  H
   -3.63650003    6.33430123    0.00000000   3      20  Si
   -5.99095428    6.32631430    0.00000000   3      21  Si
   -6.55337240    7.06080395   -1.20183078   1      22  H
   -6.29076803    4.84722317   -0.08618332   1      23  H
   -6.55348486    6.89114676    1.28814761   1      24  H
   -2.70710939    4.26373000    0.00000000   3      25  Si
   -3.65657775    2.97519387    0.00000000   4      26  O
   -0.91616452    4.08999453    0.00000000   2      27  N
   -0.58517316    3.05763755    0.00000000   1      28  H
    0.39229370    5.28454095    0.00000000   3      29  Si
    1.95823063    5.01729410    0.00000000   4      30  O

outcell: Unit cell vectors (Ang):
       30.000000    0.000000    0.000000
        0.000000   45.000000    0.000000
        0.000000    0.000000   10.000000

outcell: Cell vector modules (Ang)   :   30.000000   45.000000   10.000000
outcell: Cell angles (23,13,12) (deg):     90.0000     90.0000     90.0000
outcell: Cell volume (Ang**3)        :  13500.0000
<dSpData1D:S at geom step 1
  <sparsity:sparsity for geom step 1
    nrows_g=302 nrows=48 sparsity=.0981 nnzs=8944, refcount: 8>
  <dData1D:(new from dSpData1D) n=8944, refcount: 1>
refcount: 1>
new_DM -- step:     1
Initializing Density Matrix...

Attempting to read DM from file... Failed...
DM filled with atomic data:
<dSpData2D:DM initialized from atoms
  <sparsity:sparsity for geom step 1
    nrows_g=302 nrows=48 sparsity=.0981 nnzs=8944, refcount: 9>
  <dData2D:DM n=8944 m=8, refcount: 1>
refcount: 1>
     spin moment: S , {S} =   56.00000   0.00000   0.00000  56.00000
No. of atoms with KB's overlaping orbs in proc 0. Max # of overlaps:      28     172

Initializing spin-orbit part of the Hamiltonian
  Adding spin-orbit effects for H 
  Adding spin-orbit effects for N 
  Adding spin-orbit effects for Si
  Adding spin-orbit effects for O 


New grid distribution:   1
           1       1:  180    1:  125    1:   15
           2       1:  180    1:  125   16:   30
           3       1:  180    1:  125   31:   45
           4       1:  180    1:  125   46:   60
           5       1:  180  126:  250    1:   15
           6       1:  180  126:  250   16:   30
           7       1:  180  126:  250   31:   45
           8       1:  180  126:  250   46:   60

InitMesh: MESH =   360 x   500 x   120 =    21600000
InitMesh: (bp) =   180 x   250 x    60 =     2700000
InitMesh: Mesh cutoff (required, used) =   340.000   341.206 Ry
ExtMesh (bp) on 0 =   288 x   225 x   123 =     7970400
New grid distribution:   2
           1     154:  180   41:  229    1:   60
           2       1:  159    1:   24    1:   60
           3       1:  159   25:   40    1:   60
           4     160:  180    1:   21    1:   60
           5       1:  153   41:  230    1:   60
           6       1:  153  231:  250    1:   60
           7     154:  180  230:  250    1:   60
           8     160:  180   22:   40    1:   60
New grid distribution:   3
           1     147:  180   49:  220    1:   60
           2       1:  141    1:   26    1:   60
           3       1:  141   27:   48    1:   60
           4     142:  180    1:   26    1:   60
           5       1:  146   49:  223    1:   60
           6       1:  146  224:  250    1:   60
           7     147:  180  221:  250    1:   60
           8     142:  180   27:   48    1:   60
Setting up quadratic distribution...
ExtMesh (bp) on 0 =   135 x   289 x   168 =     6554520
PhiOnMesh: Number of (b)points on node 0 =               306180
PhiOnMesh: nlist on node 0 =              1651894

stepf: Fermi-Dirac step function

siesta: Program's energy decomposition (eV):
siesta: Ebs     =      -612.930720
siesta: Eions   =      3553.971015
siesta: Ena     =       374.871430
siesta: Ekin    =      3166.892711
siesta: Enl     =     -2981.013007
siesta: Eso     =        -0.003905
siesta: Edftu   =         0.000000
siesta: DEna    =       129.699217
siesta: DUscf   =        73.817043
siesta: DUext   =         0.000000
siesta: Exc     =     -1167.851112
siesta: eta*DQ  =         0.000000
siesta: Emadel  =         0.000000
siesta: Emeta   =         0.000000
siesta: Emolmec =         0.000000
siesta: Ekinion =         0.000000
siesta: Eharris =     -3889.288672
siesta: Etot    =     -3957.558637
siesta: FreeEng =     -3957.561994

        iscf     Eharris(eV)        E_KS(eV)     FreeEng(eV)     dDmax    Ef(eV) dHmax(eV)
   scf:    1    -3889.288672    -3957.558637    -3957.561994  0.969192 -4.936943 20.773195
     spin moment: S , {S} =    2.02397  -0.00000  -0.00000   2.02397
timer: Routine,Calls,Time,% = IterSCF        1      11.365  32.97
   scf:    2    -3998.496919    -3990.303605    -3990.303610  0.462978 -4.225585 10.678808
     spin moment: S , {S} =    2.00010   0.00000  -0.00000   2.00010
   scf:    3    -3969.561503    -3989.296733    -3989.342472  0.426746 -4.112216 10.687570
     spin moment: S , {S} =    1.52282  -0.00000  -0.00000   1.52282
   scf:    4    -4002.490574    -3997.920997    -3997.920999  0.162314 -3.835010  4.486694
     spin moment: S , {S} =    0.00011  -0.00000   0.00000   0.00011
   scf:    5    -3999.284037    -3998.667367    -3998.667367  0.036720 -3.716130  2.639434
     spin moment: S , {S} =    0.00006  -0.00000   0.00000   0.00006
   scf:    6    -3999.443964    -3999.052519    -3999.052519  0.027296 -3.698686  1.442114
     spin moment: S , {S} =    0.00003  -0.00000   0.00000   0.00003
   scf:    7    -3999.431518    -3999.236565    -3999.236565  0.022529 -3.756537  0.745088
     spin moment: S , {S} =    0.00001  -0.00000   0.00000   0.00001
   scf:    8    -3999.357435    -3999.295134    -3999.295134  0.011584 -3.793984  0.463641
     spin moment: S , {S} =    0.00000  -0.00000   0.00000   0.00000
   scf:    9    -3999.342365    -3999.317815    -3999.317817  0.007028 -3.809217  0.340588
     spin moment: S , {S} =    0.00000  -0.00000   0.00000  -0.00000
   scf:   10    -3999.371552    -3999.339375    -3999.339429  0.018450 -3.832894  0.139725
     spin moment: S , {S} =    0.00013  -0.00000  -0.00000  -0.00013
   scf:   11    -3999.342023    -3999.340737    -3999.340791  0.003724 -3.823688  0.046354
     spin moment: S , {S} =    0.00002  -0.00000  -0.00000  -0.00002
   scf:   12    -3999.341446    -3999.341092    -3999.341152  0.001542 -3.821243  0.028239
     spin moment: S , {S} =    0.00000  -0.00000  -0.00000  -0.00000
   scf:   13    -3999.341562    -3999.341320    -3999.341381  0.001435 -3.819335  0.021581
     spin moment: S , {S} =    0.00000  -0.00000  -0.00000   0.00000
   scf:   14    -3999.341645    -3999.341473    -3999.341534  0.001389 -3.818482  0.016536
     spin moment: S , {S} =    0.00000  -0.00000  -0.00000  -0.00000
   scf:   15    -3999.341747    -3999.341595    -3999.341658  0.001665 -3.817988  0.012096
     spin moment: S , {S} =    0.00000  -0.00000  -0.00000  -0.00000
   scf:   16    -3999.341749    -3999.341660    -3999.341723  0.001516 -3.817881  0.006277
     spin moment: S , {S} =    0.00000  -0.00000  -0.00000  -0.00000
   scf:   17    -3999.341696    -3999.341676    -3999.341738  0.000728 -3.818010  0.004374
     spin moment: S , {S} =    0.00000  -0.00000  -0.00000  -0.00000
   scf:   18    -3999.341690    -3999.341682    -3999.341744  0.000558 -3.818153  0.001718
     spin moment: S , {S} =    0.00000  -0.00000  -0.00000  -0.00000
   scf:   19    -3999.341684    -3999.341683    -3999.341744  0.000219 -3.818160  0.000798
     spin moment: S , {S} =    0.00000   0.00000  -0.00000  -0.00000
   scf:   20    -3999.341683    -3999.341683    -3999.341745  0.000055 -3.818174  0.000528
     spin moment: S , {S} =    0.00000   0.00000  -0.00000  -0.00000
   scf:   21    -3999.341683    -3999.341683    -3999.341745  0.000045 -3.818172  0.000303
     spin moment: S , {S} =    0.00000   0.00000  -0.00000  -0.00000
   scf:   22    -3999.341683    -3999.341683    -3999.341745  0.000047 -3.818179  0.000163
     spin moment: S , {S} =    0.00000   0.00000  -0.00000  -0.00000
   scf:   23    -3999.341683    -3999.341683    -3999.341745  0.000012 -3.818181  0.000119
     spin moment: S , {S} =    0.00000  -0.00000  -0.00000  -0.00000
   scf:   24    -3999.341683    -3999.341683    -3999.341745  0.000006 -3.818181  0.000088
     spin moment: S , {S} =    0.00000  -0.00000  -0.00000  -0.00000
mix: Pulay -- resetting history
   scf:   25    -3999.341683    -3999.341683    -3999.341745  0.000008 -3.818179  0.000048
     spin moment: S , {S} =    0.00000  -0.00000   0.00000  -0.00000
   scf:   26    -3999.341683    -3999.341683    -3999.341745  0.000005 -3.818178  0.000024
     spin moment: S , {S} =    0.00000  -0.00000   0.00000  -0.00000
   scf:   27    -3999.341683    -3999.341683    -3999.341745  0.000003 -3.818178  0.000013
     spin moment: S , {S} =    0.00000  -0.00000   0.00000   0.00000
   scf:   28    -3999.341683    -3999.341683    -3999.341745  0.000001 -3.818178  0.000010
     spin moment: S , {S} =    0.00000   0.00000   0.00000   0.00000
   scf:   29    -3999.341683    -3999.341683    -3999.341745  0.000001 -3.818179  0.000007
     spin moment: S , {S} =    0.00000   0.00000   0.00000   0.00000
   scf:   30    -3999.341683    -3999.341683    -3999.341745  0.000001 -3.818179  0.000004
     spin moment: S , {S} =    0.00000   0.00000   0.00000   0.00000
   scf:   31    -3999.341683    -3999.341683    -3999.341745  0.000000 -3.818179  0.000002
     spin moment: S , {S} =    0.00000   0.00000   0.00000   0.00000
   scf:   32    -3999.341683    -3999.341683    -3999.341745  0.000000 -3.818179  0.000002
     spin moment: S , {S} =    0.00000   0.00000   0.00000   0.00000
   scf:   33    -3999.341683    -3999.341683    -3999.341745  0.000000 -3.818179  0.000001
     spin moment: S , {S} =    0.00000   0.00000   0.00000   0.00000

SCF Convergence by DM+H criterion
max |DM_out - DM_in|         :     0.0000002156
max |H_out - H_in|      (eV) :     0.0000008440
SCF cycle converged after 33 iterations

Using DM_out to compute the final energy and forces
No. of atoms with KB's overlaping orbs in proc 0. Max # of overlaps:      28     172

siesta: E_KS(eV) =            -3999.3417

siesta: E_KS - E_eggbox =     -3999.3417
     spin moment: S , {S} =    0.00000   0.00000   0.00000   0.00000

siesta: Atomic forces (eV/Ang):
     1    0.142210   -0.034815   -0.000000
     2   -0.017010    0.032304   -0.000001
     3   -0.015869   -0.016003    0.000000
     4    0.066901   -0.133959    0.000000
     5    0.041864    0.016871   -0.000001
     6   -0.082651    0.008880   -0.000002
     7    0.452170    0.002188   -0.000008
     8   -0.355695    0.991716    0.000028
     9    0.071576   -0.363306   -0.000052
    10   -0.060041    0.054891   -0.000000
    11   -0.075688   -0.080221    0.000006
    12   -0.114672    0.015593    0.000000
    13   -0.129169   -0.035696    0.000000
    14    0.006755   -0.037972   -0.000001
    15    0.046902    0.033780    0.000005
    16   -0.034778   -0.071994   -0.000949
    17   -0.010097   -0.007816   -0.000801
    18   -0.031933    0.011868    0.005363
    19   -0.045786   -0.167374   -0.001506
    20    0.041959    0.031908   -0.001188
    21    0.054940   -0.005773   -0.006198
    22    0.055112   -0.010352    0.116233
    23    0.024220    0.082671   -0.012000
    24    0.049524    0.051719   -0.092005
    25   -0.231935   -0.228646    0.001005
    26   -1.070541   -1.198660    0.000425
    27    0.135588   -0.267664   -0.000549
    28    0.011832    0.452592   -0.000089
    29    0.098919    0.033949   -0.000183
    30    0.044341    4.741401    0.000231
----------------------------------------
   Tot   -0.931052    3.902082    0.007763
----------------------------------------
   Max    4.741401
   Res    0.548943    sqrt( Sum f_i^2 / 3N )
----------------------------------------
   Max    4.741401    constrained

Stress tensor Voigt[x,y,z,yz,xz,xy] (kbar):        0.15        0.28       -0.02       -0.01        0.00        0.08
(Free)E + p*V (eV/cell)    -4000.5029
Target enthalpy (eV/cell)    -3999.3417

siesta: Stress tensor (static) (eV/Ang**3):
         0.000094    0.000051    0.000000
         0.000051    0.000175   -0.000004
         0.000000   -0.000004   -0.000010

siesta: Pressure (static):         -0.13780364  kBar

siesta: Stress tensor (total) (eV/Ang**3):
         0.000094    0.000051    0.000000
         0.000051    0.000175   -0.000004
         0.000000   -0.000004   -0.000010

siesta: Pressure (total):         -0.13780364  kBar

siesta: Temp_ion =       0.000 K

siesta: Eigenvalues (eV):
ik =     1
  -22.8257  -22.8257  -22.6354  -22.6354  -21.7363  -21.7363  -21.2068  -21.2068  -20.8999  -20.8999
  -20.4253  -20.4253  -19.3247  -19.3247  -19.1187  -19.1187  -18.5625  -18.5625  -15.1015  -15.1015
  -14.1740  -14.1740  -13.5252  -13.5252  -13.4998  -13.4998  -13.1235  -13.1235  -12.7595  -12.7595
  -12.3313  -12.3313  -11.9233  -11.9233  -11.8053  -11.8053  -11.4365  -11.4365  -11.3375  -11.3375
  -10.7444  -10.7444  -10.6400  -10.6400  -10.0773  -10.0773   -9.6727   -9.6727   -9.3929   -9.3929
   -9.2291   -9.2291   -9.0149   -9.0149   -9.0102   -9.0102   -8.6943   -8.6943   -8.6318   -8.6318
   -8.4309   -8.4309   -8.1422   -8.1422   -8.0341   -8.0341   -8.0120   -8.0120   -8.0083   -8.0083
   -7.7504   -7.7504   -7.3405   -7.3405   -7.2315   -7.2315   -7.2264   -7.2264   -6.8456   -6.8456
   -6.8138   -6.8138   -6.6259   -6.6259   -6.5542   -6.5542   -6.2369   -6.2369   -6.1605   -6.1605
   -5.7927   -5.7927   -5.6807   -5.6807   -5.4769   -5.4769   -4.0716   -4.0716   -3.5648   -3.5648
   -2.7635   -2.7635   -2.2803   -2.2803   -2.1827   -2.1827   -2.0547   -2.0547   -2.0418   -2.0418
   -1.8464   -1.8464   -1.6644   -1.6644   -1.6278   -1.6278   -1.4491   -1.4491   -1.2823   -1.2823
   -1.1581   -1.1581   -0.3511   -0.3511   -0.2555   -0.2555   -0.1915   -0.1915   -0.1035   -0.1035
   -0.0578   -0.0578   -0.0206   -0.0206    0.1984    0.1984    0.6332    0.6332    0.6776    0.6776
    0.7039    0.7039    0.9277    0.9277    1.3784    1.3784    1.3934    1.3934    1.4245    1.4245
    1.5111    1.5111    1.7255    1.7255    1.8194    1.8194    2.2384    2.2384    2.3489    2.3489
    2.5100    2.5100    2.7277    2.7277    2.9749    2.9749    3.0663    3.0663    3.1345    3.1345
    3.1879    3.1879    3.1963    3.1963    3.2168    3.2168    3.3248    3.3248    3.6686    3.6686
    3.9580    3.9580    4.1076    4.1076    4.3053    4.3053    4.3581    4.3581    4.4539    4.4539
    4.5600    4.5600    4.7091    4.7091    4.8828    4.8828    5.0592    5.0592    5.2138    5.2138
    5.2697    5.2697    5.5050    5.5050    5.6580    5.6580    5.7225    5.7225    5.9486    5.9486
    5.9767    5.9767    6.1916    6.1916    6.2982    6.2982    6.4806    6.4806    6.5066    6.5066
    6.6865    6.6865    6.7998    6.7998    7.0024    7.0024    7.1621    7.1621    7.3741    7.3741
    7.5061    7.5061    7.6417    7.6417    7.8157    7.8157    7.8390    7.8390    8.0837    8.0837
    8.3383    8.3383    8.4353    8.4353    8.5079    8.5079    8.7377    8.7377    8.8187    8.8187
    8.9753    8.9753    9.1847    9.1847    9.2632    9.2632    9.4714    9.4714    9.6744    9.6744
    9.8147    9.8147    9.8799    9.8799    9.9661    9.9661   10.0875   10.0875   10.2061   10.2061
   10.7126   10.7126   10.8052   10.8052   10.9743   10.9743   11.1470   11.1470   11.3384   11.3384
   11.3613   11.3613   11.5780   11.5780   11.8237   11.8237   11.9232   11.9232   12.0120   12.0120
   12.2947   12.2947   12.3845   12.3845   12.5321   12.5321   12.7682   12.7682   12.8953   12.8953
   12.9325   12.9325   13.0440   13.0440   13.4759   13.4759   13.6548   13.6548   13.7785   13.7785
   13.9958   13.9958   14.1588   14.1588   14.5405   14.5405   15.0144   15.0144   15.0905   15.0905
   15.1840   15.1840   15.2614   15.2614   15.5267   15.5267   16.0500   16.0500   16.4897   16.4897
   16.9490   16.9490   17.0707   17.0707   17.2045   17.2045   17.2622   17.2622   17.8007   17.8007
   18.1899   18.1899   18.6164   18.6164   18.7934   18.7934   18.8321   18.8321   18.9313   18.9313
   19.0430   19.0430   19.4270   19.4270   19.7212   19.7212   20.0146   20.0146   20.8055   20.8055
   20.8712   20.8712   21.5847   21.5847   21.7206   21.7206   22.2393   22.2393   22.4040   22.4040
   22.5110   22.5110   23.2015   23.2015   23.2838   23.2838   23.4201   23.4201   24.4210   24.4210
   24.7349   24.7349   24.9541   24.9541   25.1625   25.1625   25.8594   25.8594   26.2237   26.2237
   26.6748   26.6748   26.7694   26.7694   26.8848   26.8848   27.8548   27.8548   28.1133   28.1133
   28.7141   28.7141   29.2878   29.2878   29.6562   29.6562   30.8891   30.8891   30.9777   30.9777
   31.0125   31.0125   31.3445   31.3445   31.4864   31.4864   31.5084   31.5084   32.0420   32.0420
   32.0700   32.0700   32.5092   32.5092   33.5155   33.5155   33.8070   33.8070   34.1237   34.1237
   34.1677   34.1677   34.7111   34.7111   34.9162   34.9162   35.7608   35.7608   36.1926   36.1926
   36.3672   36.3672   36.8631   36.8631   37.3258   37.3258   38.1116   38.1116   38.2401   38.2401
   38.4583   38.4583   39.0743   39.0743   39.2061   39.2061   39.7550   39.7550   40.4265   40.4265
   40.7808   40.7808   41.2414   41.2414   41.2712   41.2712   41.8786   41.8786   42.3106   42.3106
   42.9527   42.9527   43.3172   43.3172   43.5052   43.5052   43.8673   43.8673   44.1104   44.1104
   44.9094   44.9094   45.4160   45.4160   45.4807   45.4807   46.0893   46.0893   46.1522   46.1522
   46.5763   46.5763   46.9258   46.9258   47.3794   47.3794   48.0193   48.0193   48.3395   48.3395
   48.9160   48.9160   49.0302   49.0302   49.3488   49.3488   50.0219   50.0219   50.1634   50.1634
   50.3584   50.3584   50.6570   50.6570   50.7316   50.7316   52.1386   52.1386   52.2162   52.2162
   52.6999   52.6999   54.2133   54.2133   54.4724   54.4724   55.0036   55.0036   55.1429   55.1429
   56.4251   56.4251   56.7684   56.7684   56.8265   56.8265   57.0409   57.0409   57.4296   57.4296
   58.1656   58.1656   59.2406   59.2406   59.5264   59.5264   61.2817   61.2817   61.4177   61.4177
   62.0083   62.0083   63.0667   63.0667   63.6444   63.6444   64.5892   64.5892   65.9142   65.9142
   65.9359   65.9359   66.7644   66.7644   67.3925   67.3925   67.9900   67.9900   68.9089   68.9089
   71.3541   71.3541   72.2527   72.2527   75.3099   75.3099   81.6718   81.6718   88.8084   88.8084
   93.3325   93.3325   94.1028   94.1028   95.7725   95.7725   97.2246   97.2246  100.3845  100.3845
  102.3630  102.3630  102.8399  102.8399  117.5951  117.5951  120.7786  120.7786  124.0781  124.0781
  135.6130  135.6130  144.8057  144.8057
siesta: Fermi energy =      -3.818179 eV

siesta: Program's energy decomposition (eV):
siesta: Ebs     =     -1106.590484
siesta: Eions   =      3553.971015
siesta: Ena     =       374.871430
siesta: Ekin    =      2743.984618
siesta: Enl     =     -2523.851170
siesta: Eso     =        -0.004684
siesta: Edftu   =         0.000000
siesta: DEna    =        37.198726
siesta: DUscf   =        13.688166
siesta: DUext   =         0.000000
siesta: Exc     =     -1091.257754
siesta: eta*DQ  =         0.000000
siesta: Emadel  =         0.000000
siesta: Emeta   =         0.000000
siesta: Emolmec =         0.000000
siesta: Ekinion =         0.000000
siesta: Eharris =     -3999.341683
siesta: Etot    =     -3999.341683
siesta: FreeEng =     -3999.341745

siesta: Final energy (eV):
siesta:  Band Struct. =   -1106.590484
siesta:       Kinetic =    2743.984618
siesta:       Hartree =   14476.526773
siesta:       Edftu   =       0.000000
siesta:       Eso     =      -0.004684
siesta:    Ext. field =       0.000000
siesta:   Exch.-corr. =   -1091.257754
siesta:  Ion-electron =  -31387.360830
siesta:       Ion-ion =   11258.770193
siesta:       Ekinion =       0.000000
siesta:         Total =   -3999.341683
siesta:         Fermi =      -3.818179

siesta: Atomic forces (eV/Ang):
siesta:      1    0.142210   -0.034815   -0.000000
siesta:      2   -0.017010    0.032304   -0.000001
siesta:      3   -0.015869   -0.016003    0.000000
siesta:      4    0.066901   -0.133959    0.000000
siesta:      5    0.041864    0.016871   -0.000001
siesta:      6   -0.082651    0.008880   -0.000002
siesta:      7    0.452170    0.002188   -0.000008
siesta:      8   -0.355695    0.991716    0.000028
siesta:      9    0.071576   -0.363306   -0.000052
siesta:     10   -0.060041    0.054891   -0.000000
siesta:     11   -0.075688   -0.080221    0.000006
siesta:     12   -0.114672    0.015593    0.000000
siesta:     13   -0.129169   -0.035696    0.000000
siesta:     14    0.006755   -0.037972   -0.000001
siesta:     15    0.046902    0.033780    0.000005
siesta:     16   -0.034778   -0.071994   -0.000949
siesta:     17   -0.010097   -0.007816   -0.000801
siesta:     18   -0.031933    0.011868    0.005363
siesta:     19   -0.045786   -0.167374   -0.001506
siesta:     20    0.041959    0.031908   -0.001188
siesta:     21    0.054940   -0.005773   -0.006198
siesta:     22    0.055112   -0.010352    0.116233
siesta:     23    0.024220    0.082671   -0.012000
siesta:     24    0.049524    0.051719   -0.092005
siesta:     25   -0.231935   -0.228646    0.001005
siesta:     26   -1.070541   -1.198660    0.000425
siesta:     27    0.135588   -0.267664   -0.000549
siesta:     28    0.011832    0.452592   -0.000089
siesta:     29    0.098919    0.033949   -0.000183
siesta:     30    0.044341    4.741401    0.000231
siesta: ----------------------------------------
siesta:    Tot   -0.931052    3.902082    0.007763

siesta: Stress tensor (static) (eV/Ang**3):
siesta:     0.000094    0.000051    0.000000
siesta:     0.000051    0.000175   -0.000004
siesta:     0.000000   -0.000004   -0.000010

siesta: Cell volume =      13500.000000 Ang**3

siesta: Pressure (static):
siesta:                Solid            Molecule  Units
siesta:          -0.00000094         -0.00000468  Ry/Bohr**3
siesta:          -0.00008601         -0.00042958  eV/Ang**3
siesta:          -0.13780364         -0.68827026  kBar
(Free)E+ p_basis*V_orbitals  =       -3978.213660
(Free)Eharris+ p_basis*V_orbitals  =       -3978.213660
     spin moment: S , {S} =    0.00000   0.00000   0.00000   0.00000

siesta: Electric dipole (a.u.)  =   -1.177639    1.871686   -0.001776
siesta: Electric dipole (Debye) =   -2.993263    4.757355   -0.004513

cite: Please see "AT.bib" for an exhaustive BiBTeX file.
cite: Please clearly indicate Siesta version in published work: v4.1.5-1-g384057250
cite: This calculation has made use of the following articles
cite: which are encouraged to be cited in a published work.
        Primary SIESTA paper
          DOI: www.doi.org/10.1088/0953-8984/14/11/302
        Spin-orbit coupling (on-site approximation)
          DOI: www.doi.org/10.1088/0953-8984/19/19/489001


WARNING: alloc-realloc-dealloc name mismatch
         Name: atomlist isa
         Size:              -120. Bytes
         Node:     0
         Subsequent mismatches will not be reported
>> End of run:   1-FEB-2024  18:28:09
Job completed
