Siesta Version  : v4.1.5-1-g384057250
Architecture    : gcc
Compiler version: GNU Fortran (Debian 10.2.1-6) 10.2.1 20210110
Compiler flags  : mpifort -O2 -fPIC -ftree-vectorize -fallow-argument-mismatch
PP flags        : -DFC_HAVE_ABORT -DMPI -DSIESTA__FLOOK -DSIESTA__METIS -DSIESTA__MUMPS -DCDF -DNCDF -DNCDF_4 -DNCDF_PARALLEL -DSIESTA__MRRR -DSIESTA__ELPA
Libraries       : libncdf.a libfdict.a  -lflookall -ldl -lnetcdff -lnetcdf -lhdf5_hl -lhdf5 -lhdf5_fortran -lz -lscalapack-openmpi -lopenblas -lmetis -lzmumps -lcmumps -ldmumps -lmumps_common -lpord -lsmumps -lesmumps -lscotch -lscotcherr -fopenmp -lelpa
PARALLEL version
NetCDF support
NetCDF-4 support
NetCDF-4 MPI-IO support
METIS ordering support
Lua support

* Running on 6 nodes in parallel
>> Start of run:  22-MAY-2023  10:40:59

                           ***********************       
                           *  WELCOME TO SIESTA  *       
                           ***********************       

reinit: Reading from standard input
reinit: Dumped input in INPUT_TMP.62479
************************** Dump of input data file ****************************
SystemLabel      AT
NumberOfAtoms    30
NumberOfSpecies  4
%block ChemicalSpeciesLabel
    1    1  H
    2    7  N
    3   14  Si
    4    8  O
%endblock ChemicalSpeciesLabel
# Single point calculation
MD.TypeOfRun                CG
MD.Steps                    0
SCF.MustConverge            F # In case it does not. There can be 2 very close atoms
AtomicCoordinatesFormat NotScaledCartesianAng
%block AtomicCoordinatesAndAtomicSpecies
2.582377650    -5.776830440   0.000000000       1
1.654759240    -5.269361980   0.000000000       2
0.063128840    -6.101704590   0.000000000       3
0.119223240    -7.596849500   0.000000000       1
-1.376892050   -5.182603740   0.000000000       2
-0.824371900   -3.460866440   0.000000000       3
-1.170571480   -1.270002100   0.000000000       3
-2.706933680   -0.417515780   0.000000000       2
-2.754569660   0.634858620    0.000000000       1
-3.637675640   -0.909967860   0.000000000       1
0.218091790    -0.234193970   0.000000000       2
1.872004100    -0.697162300   0.000000000       3
2.828001130    0.461464770    0.000000000       1
2.648150080    -2.255024470   0.000000000       2
1.391921380    -3.454727220   0.000000000       3
1.830858786    8.772645629    0.000000000       2
0.503487266    9.982849929    0.000000000       3
1.143488536    11.344168169   0.000000000       1
-1.582258674   9.312318579    0.000000000       3
-3.611821274   10.442434769   0.000000000       3
-3.457585504   11.602664979   0.940305280       1
-4.597755994   9.420514149    0.512613700       1
-4.028036234   10.918660619   -1.366678340      1
-1.515763254   7.038341959    0.000000000       3
-2.554811984   5.845282459    0.000000000       4
0.141228326    6.404366769    0.000000000       2
0.123210956    5.341921939    0.000000000       1
1.764831396    7.001436979    0.000000000       3
2.959847566    5.987011779    0.000000000       4
2.830896156    9.118152729    0.000000000       1
%endblock AtomicCoordinatesAndAtomicSpecies
%include ../../../Defaults.fdf
************************** End of input data file *****************************

reinit: -----------------------------------------------------------------------
reinit: System Name: 
reinit: -----------------------------------------------------------------------
reinit: System Label: AT
reinit: -----------------------------------------------------------------------

initatom: Reading input for the pseudopotentials and atomic orbitals ----------
Species number:   1 Atomic number:    1 Label: H
Species number:   2 Atomic number:    7 Label: N
Species number:   3 Atomic number:   14 Label: Si
Species number:   4 Atomic number:    8 Label: O

Ground state valence configuration:   1s01
Reading pseudopotential information in formatted form from H.psf

Pseudopotential generated from a relativistic atomic calculation

Valence configuration for pseudopotential generation:
1s( 1.00) rc: 0.01
2p( 0.00) rc: 0.60
3d( 0.00) rc: 1.99
4f( 0.00) rc: 2.49
Ground state valence configuration:   2s02  2p03
Reading pseudopotential information in formatted form from N.psf

Pseudopotential generated from a relativistic atomic calculation

Valence configuration for pseudopotential generation:
2s( 2.00) rc: 0.94
2p( 3.00) rc: 0.59
3d( 0.00) rc: 3.46
4f( 0.00) rc: 2.47
Ground state valence configuration:   3s02  3p02
Reading pseudopotential information in formatted form from Si.psf

Pseudopotential generated from a relativistic atomic calculation

Valence configuration for pseudopotential generation:
3s( 2.00) rc: 1.67
3p( 2.00) rc: 2.04
3d( 0.00) rc: 2.89
4f( 0.00) rc: 2.49
Ground state valence configuration:   2s02  2p04
Reading pseudopotential information in formatted form from O.psf

Pseudopotential generated from a relativistic atomic calculation

Valence configuration for pseudopotential generation:
2s( 2.00) rc: 0.45
2p( 4.00) rc: 0.92
3d( 0.00) rc: 2.24
4f( 0.00) rc: 0.25
For H, standard SIESTA heuristics set lmxkb to 2
 (one more than the basis l, including polarization orbitals).
Use PS.lmax or PS.KBprojectors blocks to override.
For N, standard SIESTA heuristics set lmxkb to 3
 (one more than the basis l, including polarization orbitals).
Use PS.lmax or PS.KBprojectors blocks to override.
For Si, standard SIESTA heuristics set lmxkb to 3
 (one more than the basis l, including polarization orbitals).
Use PS.lmax or PS.KBprojectors blocks to override.
For O, standard SIESTA heuristics set lmxkb to 3
 (one more than the basis l, including polarization orbitals).
Use PS.lmax or PS.KBprojectors blocks to override.

<basis_specs>
===============================================================================
H                    Z=   1    Mass=  1.0100        Charge= 0.17977+309
Lmxo=0 Lmxkb= 2    BasisType=split      Semic=F
L=0  Nsemic=0  Cnfigmx=1
          i=1  nzeta=2  polorb=1  (1s)
            splnorm:   0.62000    
               vcte:    0.0000    
               rinn:    0.0000    
               qcoe:    0.0000    
               qyuk:    0.0000    
               qwid:   0.10000E-01
                rcs:    0.0000      0.0000    
            lambdas:    1.0000      1.0000    
-------------------------------------------------------------------------------
L=0  Nkbl=1  erefs: 0.17977+309
L=1  Nkbl=1  erefs: 0.17977+309
L=2  Nkbl=1  erefs: 0.17977+309
===============================================================================
</basis_specs>

atom: Called for H                     (Z =   1)

read_vps: Pseudopotential generation method:
read_vps: ATM4.2.7  Troullier-Martins                       
Valence charge for ps generation:    1.00000

xc_check: Exchange-correlation functional:
xc_check: GGA Perdew, Burke & Ernzerhof 1996
V l=0 = -2*Zval/r beyond r=  0.0098
V l=1 = -2*Zval/r beyond r=  0.5817
V l=2 = -2*Zval/r beyond r=  1.9372
All V_l potentials equal beyond r=  1.9372
This should be close to max(r_c) in ps generation
All pots = -2*Zval/r beyond r=  1.9372

VLOCAL1: 99.0% of the norm of Vloc inside     11.567 Ry
VLOCAL1: 99.9% of the norm of Vloc inside     26.362 Ry
atom: Maximum radius for 4*pi*r*r*local-pseudopot. charge    2.25106
atom: Maximum radius for r*vlocal+2*Zval:    1.91306
GHOST: No ghost state for L =  0
GHOST: No ghost state for L =  1
GHOST: No ghost state for L =  2

KBgen: Kleinman-Bylander projectors: 
   l= 0   rc=  2.036604   el= -0.477180   Ekb= -6.081590   kbcos= -0.277285
   l= 1   rc=  2.195416   el=  0.001076   Ekb= -0.926943   kbcos= -0.034643
   l= 2   rc=  2.251056   el=  0.002010   Ekb= -0.130941   kbcos= -0.009788

KBgen: Total number of Kleinman-Bylander projectors:    9
atom: -------------------------------------------------------------------------

atom: SANKEY-TYPE ORBITALS:
atom: Selected multiple-zeta basis: split     

SPLIT: Orbitals with angular momentum L= 0

SPLIT: Basis orbitals for state 1s

SPLIT: PAO cut-off radius determined from an
SPLIT: energy shift=  0.002000 Ry

   izeta = 1
                 lambda =    1.000000
                     rc =    6.518340
                 energy =   -0.475305
                kinetic =    0.912139
    potential(screened) =   -1.387444
       potential(ionic) =   -1.907295

   izeta = 2
                 rmatch =    2.141150
              splitnorm =    0.620000
                 energy =    0.566467
                kinetic =    3.772856
    potential(screened) =   -3.206389
       potential(ionic) =   -3.759093

POLgen: Perturbative polarization orbital with L=  1

POLgen: Polarization orbital for state 1s

   izeta = 1
                     rc =    6.518340
                 energy =    0.533861
                kinetic =    1.121086
    potential(screened) =   -0.587225
       potential(ionic) =   -1.053027
atom: Total number of Sankey-type orbitals:  5

atm_pop: Valence configuration (for local Pseudopot. screening):
 1s( 1.00)                                                            
Vna: chval, zval:    1.00000   1.00000

Vna:  Cut-off radius for the neutral-atom potential:   6.518340

atom: _________________________________________________________________________

<basis_specs>
===============================================================================
N                    Z=   7    Mass=  14.010        Charge= 0.17977+309
Lmxo=1 Lmxkb= 3    BasisType=split      Semic=F
L=0  Nsemic=0  Cnfigmx=2
          i=1  nzeta=2  polorb=0  (2s)
            splnorm:   0.28000    
               vcte:    0.0000    
               rinn:    0.0000    
               qcoe:    0.0000    
               qyuk:    0.0000    
               qwid:   0.10000E-01
                rcs:    0.0000      0.0000    
            lambdas:    1.0000      1.0000    
L=1  Nsemic=0  Cnfigmx=2
          i=1  nzeta=2  polorb=1  (2p)
            splnorm:   0.28000    
               vcte:    0.0000    
               rinn:    0.0000    
               qcoe:    0.0000    
               qyuk:    0.0000    
               qwid:   0.10000E-01
                rcs:    0.0000      0.0000    
            lambdas:    1.0000      1.0000    
-------------------------------------------------------------------------------
L=0  Nkbl=1  erefs: 0.17977+309
L=1  Nkbl=1  erefs: 0.17977+309
L=2  Nkbl=1  erefs: 0.17977+309
L=3  Nkbl=1  erefs: 0.17977+309
===============================================================================
</basis_specs>

atom: Called for N                     (Z =   7)

read_vps: Pseudopotential generation method:
read_vps: ATM4.2.7  Troullier-Martins                       
Valence charge for ps generation:    5.00000

xc_check: Exchange-correlation functional:
xc_check: GGA Perdew, Burke & Ernzerhof 1996
V l=0 = -2*Zval/r beyond r=  1.2889
V l=1 = -2*Zval/r beyond r=  1.2889
V l=2 = -2*Zval/r beyond r=  3.4178
V l=3 = -2*Zval/r beyond r=  2.4084
All V_l potentials equal beyond r=  3.3753
This should be close to max(r_c) in ps generation
All pots = -2*Zval/r beyond r=  3.4178

VLOCAL1: 99.0% of the norm of Vloc inside      3.810 Ry
VLOCAL1: 99.9% of the norm of Vloc inside      8.683 Ry
atom: Maximum radius for 4*pi*r*r*local-pseudopot. charge    4.02088
atom: Maximum radius for r*vlocal+2*Zval:    3.54838
GHOST: No ghost state for L =  0
GHOST: No ghost state for L =  1
GHOST: No ghost state for L =  2
GHOST: No ghost state for L =  3

KBgen: Kleinman-Bylander projectors: 
   l= 0   rc=  3.417763   el= -1.365098   Ekb= -4.433130   kbcos= -0.707855
   l= 1   rc=  3.375302   el= -0.521201   Ekb=-13.264039   kbcos= -0.535594
   l= 2   rc=  3.872880   el=  0.001991   Ekb= -0.641094   kbcos= -0.062456
   l= 3   rc=  3.970931   el=  0.003093   Ekb= -0.474517   kbcos= -0.018236

KBgen: Total number of Kleinman-Bylander projectors:   16
atom: -------------------------------------------------------------------------

atom: SANKEY-TYPE ORBITALS:
atom: Selected multiple-zeta basis: split     

SPLIT: Orbitals with angular momentum L= 0

SPLIT: Basis orbitals for state 2s

SPLIT: PAO cut-off radius determined from an
SPLIT: energy shift=  0.002000 Ry

   izeta = 1
                 lambda =    1.000000
                     rc =    4.730425
                 energy =   -1.363399
                kinetic =    1.245246
    potential(screened) =   -2.608645
       potential(ionic) =   -8.121105

   izeta = 2
                 rmatch =    2.531849
              splitnorm =    0.280000
                 energy =   -0.959908
                kinetic =    2.409435
    potential(screened) =   -3.369343
       potential(ionic) =   -9.427975

SPLIT: Orbitals with angular momentum L= 1

SPLIT: Basis orbitals for state 2p

SPLIT: PAO cut-off radius determined from an
SPLIT: energy shift=  0.002000 Ry

   izeta = 1
                 lambda =    1.000000
                     rc =    5.924108
                 energy =   -0.519262
                kinetic =    3.672940
    potential(screened) =   -4.192202
       potential(ionic) =   -9.518354

   izeta = 2
                 rmatch =    2.531849
              splitnorm =    0.280000
                 energy =   -0.104258
                kinetic =    6.807538
    potential(screened) =   -6.911796
       potential(ionic) =  -13.149920

POLgen: Perturbative polarization orbital with L=  2

POLgen: Polarization orbital for state 2p

   izeta = 1
                     rc =    5.924108
                 energy =    1.427508
                kinetic =    2.872379
    potential(screened) =   -1.444871
       potential(ionic) =   -5.563644
atom: Total number of Sankey-type orbitals: 13

atm_pop: Valence configuration (for local Pseudopot. screening):
 2s( 2.00)                                                            
 2p( 3.00)                                                            
Vna: chval, zval:    5.00000   5.00000

Vna:  Cut-off radius for the neutral-atom potential:   5.924108

atom: _________________________________________________________________________

<basis_specs>
===============================================================================
Si                   Z=  14    Mass=  28.090        Charge= 0.17977+309
Lmxo=1 Lmxkb= 3    BasisType=split      Semic=F
L=0  Nsemic=0  Cnfigmx=3
          i=1  nzeta=2  polorb=0  (3s)
            splnorm:   0.28000    
               vcte:    0.0000    
               rinn:    0.0000    
               qcoe:    0.0000    
               qyuk:    0.0000    
               qwid:   0.10000E-01
                rcs:    0.0000      0.0000    
            lambdas:    1.0000      1.0000    
L=1  Nsemic=0  Cnfigmx=3
          i=1  nzeta=2  polorb=1  (3p)
            splnorm:   0.28000    
               vcte:    0.0000    
               rinn:    0.0000    
               qcoe:    0.0000    
               qyuk:    0.0000    
               qwid:   0.10000E-01
                rcs:    0.0000      0.0000    
            lambdas:    1.0000      1.0000    
-------------------------------------------------------------------------------
L=0  Nkbl=1  erefs: 0.17977+309
L=1  Nkbl=1  erefs: 0.17977+309
L=2  Nkbl=1  erefs: 0.17977+309
L=3  Nkbl=1  erefs: 0.17977+309
===============================================================================
</basis_specs>

atom: Called for Si                    (Z =  14)

read_vps: Pseudopotential generation method:
read_vps: ATM4.2.7  Troullier-Martins                       
Valence charge for ps generation:    4.00000

xc_check: Exchange-correlation functional:
xc_check: GGA Perdew, Burke & Ernzerhof 1996
V l=0 = -2*Zval/r beyond r=  2.7826
V l=1 = -2*Zval/r beyond r=  2.7826
V l=2 = -2*Zval/r beyond r=  2.9253
V l=3 = -2*Zval/r beyond r=  2.7826
All V_l potentials equal beyond r=  2.8530
This should be close to max(r_c) in ps generation
All pots = -2*Zval/r beyond r=  2.9253

VLOCAL1: 99.0% of the norm of Vloc inside      5.333 Ry
VLOCAL1: 99.9% of the norm of Vloc inside     12.154 Ry
atom: Maximum radius for 4*pi*r*r*local-pseudopot. charge    3.39869
atom: Maximum radius for r*vlocal+2*Zval:    2.96205
GHOST: No ghost state for L =  0
GHOST: No ghost state for L =  1
GHOST: No ghost state for L =  2
GHOST: No ghost state for L =  3

KBgen: Kleinman-Bylander projectors: 
   l= 0   rc=  3.075247   el= -0.794092   Ekb=  5.879390   kbcos=  0.167461
   l= 1   rc=  3.153101   el= -0.300068   Ekb=  2.642817   kbcos=  0.058301
   l= 2   rc=  3.273594   el=  0.001958   Ekb= -1.185135   kbcos= -0.104411
   l= 3   rc=  3.232927   el=  0.003046   Ekb= -0.497174   kbcos= -0.015889

KBgen: Total number of Kleinman-Bylander projectors:   16
atom: -------------------------------------------------------------------------

atom: SANKEY-TYPE ORBITALS:
atom: Selected multiple-zeta basis: split     

SPLIT: Orbitals with angular momentum L= 0

SPLIT: Basis orbitals for state 3s

SPLIT: PAO cut-off radius determined from an
SPLIT: energy shift=  0.002000 Ry

   izeta = 1
                 lambda =    1.000000
                     rc =    6.429618
                 energy =   -0.792283
                kinetic =    0.525293
    potential(screened) =   -1.317576
       potential(ionic) =   -3.744923

   izeta = 2
                 rmatch =    3.998416
              splitnorm =    0.280000
                 energy =   -0.583081
                kinetic =    1.069570
    potential(screened) =   -1.652651
       potential(ionic) =   -4.235185

SPLIT: Orbitals with angular momentum L= 1

SPLIT: Basis orbitals for state 3p

SPLIT: PAO cut-off radius determined from an
SPLIT: energy shift=  0.002000 Ry

   izeta = 1
                 lambda =    1.000000
                     rc =    8.464845
                 energy =   -0.298236
                kinetic =    0.785360
    potential(screened) =   -1.083596
       potential(ionic) =   -3.273779

   izeta = 2
                 rmatch =    4.587816
              splitnorm =    0.280000
                 energy =   -0.131871
                kinetic =    1.403687
    potential(screened) =   -1.535557
       potential(ionic) =   -4.015310

POLgen: Perturbative polarization orbital with L=  2

POLgen: Polarization orbital for state 3p

   izeta = 1
                     rc =    8.464845
                 energy =    0.321949
                kinetic =    1.055677
    potential(screened) =   -0.733728
       potential(ionic) =   -2.672950
atom: Total number of Sankey-type orbitals: 13

atm_pop: Valence configuration (for local Pseudopot. screening):
 3s( 2.00)                                                            
 3p( 2.00)                                                            
Vna: chval, zval:    4.00000   4.00000

Vna:  Cut-off radius for the neutral-atom potential:   8.464845

atom: _________________________________________________________________________

<basis_specs>
===============================================================================
O                    Z=   8    Mass=  16.000        Charge= 0.17977+309
Lmxo=1 Lmxkb= 3    BasisType=split      Semic=F
L=0  Nsemic=0  Cnfigmx=2
          i=1  nzeta=2  polorb=0  (2s)
            splnorm:   0.28000    
               vcte:    0.0000    
               rinn:    0.0000    
               qcoe:    0.0000    
               qyuk:    0.0000    
               qwid:   0.10000E-01
                rcs:    0.0000      0.0000    
            lambdas:    1.0000      1.0000    
L=1  Nsemic=0  Cnfigmx=2
          i=1  nzeta=2  polorb=1  (2p)
            splnorm:   0.28000    
               vcte:    0.0000    
               rinn:    0.0000    
               qcoe:    0.0000    
               qyuk:    0.0000    
               qwid:   0.10000E-01
                rcs:    0.0000      0.0000    
            lambdas:    1.0000      1.0000    
-------------------------------------------------------------------------------
L=0  Nkbl=1  erefs: 0.17977+309
L=1  Nkbl=1  erefs: 0.17977+309
L=2  Nkbl=1  erefs: 0.17977+309
L=3  Nkbl=1  erefs: 0.17977+309
===============================================================================
</basis_specs>

atom: Called for O                     (Z =   8)

read_vps: Pseudopotential generation method:
read_vps: ATM4.2.7  Troullier-Martins                       
Valence charge for ps generation:    6.00000

xc_check: Exchange-correlation functional:
xc_check: GGA Perdew, Burke & Ernzerhof 1996
V l=0 = -2*Zval/r beyond r=  1.1000
V l=1 = -2*Zval/r beyond r=  1.1000
V l=2 = -2*Zval/r beyond r=  2.2154
V l=3 = -2*Zval/r beyond r=  1.1000
All V_l potentials equal beyond r=  2.2154
This should be close to max(r_c) in ps generation
All pots = -2*Zval/r beyond r=  2.2154

VLOCAL1: 99.0% of the norm of Vloc inside      8.845 Ry
VLOCAL1: 99.9% of the norm of Vloc inside     20.157 Ry
atom: Maximum radius for 4*pi*r*r*local-pseudopot. charge    2.67231
atom: Maximum radius for r*vlocal+2*Zval:    2.32897
GHOST: No ghost state for L =  0
GHOST: No ghost state for L =  1
GHOST: No ghost state for L =  2
GHOST: No ghost state for L =  3

KBgen: Kleinman-Bylander projectors: 
   l= 0   rc=  2.243238   el= -1.759686   Ekb=**********   kbcos= -0.171774
   l= 1   rc=  2.328968   el= -0.663873   Ekb=-14.506792   kbcos= -0.519897
   l= 2   rc=  2.573941   el=  0.002031   Ekb= -1.137373   kbcos= -0.019581
   l= 3   rc=  2.606321   el=  0.003153   Ekb= -1.013546   kbcos= -0.003122

KBgen: Total number of Kleinman-Bylander projectors:   16
atom: -------------------------------------------------------------------------

atom: SANKEY-TYPE ORBITALS:
atom: Selected multiple-zeta basis: split     

SPLIT: Orbitals with angular momentum L= 0

SPLIT: Basis orbitals for state 2s

SPLIT: PAO cut-off radius determined from an
SPLIT: energy shift=  0.002000 Ry

   izeta = 1
                 lambda =    1.000000
                     rc =    4.243912
                 energy =   -1.758270
                kinetic =    3.286084
    potential(screened) =   -5.044353
       potential(ionic) =  -12.921184

   izeta = 2
                 rmatch =    2.187845
              splitnorm =    0.280000
                 energy =   -0.885018
                kinetic =    8.134434
    potential(screened) =   -9.019452
       potential(ionic) =  -17.710645

SPLIT: Orbitals with angular momentum L= 1

SPLIT: Basis orbitals for state 2p

SPLIT: PAO cut-off radius determined from an
SPLIT: energy shift=  0.002000 Ry

   izeta = 1
                 lambda =    1.000000
                     rc =    5.314825
                 energy =   -0.661986
                kinetic =    4.917472
    potential(screened) =   -5.579458
       potential(ionic) =  -13.236259

   izeta = 2
                 rmatch =    2.160663
              splitnorm =    0.280000
                 energy =   -0.068760
                kinetic =    9.183374
    potential(screened) =   -9.252135
       potential(ionic) =  -18.274251

POLgen: Perturbative polarization orbital with L=  2

POLgen: Polarization orbital for state 2p

   izeta = 1
                     rc =    5.314825
                 energy =    1.970580
                kinetic =    3.886128
    potential(screened) =   -1.915547
       potential(ionic) =   -7.749584
atom: Total number of Sankey-type orbitals: 13

atm_pop: Valence configuration (for local Pseudopot. screening):
 2s( 2.00)                                                            
 2p( 4.00)                                                            
Vna: chval, zval:    6.00000   6.00000

Vna:  Cut-off radius for the neutral-atom potential:   5.314825

atom: _________________________________________________________________________

prinput: Basis input ----------------------------------------------------------

PAO.BasisType split     

%block ChemicalSpeciesLabel
    1    1 H                       # Species index, atomic number, species label
    2    7 N                       # Species index, atomic number, species label
    3   14 Si                      # Species index, atomic number, species label
    4    8 O                       # Species index, atomic number, species label
%endblock ChemicalSpeciesLabel

%block PAO.Basis                 # Define Basis set
H                     1                    # Species label, number of l-shells
 n=1   0   2 P   1                   # n, l, Nzeta, Polarization, NzetaPol
   6.518      2.141   
   1.000      1.000   
N                     2                    # Species label, number of l-shells
 n=2   0   2                         # n, l, Nzeta 
   4.730      2.532   
   1.000      1.000   
 n=2   1   2 P   1                   # n, l, Nzeta, Polarization, NzetaPol
   5.924      2.532   
   1.000      1.000   
Si                    2                    # Species label, number of l-shells
 n=3   0   2                         # n, l, Nzeta 
   6.430      3.998   
   1.000      1.000   
 n=3   1   2 P   1                   # n, l, Nzeta, Polarization, NzetaPol
   8.465      4.588   
   1.000      1.000   
O                     2                    # Species label, number of l-shells
 n=2   0   2                         # n, l, Nzeta 
   4.244      2.188   
   1.000      1.000   
 n=2   1   2 P   1                   # n, l, Nzeta, Polarization, NzetaPol
   5.315      2.161   
   1.000      1.000   
%endblock PAO.Basis

prinput: ----------------------------------------------------------------------

Dumping basis to NetCDF file H.ion.nc
Dumping basis to NetCDF file N.ion.nc
Dumping basis to NetCDF file Si.ion.nc
Dumping basis to NetCDF file O.ion.nc
coor:   Atomic-coordinates input format  =     Cartesian coordinates
coor:                                          (in Angstroms)

siesta: Atomic coordinates (Bohr) and species
siesta:      4.87999 -10.91663   0.00000  1        1
siesta:      3.12704  -9.95765   0.00000  2        2
siesta:      0.11930 -11.53056   0.00000  3        3
siesta:      0.22530 -14.35597   0.00000  1        4
siesta:     -2.60195  -9.79371   0.00000  2        5
siesta:     -1.55784  -6.54009   0.00000  3        6
siesta:     -2.21206  -2.39996   0.00000  3        7
siesta:     -5.11537  -0.78899   0.00000  2        8
siesta:     -5.20538   1.19971   0.00000  1        9
siesta:     -6.87421  -1.71959   0.00000  1       10
siesta:      0.41213  -0.44256   0.00000  2       11
siesta:      3.53758  -1.31745   0.00000  3       12
siesta:      5.34415   0.87204   0.00000  1       13
siesta:      5.00428  -4.26138   0.00000  2       14
siesta:      2.63035  -6.52849   0.00000  3       15
siesta:      3.45982  16.57790   0.00000  2       16
siesta:      0.95145  18.86486   0.00000  3       17
siesta:      2.16088  21.43738   0.00000  1       18
siesta:     -2.99004  17.59774   0.00000  3       19
siesta:     -6.82536  19.73335   0.00000  3       20
siesta:     -6.53389  21.92587   1.77692  1       21
siesta:     -8.68850  17.80220   0.96870  1       22
siesta:     -7.61189  20.63329  -2.58265  1       23
siesta:     -2.86438  13.30054   0.00000  3       24
siesta:     -4.82790  11.04599   0.00000  4       25
siesta:      0.26688  12.10250   0.00000  2       26
siesta:      0.23284  10.09477   0.00000  1       27
siesta:      3.33505  13.23080   0.00000  3       28
siesta:      5.59330  11.31382   0.00000  4       29
siesta:      5.34962  17.23082   0.00000  1       30

siesta: Automatic unit cell vectors (Ang):
siesta:   15.886891    0.000000    0.000000
siesta:    0.000000   28.708049    0.000000
siesta:    0.000000    0.000000   10.224979

siesta: System type = molecule  

initatomlists: Number of atoms, orbitals, and projectors:     30   302   403

siesta: ******************** Simulation parameters ****************************
siesta:
siesta: The following are some of the parameters of the simulation.
siesta: A complete list of the parameters used, including default values,
siesta: can be found in file out.fdf
siesta:
redata: Spin configuration                          = spin-orbit
redata: Number of spin components                   = 8
redata: Time-Reversal Symmetry                      = F
redata: Spin spiral                                 = F
############################################################
This spin-orbit implementation uses a local approximation.
From 4.2 and onwards the full non-local approximation is implemented
You are strongly advised to use >=4.2 versions!
############################################################
redata: Long output                                 =   F
redata: Number of Atomic Species                    =        4
redata: Charge density info will appear in .RHO file
redata: Write Mulliken Pop.                         = Atomic and Orbital charges
redata: Matel table size (NRTAB)                    =     1024
redata: Mesh Cutoff                                 =   340.0000 Ry
redata: Net charge of the system                    =     0.0000 |e|
redata: Min. number of SCF Iter                     =        1
redata: Max. number of SCF Iter                     =      200
redata: SCF mix quantity                            = Hamiltonian
redata: Mix DM or H after convergence               =   F
redata: Recompute H after scf cycle                 =   F
redata: Mix DM in first SCF step                    =   T
redata: Write Pulay info on disk                    =   F
redata: New DM Occupancy tolerance                  = 0.000000000001
redata: No kicks to SCF
redata: DM Mixing Weight for Kicks                  =     0.5000
redata: Require Harris convergence for SCF          =   F
redata: Harris energy tolerance for SCF             =     0.000100 eV
redata: Require DM convergence for SCF              =   T
redata: DM tolerance for SCF                        =     0.000008
redata: Require EDM convergence for SCF             =   F
redata: EDM tolerance for SCF                       =     0.001000 eV
redata: Require H convergence for SCF               =   T
redata: Hamiltonian tolerance for SCF               =     0.000001 eV
redata: Require (free) Energy convergence for SCF   =   F
redata: (free) Energy tolerance for SCF             =     0.000100 eV
redata: Using Saved Data (generic)                  =   F
redata: Use continuation files for DM               =   F
redata: Neglect nonoverlap interactions             =   F
redata: Method of Calculation                       = Diagonalization
redata: Electronic Temperature                      =   299.9978 K
redata: Fix the spin of the system                  =   F
redata: Dynamics option                             = Single-point calculation
mix.SCF: Pulay mixing                            = Pulay
mix.SCF:    Variant                              = stable
mix.SCF:    History steps                        = 6
mix.SCF:    Linear mixing weight                 =     0.250000
mix.SCF:    Mixing weight                        =     0.250000
mix.SCF:    SVD condition                        = 0.1000E-07
mix.SCF:    Restart steps                        = 24
mix.SCF:    Restart save steps                   = 3
mix.SCF: Spin-component mixing                   all
redata: Save all siesta data in one NC              =   F
redata: ***********************************************************************

%block SCF.Mixers
  Pulay
%endblock SCF.Mixers

%block SCF.Mixer.Pulay
  # Mixing method
  method pulay
  variant stable

  # Mixing options
  weight 0.2500
  weight.linear 0.2500
  history 6
  restart 24
  restart.save 3
%endblock SCF.Mixer.Pulay

DM_history_depth set to one: no extrapolation allowed by default for geometry relaxation
Size of DM history Fstack: 1
Total number of electrons:    98.000000
Total ionic charge:    98.000000

* ProcessorY, Blocksize:    2  24


* Orbital distribution balance (max,min):    62    48


Time-reversal symmetry not used.

siesta: k-grid: Number of k-points =     1
siesta: k-grid: Cutoff (effective) =     5.112 Ang
siesta: k-grid: Supercell and displacements
siesta: k-grid:    1   0   0      0.000
siesta: k-grid:    0   1   0      0.000
siesta: k-grid:    0   0   1      0.000

diag: Algorithm                                     = ELPA-1stage
diag: Parallel over k                               =   F
diag: Use parallel 2D distribution                  =   T
diag: Parallel block-size                           = 24
diag: Parallel distribution                         =     2 x     3
diag: Used triangular part                          = Lower
diag: Absolute tolerance                            =  0.100E-15
diag: Orthogonalization factor                      =  0.100E-05
diag: Memory factor                                 =  1.0000


ts: **************************************************************
ts: Save H and S matrices                           =    F
ts: Save DM and EDM matrices                        =    F
ts: Only save the overlap matrix S                  =    F
ts: **************************************************************

************************ Begin: TS CHECKS AND WARNINGS ************************
************************ End: TS CHECKS AND WARNINGS **************************


                     ====================================
                        Single-point calculation
                     ====================================

outcoor: Atomic coordinates (Ang):                          
    2.58237765   -5.77683044    0.00000000   1       1  H
    1.65475924   -5.26936198    0.00000000   2       2  N
    0.06312884   -6.10170459    0.00000000   3       3  Si
    0.11922324   -7.59684950    0.00000000   1       4  H
   -1.37689205   -5.18260374    0.00000000   2       5  N
   -0.82437190   -3.46086644    0.00000000   3       6  Si
   -1.17057148   -1.27000210    0.00000000   3       7  Si
   -2.70693368   -0.41751578    0.00000000   2       8  N
   -2.75456966    0.63485862    0.00000000   1       9  H
   -3.63767564   -0.90996786    0.00000000   1      10  H
    0.21809179   -0.23419397    0.00000000   2      11  N
    1.87200410   -0.69716230    0.00000000   3      12  Si
    2.82800113    0.46146477    0.00000000   1      13  H
    2.64815008   -2.25502447    0.00000000   2      14  N
    1.39192138   -3.45472722    0.00000000   3      15  Si
    1.83085879    8.77264563    0.00000000   2      16  N
    0.50348727    9.98284993    0.00000000   3      17  Si
    1.14348854   11.34416817    0.00000000   1      18  H
   -1.58225867    9.31231858    0.00000000   3      19  Si
   -3.61182127   10.44243477    0.00000000   3      20  Si
   -3.45758550   11.60266498    0.94030528   1      21  H
   -4.59775599    9.42051415    0.51261370   1      22  H
   -4.02803623   10.91866062   -1.36667834   1      23  H
   -1.51576325    7.03834196    0.00000000   3      24  Si
   -2.55481198    5.84528246    0.00000000   4      25  O
    0.14122833    6.40436677    0.00000000   2      26  N
    0.12321096    5.34192194    0.00000000   1      27  H
    1.76483140    7.00143698    0.00000000   3      28  Si
    2.95984757    5.98701178    0.00000000   4      29  O
    2.83089616    9.11815273    0.00000000   1      30  H

outcell: Unit cell vectors (Ang):
       15.886891    0.000000    0.000000
        0.000000   28.708049    0.000000
        0.000000    0.000000   10.224979

outcell: Cell vector modules (Ang)   :   15.886891   28.708049   10.224979
outcell: Cell angles (23,13,12) (deg):     90.0000     90.0000     90.0000
outcell: Cell volume (Ang**3)        :   4663.4254
<dSpData1D:S at geom step 0
  <sparsity:sparsity for geom step 0
    nrows_g=302 nrows=62 sparsity=.0999 nnzs=9110, refcount: 8>
  <dData1D:(new from dSpData1D) n=9110, refcount: 1>
refcount: 1>
new_DM -- step:     1
Initializing Density Matrix...
DM filled with atomic data:
<dSpData2D:DM initialized from atoms
  <sparsity:sparsity for geom step 0
    nrows_g=302 nrows=62 sparsity=.0999 nnzs=9110, refcount: 9>
  <dData2D:DM n=9110 m=8, refcount: 1>
refcount: 1>
     spin moment: S , {S} =   56.00000   0.00000   0.00000  56.00000
No. of atoms with KB's overlaping orbs in proc 0. Max # of overlaps:      24     133

Initializing spin-orbit part of the Hamiltonian
  Adding spin-orbit effects for H 
  Adding spin-orbit effects for N 
  Adding spin-orbit effects for Si
  Adding spin-orbit effects for O 


New grid distribution:   1
           1       1:   90    1:   80    1:   20
           2       1:   90    1:   80   21:   40
           3       1:   90    1:   80   41:   60
           4       1:   90   81:  160    1:   20
           5       1:   90   81:  160   21:   40
           6       1:   90   81:  160   41:   60

InitMesh: MESH =   180 x   320 x   120 =     6912000
InitMesh: (bp) =    90 x   160 x    60 =      864000
InitMesh: Mesh cutoff (required, used) =   340.000   343.395 Ry
ExtMesh (bp) on 0 =   194 x   180 x   128 =     4469760
New grid distribution:   2
           1      14:   90   45:   64    1:   60
           2       1:   11   65:  160    1:   60
           3       1:   13    1:   64    1:   60
           4      12:   90   65:  141    1:   60
           5      14:   90    1:   44    1:   60
           6      12:   90  142:  160    1:   60
New grid distribution:   3
           1       1:   19   65:  160    1:   60
           2      22:   90   40:   64    1:   60
           3       1:   21    1:   64    1:   60
           4      20:   90   65:  131    1:   60
           5      22:   90    1:   39    1:   60
           6      20:   90  132:  160    1:   60
Setting up quadratic distribution...
ExtMesh (bp) on 0 =   181 x   120 x   168 =     3648960
PhiOnMesh: Number of (b)points on node 0 =                92400
PhiOnMesh: nlist on node 0 =              1683569

stepf: Fermi-Dirac step function

siesta: Program's energy decomposition (eV):
siesta: Ebs     =      -636.550369
siesta: Eions   =      3553.971015
siesta: Ena     =       377.805313
siesta: Ekin    =      3183.491083
siesta: Enl     =     -2998.383405
siesta: Eso     =        -0.003900
siesta: Edftu   =         0.000000
siesta: DEna    =       130.414128
siesta: DUscf   =        76.815438
siesta: DUext   =         0.000000
siesta: Exc     =     -1171.415293
siesta: eta*DQ  =         0.000000
siesta: Emadel  =         0.000000
siesta: Emeta   =         0.000000
siesta: Emolmec =         0.000000
siesta: Ekinion =         0.000000
siesta: Eharris =     -3882.148573
siesta: Etot    =     -3955.247650
siesta: FreeEng =     -3955.251888

        iscf     Eharris(eV)        E_KS(eV)     FreeEng(eV)     dDmax    Ef(eV) dHmax(eV)
   scf:    1    -3882.148573    -3955.247650    -3955.251888  0.971473 -4.940985 21.565852
     spin moment: S , {S} =    2.03204   0.00003   0.00001   2.03204
timer: Routine,Calls,Time,% = IterSCF        1       5.579  21.87
   scf:    2    -3997.421088    -3989.092923    -3989.092925  0.457146 -4.371191 10.963399
     spin moment: S , {S} =    2.00010  -0.00001   0.00004   2.00010
   scf:    3    -3969.543339    -3988.757006    -3988.788371  0.415024 -4.286666 10.233922
     spin moment: S , {S} =    1.50960   0.00002   0.00001   1.50960
   scf:    4    -4001.573668    -3997.364443    -3997.364447  0.249286 -3.982464  5.659269
     spin moment: S , {S} =    0.00011   0.00001  -0.00000   0.00011
   scf:    5    -3998.646161    -3998.098628    -3998.098628  0.039667 -3.912228  3.234444
     spin moment: S , {S} =    0.00006   0.00001  -0.00000   0.00006
   scf:    6    -3998.793268    -3998.454632    -3998.454632  0.023353 -3.904686  1.832677
     spin moment: S , {S} =    0.00003   0.00000  -0.00000   0.00003
   scf:    7    -3998.858572    -3998.648808    -3998.648808  0.024345 -3.954120  0.753545
     spin moment: S , {S} =    0.00001   0.00000  -0.00000   0.00001
   scf:    8    -3998.766402    -3998.705354    -3998.705354  0.011919 -3.994220  0.438518
     spin moment: S , {S} =    0.00000   0.00000  -0.00000   0.00000
   scf:    9    -3998.748437    -3998.725971    -3998.725972  0.006604 -4.009627  0.343464
     spin moment: S , {S} =    0.00000   0.00000  -0.00000   0.00000
   scf:   10    -3998.782150    -3998.746735    -3998.746743  0.021181 -4.034798  0.188787
     spin moment: S , {S} =    0.00002   0.00000   0.00000  -0.00002
   scf:   11    -3998.750457    -3998.748673    -3998.748685  0.004085 -4.022549  0.056007
     spin moment: S , {S} =    0.00000   0.00000   0.00000   0.00000
   scf:   12    -3998.749274    -3998.748982    -3998.748996  0.001230 -4.020437  0.030597
     spin moment: S , {S} =    0.00000   0.00000   0.00000   0.00000
   scf:   13    -3998.749384    -3998.749180    -3998.749195  0.000912 -4.018412  0.015082
     spin moment: S , {S} =    0.00000   0.00000   0.00000   0.00000
   scf:   14    -3998.749371    -3998.749272    -3998.749287  0.000919 -4.017654  0.010931
     spin moment: S , {S} =    0.00000   0.00000   0.00000   0.00000
   scf:   15    -3998.749385    -3998.749324    -3998.749340  0.000907 -4.017301  0.007895
     spin moment: S , {S} =    0.00000   0.00000   0.00000   0.00000
   scf:   16    -3998.749382    -3998.749350    -3998.749366  0.000761 -4.017328  0.005161
     spin moment: S , {S} =    0.00000   0.00000   0.00000  -0.00000
   scf:   17    -3998.749372    -3998.749360    -3998.749376  0.000502 -4.017400  0.003797
     spin moment: S , {S} =    0.00000   0.00000   0.00000  -0.00000
   scf:   18    -3998.749367    -3998.749363    -3998.749379  0.000266 -4.017461  0.002552
     spin moment: S , {S} =    0.00000   0.00000   0.00000  -0.00000
   scf:   19    -3998.749368    -3998.749365    -3998.749381  0.000312 -4.017464  0.001374
     spin moment: S , {S} =    0.00000   0.00000   0.00000  -0.00000
   scf:   20    -3998.749366    -3998.749366    -3998.749381  0.000103 -4.017472  0.000946
     spin moment: S , {S} =    0.00000   0.00000   0.00000  -0.00000
   scf:   21    -3998.749366    -3998.749366    -3998.749381  0.000118 -4.017474  0.000446
     spin moment: S , {S} =    0.00000   0.00000   0.00000  -0.00000
   scf:   22    -3998.749366    -3998.749366    -3998.749382  0.000079 -4.017482  0.000147
     spin moment: S , {S} =    0.00000   0.00000  -0.00000  -0.00000
   scf:   23    -3998.749366    -3998.749366    -3998.749382  0.000023 -4.017486  0.000089
     spin moment: S , {S} =    0.00000   0.00000  -0.00000  -0.00000
   scf:   24    -3998.749366    -3998.749366    -3998.749382  0.000007 -4.017487  0.000056
     spin moment: S , {S} =    0.00000   0.00000  -0.00000  -0.00000
mix: Pulay -- resetting history
   scf:   25    -3998.749366    -3998.749366    -3998.749382  0.000004 -4.017485  0.000026
     spin moment: S , {S} =    0.00000   0.00000  -0.00000  -0.00000
   scf:   26    -3998.749366    -3998.749366    -3998.749382  0.000002 -4.017484  0.000016
     spin moment: S , {S} =    0.00000   0.00000  -0.00000  -0.00000
   scf:   27    -3998.749366    -3998.749366    -3998.749382  0.000001 -4.017483  0.000010
     spin moment: S , {S} =    0.00000   0.00000  -0.00000  -0.00000
   scf:   28    -3998.749366    -3998.749366    -3998.749382  0.000001 -4.017483  0.000007
     spin moment: S , {S} =    0.00000   0.00000  -0.00000  -0.00000
   scf:   29    -3998.749366    -3998.749366    -3998.749382  0.000000 -4.017483  0.000004
     spin moment: S , {S} =    0.00000   0.00000  -0.00000  -0.00000
   scf:   30    -3998.749366    -3998.749366    -3998.749382  0.000000 -4.017483  0.000003
     spin moment: S , {S} =    0.00000   0.00000  -0.00000   0.00000
   scf:   31    -3998.749366    -3998.749366    -3998.749382  0.000000 -4.017483  0.000002
     spin moment: S , {S} =    0.00000   0.00000  -0.00000   0.00000
   scf:   32    -3998.749366    -3998.749366    -3998.749382  0.000000 -4.017483  0.000002
     spin moment: S , {S} =    0.00000   0.00000  -0.00000   0.00000
   scf:   33    -3998.749366    -3998.749366    -3998.749382  0.000000 -4.017483  0.000001
     spin moment: S , {S} =    0.00000   0.00000  -0.00000   0.00000

SCF Convergence by DM+H criterion
max |DM_out - DM_in|         :     0.0000002257
max |H_out - H_in|      (eV) :     0.0000008089
SCF cycle converged after 33 iterations

Using DM_out to compute the final energy and forces
No. of atoms with KB's overlaping orbs in proc 0. Max # of overlaps:      24     133

siesta: E_KS(eV) =            -3998.7494

siesta: E_KS - E_eggbox =     -3998.7494
     spin moment: S , {S} =    0.00000   0.00000  -0.00000   0.00000

siesta: Atomic forces (eV/Ang):
     1   -0.028785    0.049396    0.000002
     2   -0.003038   -0.036760   -0.000002
     3   -0.003643    0.040477    0.000004
     4   -0.027341   -0.044432    0.000001
     5    0.018998   -0.035574   -0.000003
     6    0.021711    0.005136   -0.000000
     7   -0.054833    0.102984    0.000004
     8    0.049799   -0.038966   -0.000015
     9    0.096227   -0.070479    0.000020
    10    0.144877    0.115369    0.000003
    11   -0.042153   -0.040400   -0.000005
    12    0.036372    0.059441    0.000001
    13   -0.101301   -0.205774   -0.000000
    14   -0.031324   -0.108410    0.000000
    15    0.000093    0.065684   -0.000000
    16   -0.004279    0.080300    0.008012
    17   -0.012538   -0.043895   -0.039742
    18   -0.075162    0.044210    0.008226
    19    0.008348    0.030841   -0.041234
    20    0.041067   -0.057045    0.027113
    21   -0.071317    0.092702    0.068517
    22    0.162774    0.038856    0.000780
    23   -0.012354    0.068460   -0.053993
    24    0.028403   -0.112418   -0.026627
    25   -1.630979   -2.686614    0.003257
    26   -0.026746    0.065604    0.006536
    27   -0.007178   -0.071684    0.002785
    28    0.002973   -0.117371   -0.000874
    29    1.953246    4.472411   -0.001076
    30    0.021521    0.206412    0.008278
----------------------------------------
   Tot    0.453437    1.868463   -0.030031
----------------------------------------
   Max    4.472411
   Res    0.614750    sqrt( Sum f_i^2 / 3N )
----------------------------------------
   Max    4.472411    constrained

Stress tensor Voigt[x,y,z,yz,xz,xy] (kbar):       -1.59       -0.50       -0.21       -0.04        0.05        0.28
(Free)E + p*V (eV/cell)    -3996.5208
Target enthalpy (eV/cell)    -3998.7494

mulliken: Atomic and Orbital Populations:

Species: H                   

Atom      Orb        Charge      Spin       Svec
----------------------------------------------------------------
    1  1 1s         0.50851   0.00000      0.000  -0.000   0.000
    1  2 1s         0.18805   0.00000     -0.000   0.000   0.000
    1  3 2Ppy       0.02791   0.00000     -0.000  -0.000  -0.000
    1  4 2Ppz       0.03994   0.00000     -0.000   0.000  -0.000
    1  5 2Ppx       0.02506   0.00000     -0.000  -0.000   0.000
    1     Total     0.78947   0.00000     -0.000  -0.000   0.000

    4  1 1s         1.02379   0.00000     -0.000  -0.000  -0.000
    4  2 1s         0.09507   0.00000      0.000   0.000   0.000
    4  3 2Ppy       0.03906   0.00000      0.000   0.000   0.000
    4  4 2Ppz       0.01987   0.00000     -0.000   0.000   0.000
    4  5 2Ppx       0.01356   0.00000     -0.000  -0.000  -0.000
    4     Total     1.19136   0.00000     -0.000  -0.000  -0.000

    9  1 1s         0.47931   0.00000     -0.000  -0.000  -0.000
    9  2 1s         0.19542   0.00000     -0.000   0.000  -0.000
    9  3 2Ppy       0.02297   0.00000     -0.000  -0.000   0.000
    9  4 2Ppz       0.04904   0.00000      0.000  -0.000  -0.000
    9  5 2Ppx       0.01237   0.00000      0.000   0.000  -0.000
    9     Total     0.75912   0.00000      0.000  -0.000  -0.000

   10  1 1s         0.48230   0.00000      0.000   0.000  -0.000
   10  2 1s         0.19605   0.00000     -0.000   0.000   0.000
   10  3 2Ppy       0.00685   0.00000      0.000  -0.000   0.000
   10  4 2Ppz       0.05300   0.00000      0.000  -0.000   0.000
   10  5 2Ppx       0.02900   0.00000      0.000  -0.000  -0.000
   10     Total     0.76720   0.00000      0.000  -0.000  -0.000

   13  1 1s         1.01374   0.00000     -0.000  -0.000  -0.000
   13  2 1s         0.09950   0.00000      0.000   0.000  -0.000
   13  3 2Ppy       0.02471   0.00000     -0.000   0.000   0.000
   13  4 2Ppz       0.01446   0.00000      0.000   0.000  -0.000
   13  5 2Ppx       0.01751   0.00000     -0.000  -0.000   0.000
   13     Total     1.16991   0.00000     -0.000   0.000  -0.000

   18  1 1s         1.05044   0.00000     -0.000  -0.000  -0.000
   18  2 1s         0.08377   0.00000      0.000   0.000   0.000
   18  3 2Ppy       0.02779   0.00000     -0.000  -0.000   0.000
   18  4 2Ppz       0.01893   0.00000      0.000   0.000  -0.000
   18  5 2Ppx       0.01767   0.00000      0.000   0.000  -0.000
   18     Total     1.19859   0.00000     -0.000  -0.000  -0.000

   21  1 1s         1.06688   0.00000     -0.000  -0.000  -0.000
   21  2 1s         0.08253   0.00000      0.000  -0.000   0.000
   21  3 2Ppy       0.02229   0.00000      0.000  -0.000   0.000
   21  4 2Ppz       0.02110   0.00000      0.000   0.000   0.000
   21  5 2Ppx       0.01160   0.00000      0.000  -0.000  -0.000
   21     Total     1.20440   0.00000     -0.000  -0.000  -0.000

   22  1 1s         1.05168   0.00000     -0.000   0.000  -0.000
   22  2 1s         0.08383   0.00000      0.000  -0.000   0.000
   22  3 2Ppy       0.02013   0.00000      0.000  -0.000  -0.000
   22  4 2Ppz       0.01767   0.00000      0.000  -0.000  -0.000
   22  5 2Ppx       0.01708   0.00000     -0.000  -0.000   0.000
   22     Total     1.19040   0.00000     -0.000   0.000  -0.000

   23  1 1s         1.06506   0.00000     -0.000  -0.000  -0.000
   23  2 1s         0.08206   0.00000      0.000   0.000   0.000
   23  3 2Ppy       0.01684   0.00000     -0.000   0.000  -0.000
   23  4 2Ppz       0.02461   0.00000     -0.000  -0.000   0.000
   23  5 2Ppx       0.01349   0.00000      0.000  -0.000   0.000
   23     Total     1.20207   0.00000     -0.000  -0.000  -0.000

   27  1 1s         0.46452   0.00000     -0.000   0.000   0.000
   27  2 1s         0.19043   0.00000      0.000   0.000  -0.000
   27  3 2Ppy       0.02016   0.00000     -0.000  -0.000  -0.000
   27  4 2Ppz       0.02566   0.00000     -0.000   0.000  -0.000
   27  5 2Ppx       0.02935   0.00000      0.000  -0.000   0.000
   27     Total     0.73011   0.00000     -0.000   0.000   0.000

   30  1 1s         0.48347   0.00000     -0.000  -0.000  -0.000
   30  2 1s         0.18902   0.00000      0.000   0.000   0.000
   30  3 2Ppy       0.02652   0.00000      0.000  -0.000   0.000
   30  4 2Ppz       0.03452   0.00000      0.000   0.000   0.000
   30  5 2Ppx       0.02315   0.00000      0.000  -0.000   0.000
   30     Total     0.75669   0.00000      0.000  -0.000   0.000

----------------------------------------------------------------
Total              10.95932   0.00000     -0.000  -0.000  -0.000


Species: N                   

Atom      Orb        Charge      Spin       Svec
----------------------------------------------------------------
    2  1 2s         1.38113   0.00000     -0.000  -0.000  -0.000
    2  2 2s         0.12657   0.00000      0.000   0.000   0.000
    2  3 2py        1.06833   0.00000      0.000   0.000  -0.000
    2  4 2pz        1.49545   0.00000     -0.000  -0.000  -0.000
    2  5 2px        1.01748   0.00000     -0.000   0.000  -0.000
    2  6 2py        0.19588   0.00000     -0.000  -0.000   0.000
    2  7 2pz        0.01428   0.00000     -0.000   0.000   0.000
    2  8 2px        0.20994   0.00000      0.000  -0.000   0.000
    2  9 3Pdxy      0.00673   0.00000     -0.000  -0.000   0.000
    2 10 3Pdyz      0.00606   0.00000     -0.000  -0.000   0.000
    2 11 3Pdz2      0.00151   0.00000      0.000  -0.000   0.000
    2 12 3Pdxz      0.00304   0.00000      0.000   0.000   0.000
    2 13 3Pdx2-y2   0.00297   0.00000     -0.000  -0.000  -0.000
    2     Total     5.52938   0.00000     -0.000  -0.000  -0.000

    5  1 2s         1.55820   0.00000     -0.000  -0.000  -0.000
    5  2 2s         0.08110   0.00000      0.000   0.000  -0.000
    5  3 2py        0.90452   0.00000     -0.000  -0.000  -0.000
    5  4 2pz        1.22249   0.00000      0.000  -0.000  -0.000
    5  5 2px        1.14175   0.00000     -0.000  -0.000  -0.000
    5  6 2py        0.23010   0.00000      0.000   0.000   0.000
    5  7 2pz        0.05524   0.00000     -0.000  -0.000   0.000
    5  8 2px        0.14635   0.00000      0.000  -0.000   0.000
    5  9 3Pdxy      0.00854   0.00000      0.000  -0.000  -0.000
    5 10 3Pdyz      0.00700   0.00000     -0.000   0.000   0.000
    5 11 3Pdz2      0.00189   0.00000      0.000   0.000   0.000
    5 12 3Pdxz      0.01129   0.00000      0.000   0.000   0.000
    5 13 3Pdx2-y2   0.00920   0.00000      0.000   0.000   0.000
    5     Total     5.37765   0.00000     -0.000  -0.000  -0.000

    8  1 2s         1.28481   0.00000      0.000   0.000  -0.000
    8  2 2s         0.17153   0.00000     -0.000  -0.000  -0.000
    8  3 2py        1.06166   0.00000     -0.000   0.000  -0.000
    8  4 2pz        1.57179   0.00000     -0.000  -0.000  -0.000
    8  5 2px        1.00422   0.00000      0.000  -0.000  -0.000
    8  6 2py        0.19488   0.00000      0.000  -0.000   0.000
    8  7 2pz        0.02738   0.00000      0.000   0.000  -0.000
    8  8 2px        0.22886   0.00000      0.000   0.000   0.000
    8  9 3Pdxy      0.00269   0.00000     -0.000  -0.000  -0.000
    8 10 3Pdyz      0.00082   0.00000     -0.000  -0.000  -0.000
    8 11 3Pdz2      0.00273   0.00000     -0.000  -0.000   0.000
    8 12 3Pdxz      0.00243   0.00000     -0.000  -0.000  -0.000
    8 13 3Pdx2-y2   0.00435   0.00000      0.000  -0.000   0.000
    8     Total     5.55815   0.00000     -0.000  -0.000  -0.000

   11  1 2s         1.45903   0.00000      0.000   0.000   0.000
   11  2 2s         0.11392   0.00000     -0.000  -0.000  -0.000
   11  3 2py        1.22271   0.00000     -0.000  -0.000  -0.000
   11  4 2pz        1.28749   0.00000     -0.000  -0.000  -0.000
   11  5 2px        0.79906   0.00000      0.000  -0.000  -0.000
   11  6 2py        0.11200   0.00000      0.000   0.000   0.000
   11  7 2pz        0.04628   0.00000      0.000   0.000  -0.000
   11  8 2px        0.31782   0.00000     -0.000   0.000   0.000
   11  9 3Pdxy      0.00736   0.00000      0.000   0.000   0.000
   11 10 3Pdyz      0.00609   0.00000     -0.000   0.000   0.000
   11 11 3Pdz2      0.00055   0.00000     -0.000  -0.000   0.000
   11 12 3Pdxz      0.00496   0.00000      0.000  -0.000  -0.000
   11 13 3Pdx2-y2   0.00527   0.00000     -0.000  -0.000   0.000
   11     Total     5.38256   0.00000     -0.000  -0.000  -0.000

   14  1 2s         1.50652   0.00000      0.000  -0.000  -0.000
   14  2 2s         0.10228   0.00000     -0.000   0.000  -0.000
   14  3 2py        0.84401   0.00000      0.000   0.000  -0.000
   14  4 2pz        1.23725   0.00000     -0.000   0.000  -0.000
   14  5 2px        1.17750   0.00000      0.000  -0.000  -0.000
   14  6 2py        0.27749   0.00000      0.000  -0.000   0.000
   14  7 2pz        0.05438   0.00000      0.000  -0.000   0.000
   14  8 2px        0.13196   0.00000     -0.000   0.000   0.000
   14  9 3Pdxy      0.00949   0.00000     -0.000   0.000  -0.000
   14 10 3Pdyz      0.00491   0.00000      0.000  -0.000   0.000
   14 11 3Pdz2      0.00146   0.00000     -0.000  -0.000  -0.000
   14 12 3Pdxz      0.01066   0.00000      0.000  -0.000   0.000
   14 13 3Pdx2-y2   0.00792   0.00000     -0.000  -0.000   0.000
   14     Total     5.36582   0.00000      0.000   0.000  -0.000

   16  1 2s         1.37898   0.00000     -0.000   0.000  -0.000
   16  2 2s         0.12573   0.00000      0.000  -0.000   0.000
   16  3 2py        0.99130   0.00000      0.000   0.000  -0.000
   16  4 2pz        1.54757   0.00000     -0.000   0.000  -0.000
   16  5 2px        1.08040   0.00000      0.000   0.000  -0.000
   16  6 2py        0.23943   0.00000     -0.000  -0.000   0.000
   16  7 2pz        0.00326   0.00000      0.000  -0.000  -0.000
   16  8 2px        0.18043   0.00000      0.000  -0.000  -0.000
   16  9 3Pdxy      0.00153   0.00000     -0.000  -0.000   0.000
   16 10 3Pdyz      0.00477   0.00000     -0.000   0.000  -0.000
   16 11 3Pdz2      0.00088   0.00000      0.000  -0.000   0.000
   16 12 3Pdxz      0.00237   0.00000     -0.000  -0.000  -0.000
   16 13 3Pdx2-y2   0.00611   0.00000      0.000  -0.000   0.000
   16     Total     5.56273   0.00000      0.000   0.000  -0.000

   26  1 2s         1.37349   0.00000      0.000  -0.000  -0.000
   26  2 2s         0.12515   0.00000     -0.000  -0.000  -0.000
   26  3 2py        1.11261   0.00000     -0.000   0.000  -0.000
   26  4 2pz        1.53080   0.00000     -0.000   0.000  -0.000
   26  5 2px        0.94655   0.00000     -0.000  -0.000  -0.000
   26  6 2py        0.16915   0.00000      0.000  -0.000   0.000
   26  7 2pz        0.00505   0.00000      0.000   0.000   0.000
   26  8 2px        0.26505   0.00000      0.000   0.000   0.000
   26  9 3Pdxy      0.00064   0.00000     -0.000  -0.000  -0.000
   26 10 3Pdyz      0.00079   0.00000     -0.000   0.000   0.000
   26 11 3Pdz2     -0.00127   0.00000     -0.000   0.000  -0.000
   26 12 3Pdxz      0.00470   0.00000     -0.000   0.000   0.000
   26 13 3Pdx2-y2   0.00220   0.00000     -0.000   0.000   0.000
   26     Total     5.53493   0.00000     -0.000   0.000  -0.000

----------------------------------------------------------------
Total              49.27054   0.00000     -0.000   0.000  -0.000


Species: Si                  

Atom      Orb        Charge      Spin       Svec
----------------------------------------------------------------
    3  1 3s         0.55121   0.00000     -0.000  -0.000   0.000
    3  2 3s         0.38746   0.00000      0.000   0.000   0.000
    3  3 3py        0.08161   0.00000      0.000  -0.000   0.000
    3  4 3pz        0.53528   0.00000      0.000   0.000   0.000
    3  5 3px        0.36828   0.00000      0.000   0.000   0.000
    3  6 3py        0.49925   0.00000     -0.000  -0.000   0.000
    3  7 3pz        0.17605   0.00000      0.000   0.000   0.000
    3  8 3px        0.23724   0.00000     -0.000  -0.000   0.000
    3  9 3Pdxy      0.10813   0.00000      0.000  -0.000   0.000
    3 10 3Pdyz      0.05204   0.00000      0.000  -0.000   0.000
    3 11 3Pdz2      0.01014   0.00000     -0.000   0.000   0.000
    3 12 3Pdxz      0.13293   0.00000     -0.000   0.000   0.000
    3 13 3Pdx2-y2   0.32437   0.00000      0.000   0.000   0.000
    3     Total     3.46399   0.00000      0.000   0.000   0.000

    6  1 3s         0.66183   0.00000      0.000   0.000   0.000
    6  2 3s         0.37047   0.00000     -0.000  -0.000   0.000
    6  3 3py        0.13098   0.00000      0.000  -0.000  -0.000
    6  4 3pz        0.69466   0.00000      0.000   0.000  -0.000
    6  5 3px        0.49060   0.00000     -0.000   0.000   0.000
    6  6 3py        0.46531   0.00000     -0.000   0.000   0.000
    6  7 3pz        0.24295   0.00000     -0.000  -0.000   0.000
    6  8 3px        0.24559   0.00000      0.000  -0.000   0.000
    6  9 3Pdxy      0.18507   0.00000     -0.000   0.000   0.000
    6 10 3Pdyz      0.14727   0.00000     -0.000  -0.000  -0.000
    6 11 3Pdz2      0.01171   0.00000      0.000  -0.000   0.000
    6 12 3Pdxz      0.03652   0.00000      0.000   0.000  -0.000
    6 13 3Pdx2-y2   0.18880   0.00000      0.000   0.000  -0.000
    6     Total     3.87174   0.00000      0.000   0.000   0.000

    7  1 3s         0.62616   0.00000     -0.000  -0.000   0.000
    7  2 3s         0.36990   0.00000      0.000  -0.000  -0.000
    7  3 3py        0.37244   0.00000     -0.000  -0.000   0.000
    7  4 3pz        0.49262   0.00000     -0.000   0.000  -0.000
    7  5 3px        0.08015   0.00000     -0.000  -0.000   0.000
    7  6 3py        0.30338   0.00000      0.000   0.000   0.000
    7  7 3pz        0.20861   0.00000      0.000  -0.000  -0.000
    7  8 3px        0.42165   0.00000      0.000   0.000   0.000
    7  9 3Pdxy      0.20444   0.00000      0.000  -0.000   0.000
    7 10 3Pdyz      0.14273   0.00000     -0.000   0.000  -0.000
    7 11 3Pdz2      0.01065   0.00000      0.000   0.000  -0.000
    7 12 3Pdxz      0.15009   0.00000      0.000   0.000   0.000
    7 13 3Pdx2-y2   0.24201   0.00000     -0.000  -0.000   0.000
    7     Total     3.62482   0.00000     -0.000   0.000  -0.000

   12  1 3s         0.52699   0.00000      0.000  -0.000   0.000
   12  2 3s         0.40228   0.00000     -0.000   0.000   0.000
   12  3 3py        0.22993   0.00000      0.000   0.000   0.000
   12  4 3pz        0.43822   0.00000      0.000  -0.000   0.000
   12  5 3px        0.29012   0.00000      0.000   0.000   0.000
   12  6 3py        0.39451   0.00000     -0.000  -0.000   0.000
   12  7 3pz        0.17076   0.00000      0.000   0.000   0.000
   12  8 3px        0.34392   0.00000     -0.000  -0.000   0.000
   12  9 3Pdxy      0.38719   0.00000     -0.000   0.000   0.000
   12 10 3Pdyz      0.08019   0.00000      0.000  -0.000  -0.000
   12 11 3Pdz2      0.01044   0.00000     -0.000   0.000   0.000
   12 12 3Pdxz      0.09251   0.00000      0.000   0.000   0.000
   12 13 3Pdx2-y2   0.16489   0.00000      0.000   0.000   0.000
   12     Total     3.53196   0.00000      0.000  -0.000   0.000

   15  1 3s         0.66091   0.00000      0.000   0.000   0.000
   15  2 3s         0.36719   0.00000     -0.000  -0.000   0.000
   15  3 3py       -0.03273   0.00000     -0.000  -0.000   0.000
   15  4 3pz        0.51024   0.00000     -0.000  -0.000   0.000
   15  5 3px        0.38865   0.00000     -0.000  -0.000  -0.000
   15  6 3py        0.47457   0.00000     -0.000   0.000   0.000
   15  7 3pz        0.20040   0.00000      0.000   0.000   0.000
   15  8 3px        0.34015   0.00000      0.000   0.000   0.000
   15  9 3Pdxy      0.14150   0.00000     -0.000  -0.000   0.000
   15 10 3Pdyz      0.12584   0.00000      0.000   0.000   0.000
   15 11 3Pdz2      0.01383   0.00000      0.000   0.000   0.000
   15 12 3Pdxz      0.12449   0.00000     -0.000  -0.000  -0.000
   15 13 3Pdx2-y2   0.30181   0.00000     -0.000   0.000   0.000
   15     Total     3.61684   0.00000     -0.000  -0.000   0.000

   17  1 3s         0.73194   0.00000     -0.000  -0.000   0.000
   17  2 3s         0.35620   0.00000      0.000   0.000   0.000
   17  3 3py        0.09611   0.00000      0.000   0.000   0.000
   17  4 3pz        0.62734   0.00000      0.000   0.000  -0.000
   17  5 3px        0.35550   0.00000     -0.000  -0.000   0.000
   17  6 3py        0.45285   0.00000     -0.000  -0.000   0.000
   17  7 3pz        0.15075   0.00000     -0.000   0.000   0.000
   17  8 3px        0.33537   0.00000      0.000   0.000   0.000
   17  9 3Pdxy      0.15133   0.00000      0.000  -0.000   0.000
   17 10 3Pdyz      0.02343   0.00000      0.000   0.000  -0.000
   17 11 3Pdz2      0.00920   0.00000     -0.000  -0.000  -0.000
   17 12 3Pdxz      0.12866   0.00000     -0.000   0.000  -0.000
   17 13 3Pdx2-y2   0.12694   0.00000     -0.000   0.000  -0.000
   17     Total     3.54562   0.00000      0.000   0.000   0.000

   19  1 3s         0.86242   0.00000      0.000   0.000   0.000
   19  2 3s         0.31304   0.00000     -0.000  -0.000  -0.000
   19  3 3py        0.44664   0.00000     -0.000  -0.000  -0.000
   19  4 3pz        0.66008   0.00000     -0.000  -0.000   0.000
   19  5 3px        0.35322   0.00000     -0.000  -0.000   0.000
   19  6 3py        0.32181   0.00000      0.000   0.000   0.000
   19  7 3pz        0.26789   0.00000      0.000  -0.000   0.000
   19  8 3px        0.35631   0.00000      0.000   0.000  -0.000
   19  9 3Pdxy      0.09361   0.00000     -0.000   0.000   0.000
   19 10 3Pdyz      0.02942   0.00000      0.000  -0.000   0.000
   19 11 3Pdz2      0.01455   0.00000      0.000  -0.000   0.000
   19 12 3Pdxz      0.05653   0.00000     -0.000  -0.000   0.000
   19 13 3Pdx2-y2   0.13122   0.00000     -0.000   0.000   0.000
   19     Total     3.90675   0.00000     -0.000  -0.000   0.000

   20  1 3s         0.54042   0.00000      0.000  -0.000   0.000
   20  2 3s         0.44405   0.00000     -0.000   0.000   0.000
   20  3 3py        0.31078   0.00000      0.000   0.000   0.000
   20  4 3pz        0.25486   0.00000      0.000  -0.000   0.000
   20  5 3px        0.45537   0.00000     -0.000   0.000   0.000
   20  6 3py        0.38731   0.00000     -0.000  -0.000   0.000
   20  7 3pz        0.42306   0.00000     -0.000   0.000   0.000
   20  8 3px        0.27754   0.00000      0.000  -0.000   0.000
   20  9 3Pdxy      0.06995   0.00000     -0.000  -0.000  -0.000
   20 10 3Pdyz      0.08426   0.00000     -0.000  -0.000   0.000
   20 11 3Pdz2      0.05092   0.00000      0.000   0.000  -0.000
   20 12 3Pdxz      0.07241   0.00000     -0.000   0.000   0.000
   20 13 3Pdx2-y2   0.04586   0.00000      0.000   0.000   0.000
   20     Total     3.41679   0.00000      0.000   0.000   0.000

   24  1 3s         0.60605   0.00000      0.000   0.000   0.000
   24  2 3s         0.36932   0.00000     -0.000  -0.000  -0.000
   24  3 3py        0.27099   0.00000     -0.000   0.000  -0.000
   24  4 3pz        0.41029   0.00000     -0.000  -0.000   0.000
   24  5 3px        0.16849   0.00000      0.000   0.000   0.000
   24  6 3py        0.39792   0.00000      0.000  -0.000   0.000
   24  7 3pz        0.19289   0.00000      0.000   0.000   0.000
   24  8 3px        0.36019   0.00000     -0.000   0.000  -0.000
   24  9 3Pdxy      0.14199   0.00000      0.000  -0.000   0.000
   24 10 3Pdyz      0.14015   0.00000      0.000  -0.000   0.000
   24 11 3Pdz2      0.01534   0.00000     -0.000  -0.000  -0.000
   24 12 3Pdxz      0.12088   0.00000     -0.000   0.000   0.000
   24 13 3Pdx2-y2   0.34956   0.00000     -0.000  -0.000   0.000
   24     Total     3.54406   0.00000      0.000  -0.000   0.000

   28  1 3s         0.43362   0.00000      0.000  -0.000   0.000
   28  2 3s         0.37762   0.00000     -0.000   0.000  -0.000
   28  3 3py        0.16151   0.00000     -0.000  -0.000  -0.000
   28  4 3pz        0.40010   0.00000      0.000   0.000   0.000
   28  5 3px        0.16682   0.00000      0.000   0.000   0.000
   28  6 3py        0.36813   0.00000      0.000   0.000   0.000
   28  7 3pz        0.20460   0.00000      0.000   0.000   0.000
   28  8 3px        0.38554   0.00000      0.000  -0.000   0.000
   28  9 3Pdxy      0.14394   0.00000     -0.000  -0.000   0.000
   28 10 3Pdyz      0.12401   0.00000      0.000   0.000   0.000
   28 11 3Pdz2      0.01562   0.00000      0.000   0.000   0.000
   28 12 3Pdxz      0.15668   0.00000      0.000   0.000   0.000
   28 13 3Pdx2-y2   0.35150   0.00000     -0.000  -0.000   0.000
   28     Total     3.28968   0.00000      0.000   0.000   0.000

----------------------------------------------------------------
Total              85.08279   0.00000      0.000   0.000   0.000


Species: O                   

Atom      Orb        Charge      Spin       Svec
----------------------------------------------------------------
   25  1 2s         1.73805   0.00000     -0.000   0.000   0.000
   25  2 2s         0.07185   0.00000      0.000  -0.000  -0.000
   25  3 2py        1.46294   0.00000      0.000   0.000  -0.000
   25  4 2pz        1.50792   0.00000      0.000  -0.000   0.000
   25  5 2px        1.58915   0.00000     -0.000   0.000  -0.000
   25  6 2py        0.03569   0.00000      0.000   0.000  -0.000
   25  7 2pz        0.00117   0.00000      0.000   0.000   0.000
   25  8 2px        0.02444   0.00000      0.000  -0.000  -0.000
   25  9 3Pdxy      0.00727   0.00000     -0.000   0.000  -0.000
   25 10 3Pdyz      0.00624   0.00000      0.000  -0.000  -0.000
   25 11 3Pdz2      0.00138   0.00000      0.000   0.000  -0.000
   25 12 3Pdxz      0.00443   0.00000     -0.000  -0.000  -0.000
   25 13 3Pdx2-y2   0.00746   0.00000     -0.000  -0.000  -0.000
   25     Total     6.45799   0.00000      0.000   0.000  -0.000

   29  1 2s         1.73927   0.00000     -0.000  -0.000  -0.000
   29  2 2s         0.06934   0.00000      0.000   0.000   0.000
   29  3 2py        1.48331   0.00000     -0.000   0.000  -0.000
   29  4 2pz        1.52832   0.00000     -0.000  -0.000   0.000
   29  5 2px        1.52543   0.00000      0.000  -0.000  -0.000
   29  6 2py        0.04202   0.00000      0.000  -0.000  -0.000
   29  7 2pz        0.00485   0.00000      0.000   0.000   0.000
   29  8 2px        0.03817   0.00000     -0.000   0.000   0.000
   29  9 3Pdxy      0.00816   0.00000     -0.000   0.000   0.000
   29 10 3Pdyz      0.00485   0.00000      0.000  -0.000   0.000
   29 11 3Pdz2      0.00138   0.00000      0.000   0.000   0.000
   29 12 3Pdxz      0.00628   0.00000     -0.000  -0.000  -0.000
   29 13 3Pdx2-y2   0.00784   0.00000     -0.000   0.000   0.000
   29     Total     6.45922   0.00000     -0.000  -0.000  -0.000

----------------------------------------------------------------
Total              98.00000   0.00000      0.000  -0.000   0.000


siesta: Eigenvalues (eV):
ik =     1
  -22.9303  -22.9303  -22.5269  -22.5269  -21.9778  -21.9778  -21.2609  -21.2609  -21.0959  -21.0959
  -20.8404  -20.8404  -19.5046  -19.5046  -19.3155  -19.3155  -18.7110  -18.7110  -15.3108  -15.3108
  -14.3743  -14.3743  -13.7010  -13.7010  -13.6849  -13.6849  -13.3008  -13.3008  -12.9867  -12.9867
  -12.5803  -12.5803  -12.0976  -12.0976  -12.0299  -12.0299  -11.6209  -11.6209  -11.5026  -11.5026
  -11.0113  -11.0113  -10.7620  -10.7620  -10.2840  -10.2840   -9.8314   -9.8314   -9.5740   -9.5740
   -9.3297   -9.3297   -9.2092   -9.2092   -9.1836   -9.1836   -8.9123   -8.9123   -8.7224   -8.7224
   -8.3964   -8.3964   -8.2665   -8.2665   -8.2189   -8.2189   -8.1294   -8.1294   -8.0133   -8.0133
   -7.9070   -7.9070   -7.4208   -7.4208   -7.4154   -7.4154   -7.3137   -7.3137   -6.8357   -6.8357
   -6.8302   -6.8302   -6.6421   -6.6421   -6.4659   -6.4659   -6.3555   -6.3555   -6.1997   -6.1997
   -5.9433   -5.9433   -5.8290   -5.8290   -5.6323   -5.6323   -4.3100   -4.3100   -3.7250   -3.7250
   -2.8418   -2.8418   -2.4670   -2.4670   -2.2973   -2.2973   -2.1794   -2.1794   -2.1252   -2.1252
   -1.9623   -1.9623   -1.7404   -1.7404   -1.6619   -1.6619   -1.5932   -1.5932   -1.4377   -1.4377
   -1.0941   -1.0941   -0.7065   -0.7065   -0.3938   -0.3938   -0.3148   -0.3148   -0.2537   -0.2537
   -0.2042   -0.2042   -0.0687   -0.0687    0.2678    0.2678    0.4083    0.4083    0.4921    0.4921
    0.5369    0.5369    0.7273    0.7273    1.0633    1.0633    1.2298    1.2298    1.2683    1.2683
    1.3330    1.3330    1.5413    1.5413    1.8509    1.8509    2.0492    2.0492    2.1344    2.1344
    2.4901    2.4901    2.6175    2.6175    2.7855    2.7855    2.7976    2.7976    2.8709    2.8709
    2.9776    2.9776    3.0457    3.0457    3.0831    3.0831    3.1379    3.1379    3.5709    3.5709
    3.6920    3.6920    3.9161    3.9161    4.1073    4.1073    4.2478    4.2478    4.3909    4.3909
    4.5132    4.5132    4.6133    4.6133    4.6542    4.6542    4.6834    4.6834    4.9920    4.9920
    5.0483    5.0483    5.1990    5.1990    5.4150    5.4150    5.5843    5.5843    5.8106    5.8106
    5.8510    5.8510    6.0178    6.0178    6.0558    6.0558    6.2722    6.2722    6.3732    6.3732
    6.5301    6.5301    6.6087    6.6087    6.7911    6.7911    6.9838    6.9838    7.0583    7.0583
    7.1625    7.1625    7.4935    7.4935    7.7100    7.7100    7.7157    7.7157    7.8972    7.8972
    7.9172    7.9172    8.2738    8.2738    8.2848    8.2848    8.3377    8.3377    8.4982    8.4982
    8.5442    8.5442    8.8897    8.8897    8.9030    8.9030    9.3129    9.3129    9.5983    9.5983
    9.6791    9.6791    9.8278    9.8278    9.8918    9.8918    9.8931    9.8931    9.9654    9.9654
   10.0009   10.0009   10.3794   10.3794   10.6470   10.6470   10.8922   10.8922   11.1216   11.1216
   11.3180   11.3180   11.3654   11.3654   11.5032   11.5032   11.6970   11.6970   11.7958   11.7958
   11.8699   11.8699   12.3065   12.3065   12.3915   12.3915   12.6719   12.6719   12.7389   12.7389
   12.9277   12.9277   13.0243   13.0243   13.2392   13.2392   13.2645   13.2645   13.4428   13.4428
   13.6411   13.6411   13.8880   13.8880   14.3599   14.3599   14.5185   14.5185   14.7356   14.7356
   14.7808   14.7808   15.0779   15.0779   15.5550   15.5550   16.0859   16.0859   16.3162   16.3162
   16.3678   16.3678   16.7945   16.7945   16.8826   16.8826   17.2306   17.2306   17.2924   17.2924
   17.8768   17.8768   18.0416   18.0416   18.3599   18.3599   18.5612   18.5612   18.6960   18.6960
   18.7627   18.7627   19.7778   19.7778   19.9646   19.9646   20.2950   20.2950   20.5926   20.5926
   20.9129   20.9129   21.0393   21.0393   21.2689   21.2689   21.4132   21.4132   22.2071   22.2071
   22.4499   22.4499   22.8111   22.8111   22.9669   22.9669   23.0236   23.0236   23.0660   23.0660
   24.2286   24.2286   24.6313   24.6313   25.1069   25.1069   25.5805   25.5805   25.8859   25.8859
   26.1371   26.1371   26.5873   26.5873   27.0468   27.0468   27.9407   27.9407   28.1568   28.1568
   28.4672   28.4672   28.5276   28.5276   29.8535   29.8535   29.8962   29.8962   30.5072   30.5072
   30.7637   30.7637   30.8328   30.8328   31.2862   31.2862   31.4224   31.4224   31.7046   31.7046
   31.7475   31.7475   32.3704   32.3704   32.3755   32.3755   33.4562   33.4562   33.6206   33.6206
   34.0071   34.0071   34.2658   34.2658   34.4943   34.4943   34.8805   34.8805   35.4645   35.4645
   35.8936   35.8936   36.0820   36.0820   36.3922   36.3922   37.1672   37.1672   37.5950   37.5950
   37.6078   37.6078   37.6731   37.6731   38.4766   38.4766   38.8371   38.8371   38.9605   38.9605
   39.8957   39.8957   40.4375   40.4375   40.7099   40.7099   41.3698   41.3698   41.6287   41.6287
   41.7401   41.7401   41.8607   41.8607   42.0291   42.0291   42.8975   42.8975   43.2667   43.2667
   43.8590   43.8590   44.4734   44.4734   44.7315   44.7315   44.9059   44.9059   45.2222   45.2222
   45.2374   45.2374   45.8560   45.8560   46.4390   46.4390   46.5573   46.5573   47.1604   47.1604
   47.6339   47.6339   48.0110   48.0110   48.5640   48.5640   48.8068   48.8068   49.2088   49.2088
   49.8748   49.8748   50.2019   50.2019   50.4268   50.4268   50.5980   50.5980   50.6795   50.6795
   51.8694   51.8694   52.2617   52.2617   53.9773   53.9773   54.0600   54.0600   54.9164   54.9164
   55.0574   55.0574   55.5194   55.5194   56.3261   56.3261   56.3880   56.3880   56.5122   56.5122
   56.8676   56.8676   57.5473   57.5473   58.5490   58.5490   59.0227   59.0227   59.6569   59.6569
   60.2368   60.2368   61.1927   61.1927   61.6022   61.6022   62.1756   62.1756   62.8261   62.8261
   65.6025   65.6025   66.3516   66.3516   67.1074   67.1074   67.2504   67.2504   68.1625   68.1625
   68.8152   68.8152   71.3864   71.3864   73.6255   73.6255   78.6926   78.6926   91.3899   91.3899
   92.4574   92.4574   92.9166   92.9166   95.5626   95.5626   97.6773   97.6773  100.4081  100.4081
  100.6336  100.6336  102.9680  102.9680  113.3388  113.3388  120.3565  120.3565  123.0301  123.0301
  135.5981  135.5981  140.4184  140.4184
siesta: Fermi energy =      -4.017483 eV

siesta: Program's energy decomposition (eV):
siesta: Ebs     =     -1120.596217
siesta: Eions   =      3553.971015
siesta: Ena     =       377.805313
siesta: Ekin    =      2751.378583
siesta: Enl     =     -2532.166643
siesta: Eso     =        -0.004697
siesta: Edftu   =         0.000000
siesta: DEna    =        37.127981
siesta: DUscf   =        14.133956
siesta: DUext   =         0.000000
siesta: Exc     =     -1093.052845
siesta: eta*DQ  =         0.000000
siesta: Emadel  =         0.000000
siesta: Emeta   =         0.000000
siesta: Emolmec =         0.000000
siesta: Ekinion =         0.000000
siesta: Eharris =     -3998.749366
siesta: Etot    =     -3998.749366
siesta: FreeEng =     -3998.749382

siesta: Final energy (eV):
siesta:  Band Struct. =   -1120.596217
siesta:       Kinetic =    2751.378583
siesta:       Hartree =    6974.436352
siesta:       Edftu   =       0.000000
siesta:       Eso     =      -0.004697
siesta:    Ext. field =       0.000000
siesta:   Exch.-corr. =   -1093.052845
siesta:  Ion-electron =  -16402.236243
siesta:       Ion-ion =    3770.729484
siesta:       Ekinion =       0.000000
siesta:         Total =   -3998.749366
siesta:         Fermi =      -4.017483

siesta: Atomic forces (eV/Ang):
siesta:      1   -0.028785    0.049396    0.000002
siesta:      2   -0.003038   -0.036760   -0.000002
siesta:      3   -0.003643    0.040477    0.000004
siesta:      4   -0.027341   -0.044432    0.000001
siesta:      5    0.018998   -0.035574   -0.000003
siesta:      6    0.021711    0.005136   -0.000000
siesta:      7   -0.054833    0.102984    0.000004
siesta:      8    0.049799   -0.038966   -0.000015
siesta:      9    0.096227   -0.070479    0.000020
siesta:     10    0.144877    0.115369    0.000003
siesta:     11   -0.042153   -0.040400   -0.000005
siesta:     12    0.036372    0.059441    0.000001
siesta:     13   -0.101301   -0.205774   -0.000000
siesta:     14   -0.031324   -0.108410    0.000000
siesta:     15    0.000093    0.065684   -0.000000
siesta:     16   -0.004279    0.080300    0.008012
siesta:     17   -0.012538   -0.043895   -0.039742
siesta:     18   -0.075162    0.044210    0.008226
siesta:     19    0.008348    0.030841   -0.041234
siesta:     20    0.041067   -0.057045    0.027113
siesta:     21   -0.071317    0.092702    0.068517
siesta:     22    0.162774    0.038856    0.000780
siesta:     23   -0.012354    0.068460   -0.053993
siesta:     24    0.028403   -0.112418   -0.026627
siesta:     25   -1.630979   -2.686614    0.003257
siesta:     26   -0.026746    0.065604    0.006536
siesta:     27   -0.007178   -0.071684    0.002785
siesta:     28    0.002973   -0.117371   -0.000874
siesta:     29    1.953246    4.472411   -0.001076
siesta:     30    0.021521    0.206412    0.008278
siesta: ----------------------------------------
siesta:    Tot    0.453437    1.868463   -0.030031

siesta: Stress tensor (static) (eV/Ang**3):
siesta:    -0.000991    0.000175    0.000028
siesta:     0.000175   -0.000313   -0.000026
siesta:     0.000028   -0.000026   -0.000129

siesta: Cell volume =       4663.425355 Ang**3

siesta: Pressure (static):
siesta:                Solid            Molecule  Units
siesta:           0.00000520         -0.00000774  Ry/Bohr**3
siesta:           0.00047788         -0.00071081  eV/Ang**3
siesta:           0.76565938         -1.13885217  kBar
(Free)E+ p_basis*V_orbitals  =       -3977.621297
(Free)Eharris+ p_basis*V_orbitals  =       -3977.621297
     spin moment: S , {S} =    0.00000   0.00000  -0.00000   0.00000

siesta: Electric dipole (a.u.)  =   -0.322641    2.536465   -0.012934
siesta: Electric dipole (Debye) =   -0.820072    6.447054   -0.032875

cite: Please see "AT.bib" for an exhaustive BiBTeX file.
cite: Please clearly indicate Siesta version in published work: v4.1.5-1-g384057250
cite: This calculation has made use of the following articles
cite: which are encouraged to be cited in a published work.
        Primary SIESTA paper
          DOI: www.doi.org/10.1088/0953-8984/14/11/302
        Spin-orbit coupling (on-site approximation)
          DOI: www.doi.org/10.1088/0953-8984/19/19/489001


WARNING: alloc-realloc-dealloc name mismatch
         Name: atomlist isa
         Size:              -120. Bytes
         Node:     0
         Subsequent mismatches will not be reported
>> End of run:  22-MAY-2023  10:43:02
Job completed
