Siesta Version  : v4.1.5-1-g384057250
Architecture    : gcc
Compiler version: GNU Fortran (Debian 12.2.0-14) 12.2.0
Compiler flags  : mpifort -O2 -fPIC -ftree-vectorize -fallow-argument-mismatch
PP flags        : -DFC_HAVE_ABORT -DMPI -DSIESTA__FLOOK -DSIESTA__METIS -DSIESTA__MUMPS -DCDF -DNCDF -DNCDF_4 -DNCDF_PARALLEL -DSIESTA__MRRR -DSIESTA__ELPA
Libraries       : libncdf.a libfdict.a  -lflookall -ldl -lnetcdff -lnetcdf -lz -lscalapack-openmpi -lopenblas -lmetis -lzmumps -lcmumps -ldmumps -lmumps_common -lpord -lsmumps -lesmumps -lscotch -lscotcherr -fopenmp -lelpa
PARALLEL version
NetCDF support
NetCDF-4 support
NetCDF-4 MPI-IO support
METIS ordering support
Lua support

* Running on 32 nodes in parallel
>> Start of run:  17-OCT-2023  20:11:51

                           ***********************       
                           *  WELCOME TO SIESTA  *       
                           ***********************       

reinit: Reading from standard input
reinit: Dumped input in INPUT_TMP.40008
************************** Dump of input data file ****************************
SystemLabel      desoxy1-3
NumberOfAtoms    56
NumberOfSpecies  4
%block ChemicalSpeciesLabel
    1    8  O
    2   14  Si
    3    1  H
    4   15  P
%endblock ChemicalSpeciesLabel
############################################
# This overrides Defaults.fdf configuration
############################################
MD.TypeOfRun                Verlet # CG, Verlet
MD.Steps                    600
MD.Quench                   True
MD.InitialTemperature       1 K
SCF.H.Tolerance             0.00006 eV
SCF.DM.Tolerance            0.00008
MaxSCFIterations            300
AtomicCoordinatesFormat NotScaledCartesianAng
%block AtomicCoordinatesAndAtomicSpecies
   -5.90856572   17.91827385    1.82120302   1       1  O
   -4.87240161   17.34900173    3.15653033   2       2  Si
   -5.72667318   16.42939887    3.98696974   3       3  H
   -4.38566732   18.52801496    3.98419788   3       4  H
   -2.81906990   16.30333362    2.48625811   2       5  Si
   -1.96835224   16.43138082    3.72664902   3       6  H
   -2.77560724   14.59849669    2.07769094   1       7  O
   -3.20269721   14.03785990    0.46227149   2       8  Si
   -2.14791671   13.02266215    0.08629511   3       9  H
   -4.56305323   13.37203546    0.52033736   3      10  H
   -2.09247310   17.45733148    0.55712091   2      11  Si
   -2.59553564   18.87974055    0.51958716   3      12  H
   -3.24224272   15.98624716   -0.89944615   2      13  Si
   -4.65323660   16.51810718   -1.04019708   3      14  H
   -2.59477157   15.81899174   -2.25347965   3      15  H
   -0.35898908   17.39279630    0.43184880   1      16  O
    0.00584120   17.66509728   -0.44890927   3      17  H
   -7.42787939   18.70232232    3.81508223   1      18  O
   -7.11724985   19.10413484    2.19521609   4      19  P
   -6.26815817   20.44768303    2.07901977   1      20  O
   -8.58203996   18.96587145    1.55924170   1      21  O
  -12.61738181   16.42941045    4.85118198   1      22  O
  -12.02939367   17.15438409    6.42705625   2      23  Si
  -12.25856929   16.08011677    7.45224108   3      24  H
  -12.78297368   18.41903723    6.75470531   3      25  H
   -9.66021290   17.37496470    6.39827738   2      26  Si
   -9.21698142   18.26777777    7.53762851   3      27  H
   -9.30384181   15.73286466    6.92638441   1      28  O
   -8.71733762   14.58125562    5.72112761   2      29  Si
   -7.24768932   14.33336083    5.97846947   3      30  H
   -9.48487348   13.28574326    5.89186986   3      31  H
   -8.99476884   17.90662420    4.10211775   2      32  Si
  -10.11308309   18.79098424    3.63898215   3      33  H
   -9.03197232   15.58008643    3.58122968   2      34  Si
  -10.38190371   15.20777862    3.03148972   3      35  H
   -7.96096348   15.20667100    2.59733970   3      36  H
  -14.67927750   16.51665330    6.15720254   1      37  O
  -14.34062234   16.96081038    4.60777955   4      38  P
  -13.51325590   18.27205686    4.24457698   1      39  O
  -15.65417266   16.77787772    3.81047387   1      40  O
  -18.52201717   12.14959248    6.58651226   1      41  O
  -18.13045885   12.75903036    8.18306911   2      42  Si
  -18.25273232   11.62449798    9.18399704   3      43  H
  -19.14942465   13.81035442    8.57748801   3      44  H
  -16.03763778   13.97360904    8.43734659   2      45  Si
  -16.28543183   14.77036621    9.70322418   3      46  H
  -14.58798747   13.02408889    8.74713287   1      47  O
  -13.70514199   12.33214133    7.39131399   2      48  Si
  -12.25733279   12.67365970    7.62342686   3      49  H
  -13.86966599   10.83612125    7.45084702   3      50  H
  -15.81391170   15.08246941    6.33029877   2      51  Si
  -17.17858501   15.46971937    5.80480105   3      52  H
  -14.64311899   13.24425685    5.39862787   2      53  Si
  -13.60018220   13.72152791    4.41769149   3      54  H
  -15.57007237   12.23587089    4.76452296   3      55  H
  -19.44400299   11.79121299    6.51255947   3      56  H
%endblock AtomicCoordinatesAndAtomicSpecies
#############
# Unit Cell
#############
LatticeConstant 1.0 Ang
%block LatticeVectors
    28.991692    0.000000    0.000000
    0.000000   17.480056    0.000000
    0.000000    0.000000   20.793004
%endblock LatticeVectors
%include ../../Defaults.fdf
************************** End of input data file *****************************

reinit: -----------------------------------------------------------------------
reinit: System Name: 
reinit: -----------------------------------------------------------------------
reinit: System Label: desoxy1-3
reinit: -----------------------------------------------------------------------

initatom: Reading input for the pseudopotentials and atomic orbitals ----------
Species number:   1 Atomic number:    8 Label: O
Species number:   2 Atomic number:   14 Label: Si
Species number:   3 Atomic number:    1 Label: H
Species number:   4 Atomic number:   15 Label: P

Ground state valence configuration:   2s02  2p04
Reading pseudopotential information in formatted form from O.psf

Pseudopotential generated from a relativistic atomic calculation

Valence configuration for pseudopotential generation:
2s( 2.00) rc: 0.45
2p( 4.00) rc: 0.92
3d( 0.00) rc: 2.24
4f( 0.00) rc: 0.25
Ground state valence configuration:   3s02  3p02
Reading pseudopotential information in formatted form from Si.psf

Pseudopotential generated from a relativistic atomic calculation

Valence configuration for pseudopotential generation:
3s( 2.00) rc: 1.67
3p( 2.00) rc: 2.04
3d( 0.00) rc: 2.89
4f( 0.00) rc: 2.49
Ground state valence configuration:   1s01
Reading pseudopotential information in formatted form from H.psf

Pseudopotential generated from a relativistic atomic calculation

Valence configuration for pseudopotential generation:
1s( 1.00) rc: 0.01
2p( 0.00) rc: 0.60
3d( 0.00) rc: 1.99
4f( 0.00) rc: 2.49
Ground state valence configuration:   3s02  3p03
Reading pseudopotential information in formatted form from P.psf

Pseudopotential generated from a relativistic atomic calculation

Valence configuration for pseudopotential generation:
3s( 2.00) rc: 1.48
3p( 3.00) rc: 1.78
3d( 0.00) rc: 2.24
4f( 0.00) rc: 0.25
For O, standard SIESTA heuristics set lmxkb to 3
 (one more than the basis l, including polarization orbitals).
Use PS.lmax or PS.KBprojectors blocks to override.
For Si, standard SIESTA heuristics set lmxkb to 3
 (one more than the basis l, including polarization orbitals).
Use PS.lmax or PS.KBprojectors blocks to override.
For H, standard SIESTA heuristics set lmxkb to 2
 (one more than the basis l, including polarization orbitals).
Use PS.lmax or PS.KBprojectors blocks to override.
For P, standard SIESTA heuristics set lmxkb to 3
 (one more than the basis l, including polarization orbitals).
Use PS.lmax or PS.KBprojectors blocks to override.

<basis_specs>
===============================================================================
O                    Z=   8    Mass=  16.000        Charge= 0.17977+309
Lmxo=1 Lmxkb= 3    BasisType=split      Semic=F
L=0  Nsemic=0  Cnfigmx=2
          i=1  nzeta=2  polorb=0  (2s)
            splnorm:   0.28000    
               vcte:    0.0000    
               rinn:    0.0000    
               qcoe:    0.0000    
               qyuk:    0.0000    
               qwid:   0.10000E-01
                rcs:    0.0000      0.0000    
            lambdas:    1.0000      1.0000    
L=1  Nsemic=0  Cnfigmx=2
          i=1  nzeta=2  polorb=1  (2p)
            splnorm:   0.28000    
               vcte:    0.0000    
               rinn:    0.0000    
               qcoe:    0.0000    
               qyuk:    0.0000    
               qwid:   0.10000E-01
                rcs:    0.0000      0.0000    
            lambdas:    1.0000      1.0000    
-------------------------------------------------------------------------------
L=0  Nkbl=1  erefs: 0.17977+309
L=1  Nkbl=1  erefs: 0.17977+309
L=2  Nkbl=1  erefs: 0.17977+309
L=3  Nkbl=1  erefs: 0.17977+309
===============================================================================
</basis_specs>

atom: Called for O                     (Z =   8)

read_vps: Pseudopotential generation method:
read_vps: ATM4.2.7  Troullier-Martins                       
Valence charge for ps generation:    6.00000

xc_check: Exchange-correlation functional:
xc_check: GGA Perdew, Burke & Ernzerhof 1996
V l=0 = -2*Zval/r beyond r=  1.1000
V l=1 = -2*Zval/r beyond r=  1.1000
V l=2 = -2*Zval/r beyond r=  2.2154
V l=3 = -2*Zval/r beyond r=  1.1000
All V_l potentials equal beyond r=  2.2154
This should be close to max(r_c) in ps generation
All pots = -2*Zval/r beyond r=  2.2154

VLOCAL1: 99.0% of the norm of Vloc inside      8.845 Ry
VLOCAL1: 99.9% of the norm of Vloc inside     20.157 Ry
atom: Maximum radius for 4*pi*r*r*local-pseudopot. charge    2.67231
atom: Maximum radius for r*vlocal+2*Zval:    2.32897
GHOST: No ghost state for L =  0
GHOST: No ghost state for L =  1
GHOST: No ghost state for L =  2
GHOST: No ghost state for L =  3

KBgen: Kleinman-Bylander projectors: 
   l= 0   rc=  2.243238   el= -1.759686   Ekb=**********   kbcos= -0.171774
   l= 1   rc=  2.328968   el= -0.663873   Ekb=-14.506792   kbcos= -0.519897
   l= 2   rc=  2.573941   el=  0.002031   Ekb= -1.137373   kbcos= -0.019581
   l= 3   rc=  2.606321   el=  0.003153   Ekb= -1.013546   kbcos= -0.003122

KBgen: Total number of Kleinman-Bylander projectors:   16
atom: -------------------------------------------------------------------------

atom: SANKEY-TYPE ORBITALS:
atom: Selected multiple-zeta basis: split     

SPLIT: Orbitals with angular momentum L= 0

SPLIT: Basis orbitals for state 2s

SPLIT: PAO cut-off radius determined from an
SPLIT: energy shift=  0.002000 Ry

   izeta = 1
                 lambda =    1.000000
                     rc =    4.243912
                 energy =   -1.758270
                kinetic =    3.286084
    potential(screened) =   -5.044353
       potential(ionic) =  -12.921184

   izeta = 2
                 rmatch =    2.187845
              splitnorm =    0.280000
                 energy =   -0.885018
                kinetic =    8.134434
    potential(screened) =   -9.019452
       potential(ionic) =  -17.710645

SPLIT: Orbitals with angular momentum L= 1

SPLIT: Basis orbitals for state 2p

SPLIT: PAO cut-off radius determined from an
SPLIT: energy shift=  0.002000 Ry

   izeta = 1
                 lambda =    1.000000
                     rc =    5.314825
                 energy =   -0.661986
                kinetic =    4.917472
    potential(screened) =   -5.579458
       potential(ionic) =  -13.236259

   izeta = 2
                 rmatch =    2.160663
              splitnorm =    0.280000
                 energy =   -0.068760
                kinetic =    9.183374
    potential(screened) =   -9.252135
       potential(ionic) =  -18.274251

POLgen: Perturbative polarization orbital with L=  2

POLgen: Polarization orbital for state 2p

   izeta = 1
                     rc =    5.314825
                 energy =    1.970580
                kinetic =    3.886128
    potential(screened) =   -1.915547
       potential(ionic) =   -7.749584
atom: Total number of Sankey-type orbitals: 13

atm_pop: Valence configuration (for local Pseudopot. screening):
 2s( 2.00)                                                            
 2p( 4.00)                                                            
Vna: chval, zval:    6.00000   6.00000

Vna:  Cut-off radius for the neutral-atom potential:   5.314825

atom: _________________________________________________________________________

<basis_specs>
===============================================================================
Si                   Z=  14    Mass=  28.090        Charge= 0.17977+309
Lmxo=1 Lmxkb= 3    BasisType=split      Semic=F
L=0  Nsemic=0  Cnfigmx=3
          i=1  nzeta=2  polorb=0  (3s)
            splnorm:   0.28000    
               vcte:    0.0000    
               rinn:    0.0000    
               qcoe:    0.0000    
               qyuk:    0.0000    
               qwid:   0.10000E-01
                rcs:    0.0000      0.0000    
            lambdas:    1.0000      1.0000    
L=1  Nsemic=0  Cnfigmx=3
          i=1  nzeta=2  polorb=1  (3p)
            splnorm:   0.28000    
               vcte:    0.0000    
               rinn:    0.0000    
               qcoe:    0.0000    
               qyuk:    0.0000    
               qwid:   0.10000E-01
                rcs:    0.0000      0.0000    
            lambdas:    1.0000      1.0000    
-------------------------------------------------------------------------------
L=0  Nkbl=1  erefs: 0.17977+309
L=1  Nkbl=1  erefs: 0.17977+309
L=2  Nkbl=1  erefs: 0.17977+309
L=3  Nkbl=1  erefs: 0.17977+309
===============================================================================
</basis_specs>

atom: Called for Si                    (Z =  14)

read_vps: Pseudopotential generation method:
read_vps: ATM4.2.7  Troullier-Martins                       
Valence charge for ps generation:    4.00000

xc_check: Exchange-correlation functional:
xc_check: GGA Perdew, Burke & Ernzerhof 1996
V l=0 = -2*Zval/r beyond r=  2.7826
V l=1 = -2*Zval/r beyond r=  2.7826
V l=2 = -2*Zval/r beyond r=  2.9253
V l=3 = -2*Zval/r beyond r=  2.7826
All V_l potentials equal beyond r=  2.8530
This should be close to max(r_c) in ps generation
All pots = -2*Zval/r beyond r=  2.9253

VLOCAL1: 99.0% of the norm of Vloc inside      5.333 Ry
VLOCAL1: 99.9% of the norm of Vloc inside     12.154 Ry
atom: Maximum radius for 4*pi*r*r*local-pseudopot. charge    3.39869
atom: Maximum radius for r*vlocal+2*Zval:    2.96205
GHOST: No ghost state for L =  0
GHOST: No ghost state for L =  1
GHOST: No ghost state for L =  2
GHOST: No ghost state for L =  3

KBgen: Kleinman-Bylander projectors: 
   l= 0   rc=  3.075247   el= -0.794092   Ekb=  5.879390   kbcos=  0.167461
   l= 1   rc=  3.153101   el= -0.300068   Ekb=  2.642817   kbcos=  0.058301
   l= 2   rc=  3.273594   el=  0.001958   Ekb= -1.185135   kbcos= -0.104411
   l= 3   rc=  3.232927   el=  0.003046   Ekb= -0.497174   kbcos= -0.015889

KBgen: Total number of Kleinman-Bylander projectors:   16
atom: -------------------------------------------------------------------------

atom: SANKEY-TYPE ORBITALS:
atom: Selected multiple-zeta basis: split     

SPLIT: Orbitals with angular momentum L= 0

SPLIT: Basis orbitals for state 3s

SPLIT: PAO cut-off radius determined from an
SPLIT: energy shift=  0.002000 Ry

   izeta = 1
                 lambda =    1.000000
                     rc =    6.429618
                 energy =   -0.792283
                kinetic =    0.525293
    potential(screened) =   -1.317576
       potential(ionic) =   -3.744923

   izeta = 2
                 rmatch =    3.998416
              splitnorm =    0.280000
                 energy =   -0.583081
                kinetic =    1.069570
    potential(screened) =   -1.652651
       potential(ionic) =   -4.235185

SPLIT: Orbitals with angular momentum L= 1

SPLIT: Basis orbitals for state 3p

SPLIT: PAO cut-off radius determined from an
SPLIT: energy shift=  0.002000 Ry

   izeta = 1
                 lambda =    1.000000
                     rc =    8.464845
                 energy =   -0.298236
                kinetic =    0.785360
    potential(screened) =   -1.083596
       potential(ionic) =   -3.273779

   izeta = 2
                 rmatch =    4.587816
              splitnorm =    0.280000
                 energy =   -0.131871
                kinetic =    1.403687
    potential(screened) =   -1.535557
       potential(ionic) =   -4.015310

POLgen: Perturbative polarization orbital with L=  2

POLgen: Polarization orbital for state 3p

   izeta = 1
                     rc =    8.464845
                 energy =    0.321949
                kinetic =    1.055677
    potential(screened) =   -0.733728
       potential(ionic) =   -2.672950
atom: Total number of Sankey-type orbitals: 13

atm_pop: Valence configuration (for local Pseudopot. screening):
 3s( 2.00)                                                            
 3p( 2.00)                                                            
Vna: chval, zval:    4.00000   4.00000

Vna:  Cut-off radius for the neutral-atom potential:   8.464845

atom: _________________________________________________________________________

<basis_specs>
===============================================================================
H                    Z=   1    Mass=  1.0100        Charge= 0.17977+309
Lmxo=0 Lmxkb= 2    BasisType=split      Semic=F
L=0  Nsemic=0  Cnfigmx=1
          i=1  nzeta=2  polorb=1  (1s)
            splnorm:   0.62000    
               vcte:    0.0000    
               rinn:    0.0000    
               qcoe:    0.0000    
               qyuk:    0.0000    
               qwid:   0.10000E-01
                rcs:    0.0000      0.0000    
            lambdas:    1.0000      1.0000    
-------------------------------------------------------------------------------
L=0  Nkbl=1  erefs: 0.17977+309
L=1  Nkbl=1  erefs: 0.17977+309
L=2  Nkbl=1  erefs: 0.17977+309
===============================================================================
</basis_specs>

atom: Called for H                     (Z =   1)

read_vps: Pseudopotential generation method:
read_vps: ATM4.2.7  Troullier-Martins                       
Valence charge for ps generation:    1.00000

xc_check: Exchange-correlation functional:
xc_check: GGA Perdew, Burke & Ernzerhof 1996
V l=0 = -2*Zval/r beyond r=  0.0098
V l=1 = -2*Zval/r beyond r=  0.5817
V l=2 = -2*Zval/r beyond r=  1.9372
All V_l potentials equal beyond r=  1.9372
This should be close to max(r_c) in ps generation
All pots = -2*Zval/r beyond r=  1.9372

VLOCAL1: 99.0% of the norm of Vloc inside     11.567 Ry
VLOCAL1: 99.9% of the norm of Vloc inside     26.362 Ry
atom: Maximum radius for 4*pi*r*r*local-pseudopot. charge    2.25106
atom: Maximum radius for r*vlocal+2*Zval:    1.91306
GHOST: No ghost state for L =  0
GHOST: No ghost state for L =  1
GHOST: No ghost state for L =  2

KBgen: Kleinman-Bylander projectors: 
   l= 0   rc=  2.036604   el= -0.477180   Ekb= -6.081590   kbcos= -0.277285
   l= 1   rc=  2.195416   el=  0.001076   Ekb= -0.926943   kbcos= -0.034643
   l= 2   rc=  2.251056   el=  0.002010   Ekb= -0.130941   kbcos= -0.009788

KBgen: Total number of Kleinman-Bylander projectors:    9
atom: -------------------------------------------------------------------------

atom: SANKEY-TYPE ORBITALS:
atom: Selected multiple-zeta basis: split     

SPLIT: Orbitals with angular momentum L= 0

SPLIT: Basis orbitals for state 1s

SPLIT: PAO cut-off radius determined from an
SPLIT: energy shift=  0.002000 Ry

   izeta = 1
                 lambda =    1.000000
                     rc =    6.518340
                 energy =   -0.475305
                kinetic =    0.912139
    potential(screened) =   -1.387444
       potential(ionic) =   -1.907295

   izeta = 2
                 rmatch =    2.141150
              splitnorm =    0.620000
                 energy =    0.566467
                kinetic =    3.772856
    potential(screened) =   -3.206389
       potential(ionic) =   -3.759093

POLgen: Perturbative polarization orbital with L=  1

POLgen: Polarization orbital for state 1s

   izeta = 1
                     rc =    6.518340
                 energy =    0.533861
                kinetic =    1.121086
    potential(screened) =   -0.587225
       potential(ionic) =   -1.053027
atom: Total number of Sankey-type orbitals:  5

atm_pop: Valence configuration (for local Pseudopot. screening):
 1s( 1.00)                                                            
Vna: chval, zval:    1.00000   1.00000

Vna:  Cut-off radius for the neutral-atom potential:   6.518340

atom: _________________________________________________________________________

<basis_specs>
===============================================================================
P                    Z=  15    Mass=  30.970        Charge= 0.17977+309
Lmxo=1 Lmxkb= 3    BasisType=split      Semic=F
L=0  Nsemic=0  Cnfigmx=3
          i=1  nzeta=2  polorb=0  (3s)
            splnorm:   0.28000    
               vcte:    0.0000    
               rinn:    0.0000    
               qcoe:    0.0000    
               qyuk:    0.0000    
               qwid:   0.10000E-01
                rcs:    0.0000      0.0000    
            lambdas:    1.0000      1.0000    
L=1  Nsemic=0  Cnfigmx=3
          i=1  nzeta=2  polorb=1  (3p)
            splnorm:   0.28000    
               vcte:    0.0000    
               rinn:    0.0000    
               qcoe:    0.0000    
               qyuk:    0.0000    
               qwid:   0.10000E-01
                rcs:    0.0000      0.0000    
            lambdas:    1.0000      1.0000    
-------------------------------------------------------------------------------
L=0  Nkbl=1  erefs: 0.17977+309
L=1  Nkbl=1  erefs: 0.17977+309
L=2  Nkbl=1  erefs: 0.17977+309
L=3  Nkbl=1  erefs: 0.17977+309
===============================================================================
</basis_specs>

atom: Called for P                     (Z =  15)

read_vps: Pseudopotential generation method:
read_vps: ATM4.2.7  Troullier-Martins                       
Valence charge for ps generation:    5.00000

xc_check: Exchange-correlation functional:
xc_check: GGA Perdew, Burke & Ernzerhof 1996
V l=0 = -2*Zval/r beyond r=  2.4397
V l=1 = -2*Zval/r beyond r=  2.4397
V l=2 = -2*Zval/r beyond r=  2.4397
V l=3 = -2*Zval/r beyond r=  2.4397
All V_l potentials equal beyond r=  2.2075
This should be close to max(r_c) in ps generation
All pots = -2*Zval/r beyond r=  2.4397

VLOCAL1: 99.0% of the norm of Vloc inside      8.907 Ry
VLOCAL1: 99.9% of the norm of Vloc inside     20.300 Ry
atom: Maximum radius for 4*pi*r*r*local-pseudopot. charge    2.62975
atom: Maximum radius for r*vlocal+2*Zval:    2.32072
GHOST: No ghost state for L =  0
GHOST: No ghost state for L =  1
GHOST: No ghost state for L =  2
GHOST: No ghost state for L =  3

KBgen: Kleinman-Bylander projectors: 
   l= 0   rc=  2.629745   el= -1.025737   Ekb=  5.887360   kbcos=  0.265547
   l= 1   rc=  2.764584   el= -0.404840   Ekb=  1.502174   kbcos=  0.278467
   l= 2   rc=  2.799360   el=  0.002048   Ekb= -2.109988   kbcos= -0.068680
   l= 3   rc=  2.942895   el=  0.003178   Ekb= -1.913209   kbcos= -0.004114

KBgen: Total number of Kleinman-Bylander projectors:   16
atom: -------------------------------------------------------------------------

atom: SANKEY-TYPE ORBITALS:
atom: Selected multiple-zeta basis: split     

SPLIT: Orbitals with angular momentum L= 0

SPLIT: Basis orbitals for state 3s

SPLIT: PAO cut-off radius determined from an
SPLIT: energy shift=  0.002000 Ry

   izeta = 1
                 lambda =    1.000000
                     rc =    5.708298
                 energy =   -1.023748
                kinetic =    0.687451
    potential(screened) =   -1.711199
       potential(ionic) =   -5.308789

   izeta = 2
                 rmatch =    3.505744
              splitnorm =    0.280000
                 energy =   -0.771256
                kinetic =    1.364152
    potential(screened) =   -2.135408
       potential(ionic) =   -5.960979

SPLIT: Orbitals with angular momentum L= 1

SPLIT: Basis orbitals for state 3p

SPLIT: PAO cut-off radius determined from an
SPLIT: energy shift=  0.002000 Ry

   izeta = 1
                 lambda =    1.000000
                     rc =    7.515201
                 energy =   -0.403147
                kinetic =    1.078092
    potential(screened) =   -1.481239
       potential(ionic) =   -4.764789

   izeta = 2
                 rmatch =    3.923200
              splitnorm =    0.280000
                 energy =   -0.178827
                kinetic =    1.915401
    potential(screened) =   -2.094227
       potential(ionic) =   -5.808379

POLgen: Perturbative polarization orbital with L=  2

POLgen: Polarization orbital for state 3p

   izeta = 1
                     rc =    7.515201
                 energy =    0.446507
                kinetic =    1.445101
    potential(screened) =   -0.998594
       potential(ionic) =   -3.899848
atom: Total number of Sankey-type orbitals: 13

atm_pop: Valence configuration (for local Pseudopot. screening):
 3s( 2.00)                                                            
 3p( 3.00)                                                            
Vna: chval, zval:    5.00000   5.00000

Vna:  Cut-off radius for the neutral-atom potential:   7.515201

atom: _________________________________________________________________________

prinput: Basis input ----------------------------------------------------------

PAO.BasisType split     

%block ChemicalSpeciesLabel
    1    8 O                       # Species index, atomic number, species label
    2   14 Si                      # Species index, atomic number, species label
    3    1 H                       # Species index, atomic number, species label
    4   15 P                       # Species index, atomic number, species label
%endblock ChemicalSpeciesLabel

%block PAO.Basis                 # Define Basis set
O                     2                    # Species label, number of l-shells
 n=2   0   2                         # n, l, Nzeta 
   4.244      2.188   
   1.000      1.000   
 n=2   1   2 P   1                   # n, l, Nzeta, Polarization, NzetaPol
   5.315      2.161   
   1.000      1.000   
Si                    2                    # Species label, number of l-shells
 n=3   0   2                         # n, l, Nzeta 
   6.430      3.998   
   1.000      1.000   
 n=3   1   2 P   1                   # n, l, Nzeta, Polarization, NzetaPol
   8.465      4.588   
   1.000      1.000   
H                     1                    # Species label, number of l-shells
 n=1   0   2 P   1                   # n, l, Nzeta, Polarization, NzetaPol
   6.518      2.141   
   1.000      1.000   
P                     2                    # Species label, number of l-shells
 n=3   0   2                         # n, l, Nzeta 
   5.708      3.506   
   1.000      1.000   
 n=3   1   2 P   1                   # n, l, Nzeta, Polarization, NzetaPol
   7.515      3.923   
   1.000      1.000   
%endblock PAO.Basis

prinput: ----------------------------------------------------------------------

Dumping basis to NetCDF file O.ion.nc
Dumping basis to NetCDF file Si.ion.nc
Dumping basis to NetCDF file H.ion.nc
Dumping basis to NetCDF file P.ion.nc
coor:   Atomic-coordinates input format  =     Cartesian coordinates
coor:                                          (in Angstroms)

siesta: Atomic coordinates (Bohr) and species
siesta:    -11.16558  33.86064   3.44158  1        1
siesta:     -9.20751  32.78487   5.96498  2        2
siesta:    -10.82185  31.04708   7.53428  3        3
siesta:     -8.28771  35.01289   7.52905  3        4
siesta:     -5.32727  30.80885   4.69835  2        5
siesta:     -3.71965  31.05082   7.04235  3        6
siesta:     -5.24514  27.58717   3.92627  1        7
siesta:     -6.05222  26.52772   0.87357  2        8
siesta:     -4.05898  24.60927   0.16307  3        9
siesta:     -8.62292  25.26949   0.98330  3       10
siesta:     -3.95420  32.98959   1.05281  2       11
siesta:     -4.90485  35.67755   0.98188  3       12
siesta:     -6.12695  30.20964  -1.69971  2       13
siesta:     -8.79335  31.21471  -1.96569  3       14
siesta:     -4.90341  29.89357  -4.25846  3       15
siesta:     -0.67839  32.86763   0.81608  1       16
siesta:      0.01104  33.38221  -0.84832  3       17
siesta:    -14.03666  35.34228   7.20946  1       18
siesta:    -13.44966  36.10160   4.14836  4       19
siesta:    -11.84511  38.64054   3.92878  1       20
siesta:    -16.21771  35.84032   2.94654  1       21
siesta:    -23.84341  31.04710   9.16741  1       22
siesta:    -22.73227  32.41710  12.14538  2       23
siesta:    -23.16535  30.38703  14.08270  3       24
siesta:    -24.15633  34.80695  12.76455  3       25
siesta:    -18.25516  32.83394  12.09100  2       26
siesta:    -17.41758  34.52111  14.24406  3       27
siesta:    -17.58172  29.73082  13.08897  1       28
siesta:    -16.47339  27.55459  10.81137  2       29
siesta:    -13.69615  27.08614  11.29767  3       30
siesta:    -17.92382  25.10643  11.13402  3       31
siesta:    -16.99766  33.83863   7.75188  2       32
siesta:    -19.11096  35.50983   6.87668  3       33
siesta:    -17.06796  29.44211   6.76755  2       34
siesta:    -19.61896  28.73855   5.72869  3       35
siesta:    -15.04405  28.73645   4.90826  3       36
siesta:    -27.73983  31.21196  11.63543  1       37
siesta:    -27.09986  32.05130   8.70744  4       38
siesta:    -25.53636  34.52920   8.02109  1       39
siesta:    -29.58211  31.70561   7.20075  1       40
siesta:    -35.00155  22.95941  12.44671  1       41
siesta:    -34.26162  24.11108  15.46377  2       42
siesta:    -34.49268  21.96713  17.35525  3       43
siesta:    -36.18718  26.09780  16.20911  3       44
siesta:    -30.30676  26.40630  15.94428  2       45
siesta:    -30.77502  27.91196  18.33644  3       46
siesta:    -27.56731  24.61197  16.52969  1       47
siesta:    -25.89898  23.30438  13.96756  2       48
siesta:    -23.16301  23.94976  14.40619  3       49
siesta:    -26.20988  20.47731  14.08007  3       50
siesta:    -29.88397  28.50175  11.96254  2       51
siesta:    -32.46283  29.23354  10.96949  3       52
siesta:    -27.67150  25.02803  10.20193  2       53
siesta:    -25.70063  25.92994   8.34823  3       54
siesta:    -29.42318  23.12245   9.00365  3       55
siesta:    -36.74386  22.28217  12.30696  3       56

siesta: System type = molecule  

initatomlists: Number of atoms, orbitals, and projectors:     56   520   714

siesta: ******************** Simulation parameters ****************************
siesta:
siesta: The following are some of the parameters of the simulation.
siesta: A complete list of the parameters used, including default values,
siesta: can be found in file out.fdf
siesta:
redata: Spin configuration                          = spin-orbit
redata: Number of spin components                   = 8
redata: Time-Reversal Symmetry                      = F
redata: Spin spiral                                 = F
############################################################
This spin-orbit implementation uses a local approximation.
From 4.2 and onwards the full non-local approximation is implemented
You are strongly advised to use >=4.2 versions!
############################################################
redata: Long output                                 =   F
redata: Number of Atomic Species                    =        4
redata: Charge density info will appear in .RHO file
redata: Write Mulliken Pop.                         = NO
redata: Matel table size (NRTAB)                    =     1024
redata: Mesh Cutoff                                 =   340.0000 Ry
redata: Net charge of the system                    =     0.0000 |e|
redata: Min. number of SCF Iter                     =        1
redata: Max. number of SCF Iter                     =      300
redata: SCF convergence failure will abort job
redata: SCF mix quantity                            = Hamiltonian
redata: Mix DM or H after convergence               =   F
redata: Recompute H after scf cycle                 =   F
redata: Mix DM in first SCF step                    =   T
redata: Write Pulay info on disk                    =   F
redata: New DM Occupancy tolerance                  = 0.000000000001
redata: No kicks to SCF
redata: DM Mixing Weight for Kicks                  =     0.5000
redata: Require Harris convergence for SCF          =   F
redata: Harris energy tolerance for SCF             =     0.000100 eV
redata: Require DM convergence for SCF              =   T
redata: DM tolerance for SCF                        =     0.000080
redata: Require EDM convergence for SCF             =   F
redata: EDM tolerance for SCF                       =     0.001000 eV
redata: Require H convergence for SCF               =   T
redata: Hamiltonian tolerance for SCF               =     0.000060 eV
redata: Require (free) Energy convergence for SCF   =   F
redata: (free) Energy tolerance for SCF             =     0.000100 eV
redata: Using Saved Data (generic)                  =   F
redata: Use continuation files for DM               =   T
redata: Neglect nonoverlap interactions             =   F
redata: Method of Calculation                       = Diagonalization
redata: Electronic Temperature                      =   299.9978 K
redata: Fix the spin of the system                  =   F
redata: Dynamics option                             = Verlet MD run
redata: Initial MD time step                        =        1
redata:   Final MD time step                        =      600
redata: Length of MD time step                      =     0.5000 fs
redata: Initial Temperature of MD run               =     1.0000 K
redata: Perform a MD quench                         =   T
mix.SCF: Pulay mixing                            = Pulay
mix.SCF:    Variant                              = stable
mix.SCF:    History steps                        = 6
mix.SCF:    Linear mixing weight                 =     0.250000
mix.SCF:    Mixing weight                        =     0.250000
mix.SCF:    SVD condition                        = 0.1000E-07
mix.SCF:    Restart steps                        = 24
mix.SCF:    Restart save steps                   = 3
mix.SCF: Spin-component mixing                   all
redata: Save all siesta data in one NC              =   F
redata: ***********************************************************************

%block SCF.Mixers
  Pulay
%endblock SCF.Mixers

%block SCF.Mixer.Pulay
  # Mixing method
  method pulay
  variant stable

  # Mixing options
  weight 0.2500
  weight.linear 0.2500
  history 6
  restart 24
  restart.save 3
%endblock SCF.Mixer.Pulay

Size of DM history Fstack: 3
Total number of electrons:   174.000000
Total ionic charge:   174.000000

* ProcessorY, Blocksize:    4  16


* Orbital distribution balance (max,min):    24    16


Time-reversal symmetry not used.

siesta: k-grid: Number of k-points =     1
siesta: k-grid: Cutoff (effective) =     8.740 Ang
siesta: k-grid: Supercell and displacements
siesta: k-grid:    1   0   0      0.000
siesta: k-grid:    0   1   0      0.000
siesta: k-grid:    0   0   1      0.000

diag: Algorithm                                     = ELPA-1stage
diag: Parallel over k                               =   F
diag: Use parallel 2D distribution                  =   T
diag: Parallel block-size                           = 16
diag: Parallel distribution                         =     4 x     8
diag: Used triangular part                          = Lower
diag: Absolute tolerance                            =  0.100E-15
diag: Orthogonalization factor                      =  0.100E-05
diag: Memory factor                                 =  1.0000


ts: **************************************************************
ts: Save H and S matrices                           =    F
ts: Save DM and EDM matrices                        =    F
ts: Only save the overlap matrix S                  =    F
ts: **************************************************************

************************ Begin: TS CHECKS AND WARNINGS ************************
************************ End: TS CHECKS AND WARNINGS **************************


                     ====================================
                        Begin MD quenched step =      1
                     ====================================

outcoor: Atomic coordinates (Ang):                          
   -5.90856572   17.91827385    1.82120302   1       1  O
   -4.87240161   17.34900173    3.15653033   2       2  Si
   -5.72667318   16.42939887    3.98696974   3       3  H
   -4.38566732   18.52801496    3.98419788   3       4  H
   -2.81906990   16.30333362    2.48625811   2       5  Si
   -1.96835224   16.43138082    3.72664902   3       6  H
   -2.77560724   14.59849669    2.07769094   1       7  O
   -3.20269721   14.03785990    0.46227149   2       8  Si
   -2.14791671   13.02266215    0.08629511   3       9  H
   -4.56305323   13.37203546    0.52033736   3      10  H
   -2.09247310   17.45733148    0.55712091   2      11  Si
   -2.59553564   18.87974055    0.51958716   3      12  H
   -3.24224272   15.98624716   -0.89944615   2      13  Si
   -4.65323660   16.51810718   -1.04019708   3      14  H
   -2.59477157   15.81899174   -2.25347965   3      15  H
   -0.35898908   17.39279630    0.43184880   1      16  O
    0.00584120   17.66509728   -0.44890927   3      17  H
   -7.42787939   18.70232232    3.81508223   1      18  O
   -7.11724985   19.10413484    2.19521609   4      19  P
   -6.26815817   20.44768303    2.07901977   1      20  O
   -8.58203996   18.96587145    1.55924170   1      21  O
  -12.61738181   16.42941045    4.85118198   1      22  O
  -12.02939367   17.15438409    6.42705625   2      23  Si
  -12.25856929   16.08011677    7.45224108   3      24  H
  -12.78297368   18.41903723    6.75470531   3      25  H
   -9.66021290   17.37496470    6.39827738   2      26  Si
   -9.21698142   18.26777777    7.53762851   3      27  H
   -9.30384181   15.73286466    6.92638441   1      28  O
   -8.71733762   14.58125562    5.72112761   2      29  Si
   -7.24768932   14.33336083    5.97846947   3      30  H
   -9.48487348   13.28574326    5.89186986   3      31  H
   -8.99476884   17.90662420    4.10211775   2      32  Si
  -10.11308309   18.79098424    3.63898215   3      33  H
   -9.03197232   15.58008643    3.58122968   2      34  Si
  -10.38190371   15.20777862    3.03148972   3      35  H
   -7.96096348   15.20667100    2.59733970   3      36  H
  -14.67927750   16.51665330    6.15720254   1      37  O
  -14.34062234   16.96081038    4.60777955   4      38  P
  -13.51325590   18.27205686    4.24457698   1      39  O
  -15.65417266   16.77787772    3.81047387   1      40  O
  -18.52201717   12.14959248    6.58651226   1      41  O
  -18.13045885   12.75903036    8.18306911   2      42  Si
  -18.25273232   11.62449798    9.18399704   3      43  H
  -19.14942465   13.81035442    8.57748801   3      44  H
  -16.03763778   13.97360904    8.43734659   2      45  Si
  -16.28543183   14.77036621    9.70322418   3      46  H
  -14.58798747   13.02408889    8.74713287   1      47  O
  -13.70514199   12.33214133    7.39131399   2      48  Si
  -12.25733279   12.67365970    7.62342686   3      49  H
  -13.86966599   10.83612125    7.45084702   3      50  H
  -15.81391170   15.08246941    6.33029877   2      51  Si
  -17.17858501   15.46971937    5.80480105   3      52  H
  -14.64311899   13.24425685    5.39862787   2      53  Si
  -13.60018220   13.72152791    4.41769149   3      54  H
  -15.57007237   12.23587089    4.76452296   3      55  H
  -19.44400299   11.79121299    6.51255947   3      56  H

outcell: Unit cell vectors (Ang):
       28.991692    0.000000    0.000000
        0.000000   17.480056    0.000000
        0.000000    0.000000   20.793004

outcell: Cell vector modules (Ang)   :   28.991692   17.480056   20.793004
outcell: Cell angles (23,13,12) (deg):     90.0000     90.0000     90.0000
outcell: Cell volume (Ang**3)        :  10537.4037
<dSpData1D:S at geom step 1
  <sparsity:sparsity for geom step 1
    nrows_g=520 nrows=24 sparsity=.0243 nnzs=6568, refcount: 8>
  <dData1D:(new from dSpData1D) n=6568, refcount: 1>
refcount: 1>
new_DM -- step:     1
Initializing Density Matrix...

Attempting to read DM from file... Failed...
DM filled with atomic data:
<dSpData2D:DM initialized from atoms
  <sparsity:sparsity for geom step 1
    nrows_g=520 nrows=24 sparsity=.0243 nnzs=6568, refcount: 9>
  <dData2D:DM n=6568 m=8, refcount: 1>
refcount: 1>
     spin moment: S , {S} =   88.00000   0.00000   0.00000  88.00000
No. of atoms with KB's overlaping orbs in proc 0. Max # of overlaps:      43     203

Initializing spin-orbit part of the Hamiltonian
  Adding spin-orbit effects for O 
  Adding spin-orbit effects for Si
  Adding spin-orbit effects for H 
  Adding spin-orbit effects for P 


New grid distribution:   1
           1       1:  162    1:   25    1:   15
           2       1:  162    1:   25   16:   30
           3       1:  162    1:   25   31:   45
           4       1:  162    1:   25   46:   60
           5       1:  162    1:   25   61:   75
           6       1:  162    1:   25   76:   90
           7       1:  162    1:   25   91:  105
           8       1:  162    1:   25  106:  120
           9       1:  162   26:   50    1:   15
          10       1:  162   26:   50   16:   30
          11       1:  162   26:   50   31:   45
          12       1:  162   26:   50   46:   60
          13       1:  162   26:   50   61:   75
          14       1:  162   26:   50   76:   90
          15       1:  162   26:   50   91:  105
          16       1:  162   26:   50  106:  120
          17       1:  162   51:   75    1:   15
          18       1:  162   51:   75   16:   30
          19       1:  162   51:   75   31:   45
          20       1:  162   51:   75   46:   60
          21       1:  162   51:   75   61:   75
          22       1:  162   51:   75   76:   90
          23       1:  162   51:   75   91:  105
          24       1:  162   51:   75  106:  120
          25       1:  162   76:  100    1:   15
          26       1:  162   76:  100   16:   30
          27       1:  162   76:  100   31:   45
          28       1:  162   76:  100   46:   60
          29       1:  162   76:  100   61:   75
          30       1:  162   76:  100   76:   90
          31       1:  162   76:  100   91:  105
          32       1:  162   76:  100  106:  120

InitMesh: MESH =   324 x   200 x   240 =    15552000
InitMesh: (bp) =   162 x   100 x   120 =     1944000
InitMesh: Mesh cutoff (required, used) =   340.000   345.179 Ry
ExtMesh (bp) on 0 =   266 x   129 x   119 =     4083366
New grid distribution:   2
           1       1:   86    1:   83    1:   29
           2     106:  123    1:   83   22:   32
           3       1:   86    1:   83   30:   36
           4     106:  136   82:  100    1:   13
           5       1:   76    1:   79   47:  120
           6       1:   88   84:  100    1:   28
           7       1:   81   80:  100   37:   45
           8     137:  162   82:  100   10:   21
           9      87:  105    1:   83    1:   28
          10     106:  136   82:  100   14:   21
          11      77:  105    1:   79   37:   44
          12      77:  105    1:   79   45:  120
          13     106:  124   84:  100   34:  120
          14     124:  162    1:   83   73:  120
          15      87:  105    1:   83   29:   36
          16     137:  162   82:  100    1:    9
          17     106:  131    1:   81    1:   14
          18     106:  131    1:   81   15:   21
          19     124:  162    1:   83   22:   72
          20     106:  124   84:  100   22:   33
          21     106:  123    1:   83   33:  120
          22     132:  162    1:   81   11:   21
          23       1:   88   84:  100   29:   36
          24      82:  105   80:  100   37:   42
          25     132:  162    1:   81    1:   10
          26      89:  105   84:  100    1:   27
          27     125:  162   84:  100   22:  103
          28       1:   81   80:  100   46:  120
          29       1:   76    1:   79   37:   46
          30      82:  105   80:  100   43:  120
          31      89:  105   84:  100   28:   36
          32     125:  162   84:  100  104:  120
New grid distribution:   3
           1      78:  102    1:   70    1:   26
           2     103:  131    1:   67    1:   17
           3     103:  132   68:  100    1:   16
           4     129:  162    1:   73   33:  108
           5       1:   72    1:   71   57:  120
           6       1:   68   72:  100   40:   57
           7     103:  132   74:  100   33:   51
           8     129:  162    1:   73  109:  120
           9       1:   77    1:   70    1:   26
          10     132:  162    1:   67   14:   32
          11     103:  128    1:   73   33:   47
          12     133:  162   68:  100    1:   15
          13      73:  102    1:   71   51:  120
          14       1:   74   71:  100   25:   39
          15     132:  162    1:   67    1:   13
          16      69:  102   72:  100   40:   54
          17       1:   74   71:  100    1:   24
          18     103:  131    1:   67   18:   32
          19     103:  132   68:  100   17:   32
          20       1:   72    1:   71   40:   56
          21     103:  128    1:   73   48:  120
          22     133:  162   74:  100   33:  101
          23      73:  102    1:   71   40:   50
          24      75:  102   71:  100   23:   39
          25       1:   77    1:   70   27:   39
          26      78:  102    1:   70   27:   39
          27     133:  162   68:  100   16:   32
          28     103:  132   74:  100   52:  120
          29       1:   68   72:  100   58:  120
          30      69:  102   72:  100   55:  120
          31      75:  102   71:  100    1:   22
          32     133:  162   74:  100  102:  120
Setting up quadratic distribution...
ExtMesh (bp) on 0 =   190 x   187 x   133 =     4725490
PhiOnMesh: Number of (b)points on node 0 =               207002
PhiOnMesh: nlist on node 0 =               774776

stepf: Fermi-Dirac step function

siesta: Program's energy decomposition (eV):
siesta: Ebs     =     -1509.830813
siesta: Eions   =      8062.213954
siesta: Ena     =       479.278134
siesta: Ekin    =      6535.725665
siesta: Enl     =     -4881.480348
siesta: Eso     =        -0.008553
siesta: Edftu   =         0.000000
siesta: DEna    =         9.362829
siesta: DUscf   =        82.599463
siesta: DUext   =         0.000000
siesta: Exc     =     -2159.022068
siesta: eta*DQ  =         0.000000
siesta: Emadel  =         0.000000
siesta: Emeta   =         0.000000
siesta: Emolmec =         0.000000
siesta: Ekinion =         0.000000
siesta: Eharris =     -7938.633469
siesta: Etot    =     -7995.758831
siesta: FreeEng =     -7995.794138

        iscf     Eharris(eV)        E_KS(eV)     FreeEng(eV)     dDmax    Ef(eV) dHmax(eV)
   scf:    1    -7938.633469    -7995.758831    -7995.794138  0.975805 -6.080601 20.908462
     spin moment: S , {S} =    2.00017   0.00061  -0.00044   2.00017
timer: Routine,Calls,Time,% = IterSCF        1       4.775  11.61
   scf:    2    -8027.219698    -8029.957548    -8029.990436  0.470582 -5.444980 16.930815
     spin moment: S , {S} =    2.00011   0.00003  -0.00009   2.00011
   scf:    3    -7991.352658    -8025.384030    -8025.387210  0.433899 -5.594679 18.110251
     spin moment: S , {S} =    2.00007   0.00007  -0.00000   2.00007
   scf:    4    -8025.277951    -8036.900314    -8036.935133  0.527079 -5.844265 10.701352
     spin moment: S , {S} =    2.00009  -0.00011  -0.00029   2.00009
   scf:    5    -8038.757754    -8040.009014    -8040.016086  0.365708 -5.890314  3.853245
     spin moment: S , {S} =    2.00004   0.00007  -0.00017   2.00004
   scf:    6    -8038.352163    -8040.268235    -8040.305240  0.267800 -6.155559  6.434231
     spin moment: S , {S} =    1.99999  -0.00006  -0.00078   1.99999
   scf:    7    -8040.104702    -8041.192371    -8041.202408  0.290709 -6.123213  3.775116
     spin moment: S , {S} =    1.99994  -0.00001  -0.00021   1.99994
   scf:    8    -8041.886828    -8041.736297    -8041.757223  0.120934 -6.296586  1.448460
     spin moment: S , {S} =    1.99973   0.00030  -0.00193   1.99973
   scf:    9    -8041.864615    -8041.854211    -8041.873542  0.057000 -6.347474  0.942515
     spin moment: S , {S} =    1.99805   0.00001  -0.00156   1.99805
   scf:   10    -8041.951907    -8041.911516    -8041.925137  0.016534 -6.410963  0.852688
     spin moment: S , {S} =    1.99382   0.00064  -0.00263   1.99382
   scf:   11    -8041.955646    -8041.939473    -8041.958901  0.015526 -6.426054  0.266430
     spin moment: S , {S} =    1.97520   0.00053  -0.00291   1.97520
   scf:   12    -8041.991365    -8041.964317    -8041.984954  0.007489 -6.457419  0.094124
     spin moment: S , {S} =    1.95399   0.00098  -0.00373   1.95399
   scf:   13    -8041.975237    -8041.969658    -8041.990499  0.002511 -6.459838  0.064142
     spin moment: S , {S} =    1.95307   0.00118  -0.00403   1.95306
   scf:   14    -8041.977091    -8041.973477    -8041.993384  0.003966 -6.457588  0.127617
     spin moment: S , {S} =    1.96033   0.00138  -0.00425   1.96032
   scf:   15    -8041.975467    -8041.974744    -8041.995705  0.005426 -6.461017  0.070985
     spin moment: S , {S} =    1.95345   0.00161  -0.00464   1.95345
   scf:   16    -8041.976849    -8041.975892    -8041.996276  0.003343 -6.456122  0.052568
     spin moment: S , {S} =    1.95940   0.00173  -0.00472   1.95939
   scf:   17    -8041.975806    -8041.975896    -8041.996341  0.001830 -6.456742  0.017565
     spin moment: S , {S} =    1.95825   0.00183  -0.00488   1.95825
   scf:   18    -8041.975976    -8041.975927    -8041.996506  0.000804 -6.455227  0.013258
     spin moment: S , {S} =    1.95794   0.00196  -0.00500   1.95794
   scf:   19    -8041.976114    -8041.976023    -8041.996512  0.000459 -6.455204  0.009104
     spin moment: S , {S} =    1.95799   0.00201  -0.00504   1.95798
   scf:   20    -8041.975988    -8041.976004    -8041.996531  0.000252 -6.455095  0.003225
     spin moment: S , {S} =    1.95692   0.00216  -0.00517   1.95691
   scf:   21    -8041.975958    -8041.975980    -8041.996532  0.000096 -6.455487  0.002932
     spin moment: S , {S} =    1.95583   0.00226  -0.00526   1.95582
   scf:   22    -8041.975912    -8041.975945    -8041.996534  0.000161 -6.455609  0.003128
     spin moment: S , {S} =    1.95521   0.00234  -0.00531   1.95520
   scf:   23    -8041.976010    -8041.975978    -8041.996534  0.000173 -6.455581  0.002988
     spin moment: S , {S} =    1.95523   0.00236  -0.00532   1.95522
   scf:   24    -8041.975915    -8041.975946    -8041.996534  0.000130 -6.455864  0.000884
     spin moment: S , {S} =    1.95445   0.00245  -0.00537   1.95445
mix: Pulay -- resetting history
   scf:   25    -8041.975919    -8041.975932    -8041.996533  0.000026 -6.455879  0.000618
     spin moment: S , {S} =    1.95419   0.00249  -0.00538   1.95418
   scf:   26    -8041.975955    -8041.975944    -8041.996533  0.000033 -6.455864  0.001113
     spin moment: S , {S} =    1.95423   0.00249  -0.00538   1.95422
   scf:   27    -8041.975930    -8041.975937    -8041.996533  0.000036 -6.455895  0.000596
     spin moment: S , {S} =    1.95403   0.00252  -0.00539   1.95403
   scf:   28    -8041.975929    -8041.975933    -8041.996533  0.000020 -6.455905  0.000481
     spin moment: S , {S} =    1.95383   0.00256  -0.00539   1.95383
   scf:   29    -8041.975911    -8041.975921    -8041.996532  0.000037 -6.455937  0.000214
     spin moment: S , {S} =    1.95340   0.00263  -0.00539   1.95339
   scf:   30    -8041.975922    -8041.975922    -8041.996531  0.000013 -6.455939  0.000466
     spin moment: S , {S} =    1.95327   0.00266  -0.00538   1.95326
   scf:   31    -8041.975905    -8041.975913    -8041.996531  0.000024 -6.455966  0.000143
     spin moment: S , {S} =    1.95297   0.00270  -0.00536   1.95296
   scf:   32    -8041.975906    -8041.975909    -8041.996530  0.000018 -6.455978  0.000142
     spin moment: S , {S} =    1.95276   0.00274  -0.00535   1.95275
   scf:   33    -8041.975910    -8041.975910    -8041.996530  0.000006 -6.455983  0.000172
     spin moment: S , {S} =    1.95275   0.00274  -0.00531   1.95275
   scf:   34    -8041.975906    -8041.975908    -8041.996530  0.000009 -6.455987  0.000130
     spin moment: S , {S} =    1.95271   0.00275  -0.00529   1.95270
   scf:   35    -8041.975904    -8041.975906    -8041.996530  0.000009 -6.455993  0.000157
     spin moment: S , {S} =    1.95260   0.00277  -0.00527   1.95259
   scf:   36    -8041.975903    -8041.975904    -8041.996530  0.000010 -6.456000  0.000080
     spin moment: S , {S} =    1.95254   0.00278  -0.00521   1.95253
   scf:   37    -8041.975905    -8041.975905    -8041.996530  0.000003 -6.455999  0.000065
     spin moment: S , {S} =    1.95254   0.00278  -0.00519   1.95253
   scf:   38    -8041.975903    -8041.975904    -8041.996530  0.000007 -6.456001  0.000046
     spin moment: S , {S} =    1.95251   0.00279  -0.00514   1.95250

SCF Convergence by DM+H criterion
max |DM_out - DM_in|         :     0.0000073529
max |H_out - H_in|      (eV) :     0.0000456027
SCF cycle converged after 38 iterations

Using DM_out to compute the final energy and forces
No. of atoms with KB's overlaping orbs in proc 0. Max # of overlaps:      43     203

siesta: E_KS(eV) =            -8041.9759

siesta: E_KS - E_eggbox =     -8041.9759
     spin moment: S , {S} =    1.95251   0.00279  -0.00514   1.95250

siesta: Atomic forces (eV/Ang):
     1    0.003921   -0.001546    0.005397
     2   -0.003766    0.002036   -0.002157
     3    0.001182    0.001458   -0.001370
     4   -0.000759   -0.001555   -0.001209
     5    0.001499   -0.006796   -0.000755
     6   -0.001262   -0.000311   -0.001913
     7   -0.003150    0.002178   -0.009455
     8    0.001440    0.001065    0.005768
     9   -0.001581    0.001637    0.000738
    10    0.001988    0.000972    0.000044
    11    0.007106    0.000781   -0.000439
    12    0.000894   -0.002137    0.000041
    13   -0.000648    0.000651   -0.001263
    14    0.002093   -0.000827    0.000212
    15   -0.000932    0.000187    0.002040
    16   -0.008356    0.001301   -0.002763
    17   -0.000333   -0.000108    0.000572
    18   -0.007834   -0.003490   -0.000555
    19    0.000230   -0.000429   -0.000882
    20    0.003328    0.003477   -0.000451
    21   -0.002974    0.000482    0.001031
    22    0.000035    0.005160   -0.001322
    23   -0.005319    0.000451   -0.000825
    24    0.000218    0.002325   -0.001641
    25   -0.001484    0.002394    0.000889
    26    0.001272   -0.006645    0.003179
    27   -0.000546   -0.001513   -0.001454
    28    0.001608    0.001086   -0.007137
    29   -0.001818    0.003861    0.003120
    30   -0.003009   -0.000166   -0.000377
    31    0.000761    0.000899    0.000180
    32    0.004939    0.003104   -0.002081
    33   -0.001812   -0.000094    0.001375
    34    0.000515   -0.002261   -0.002706
    35    0.001887    0.000340    0.000694
    36   -0.000574    0.000022    0.000928
    37    0.002586    0.002486    0.004662
    38    0.000594   -0.001471   -0.000577
    39    0.001353    0.005011    0.007907
    40   -0.000570    0.000508   -0.001875
    41   -0.002199    0.001728    0.007367
    42   -0.003197   -0.002716   -0.004899
    43    0.000051    0.001448   -0.001486
    44    0.001316   -0.001600   -0.000676
    45    0.005071   -0.002918    0.001774
    46    0.000492   -0.001277   -0.001844
    47    0.001272    0.000218   -0.006425
    48   -0.002408    0.001831    0.005419
    49   -0.002324   -0.000466   -0.000200
    50    0.000169    0.002356    0.000029
    51    0.000434    0.002115   -0.001432
    52    0.002037   -0.000549    0.000782
    53   -0.000168   -0.000082   -0.001462
    54   -0.001494   -0.000769    0.001462
    55    0.001369    0.001461    0.000965
    56    0.000655    0.000337    0.000272
----------------------------------------
   Tot   -0.006199    0.015640   -0.004781
----------------------------------------
   Max    0.009455
   Res    0.002712    sqrt( Sum f_i^2 / 3N )
----------------------------------------
   Max    0.009455    constrained

Stress tensor Voigt[x,y,z,yz,xz,xy] (kbar):        0.45       -0.34       -0.86       -0.25        0.17        0.32
(Free)E + p*V (eV/cell)    -8040.3532
Target enthalpy (eV/cell)    -8041.9965

siesta: Stress tensor (static) (eV/Ang**3):
         0.000282    0.000197    0.000109
         0.000197   -0.000213   -0.000156
         0.000109   -0.000156   -0.000536

siesta: Pressure (static):          0.24915210  kBar

siesta: Stress tensor (total) (eV/Ang**3):
         0.000281    0.000197    0.000108
         0.000197   -0.000213   -0.000156
         0.000108   -0.000156   -0.000536

siesta: Pressure (total):          0.24986751  kBar

siesta: Temp_ion =       0.541 K

                     ====================================
                        Begin MD quenched step =      2
                     ====================================

outcoor: Atomic coordinates (Ang):                          
   -5.90842945   17.91805430    1.82126945   1       1  O
   -4.87243738   17.34907250    3.15653024   2       2  Si
   -5.72644534   16.42940060    3.98659545   3       3  H
   -4.38581131   18.52801312    3.98419645   3       4  H
   -2.81906984   16.30333333    2.48613786   2       5  Si
   -1.96888798   16.43138045    3.72664675   3       6  H
   -2.77560748   14.59867536    2.07769023   1       7  O
   -3.20269715   14.03785995    0.46227174   2       8  Si
   -2.14791858   13.02266409    0.08629598   3       9  H
   -4.56267789   13.37248158    0.52068076   3      10  H
   -2.09244194   17.45742996    0.55712089   2      11  Si
   -2.59504688   18.87952046    0.52014137   3      12  H
   -3.24226394   15.98630015   -0.89944620   2      13  Si
   -4.65323412   16.51744831   -1.04019683   3      14  H
   -2.59496539   15.81899196   -2.25325923   3      15  H
   -0.35907069   17.39282167    0.43180730   1      16  O
    0.00583381   17.66482413   -0.44890859   3      17  H
   -7.42787998   18.70230939    3.81508219   1      18  O
   -7.11724984   19.10413482    2.19519121   4      19  P
   -6.26815792   20.44777036    2.07901974   1      20  O
   -8.58204018   18.96598199    1.55924178   1      21  O
  -12.61731188   16.42941084    4.85118188   1      22  O
  -12.02939390   17.15438411    6.42705018   2      23  Si
  -12.25856903   16.08088218    7.45223913   3      24  H
  -12.78337904   18.41949100    6.75470636   3      25  H
   -9.66014486   17.37477592    6.39836057   2      26  Si
   -9.21733578   18.26756935    7.53758156   3      27  H
   -9.30378226   15.73309516    6.92616892   1      28  O
   -8.71733770   14.58142884    5.72112774   2      29  Si
   -7.24806310   14.33319361    5.97809987   3      30  H
   -9.48414134   13.28669201    5.89220115   3      31  H
   -8.99463894   17.90662433    4.10211766   2      32  Si
  -10.11308524   18.79098413    3.63945879   3      33  H
   -9.03192500   15.58006255    3.58118499   2      34  Si
  -10.38190147   15.20806342    3.03149054   3      35  H
   -7.96096416   15.20667103    2.59734080   3      36  H
  -14.67927731   16.51671438    6.15720774   1      37  O
  -14.34057429   16.96081032    4.60777953   4      38  P
  -13.51325580   18.27205724    4.24466691   1      39  O
  -15.65417270   16.77789069    3.81047373   1      40  O
  -18.52223182   12.14959261    6.58654764   1      41  O
  -18.13054709   12.75891543    8.18306890   2      42  Si
  -18.25214580   11.62462784    9.18375480   3      43  H
  -19.14910728   13.81035252    8.57748721   3      44  H
  -16.03753562   13.97338030    8.43734667   2      45  Si
  -16.28543125   14.76961290    9.70278601   3      46  H
  -14.58798737   13.02408891    8.74713128   1      47  O
  -13.70516089   12.33214141    7.39131422   2      48  Si
  -12.25733554   12.67290612    7.62342662   3      49  H
  -13.86966579   10.83619985    7.45097806   3      50  H
  -15.81390530   15.08246950    6.33029871   2      51  Si
  -17.17858260   15.46971872    5.80492210   3      52  H
  -14.64311900   13.24422487    5.39862781   2      53  Si
  -13.60044367   13.72152700    4.41769322   3      54  H
  -15.57007075   12.23587262    4.76452410   3      55  H
  -19.44400221   11.79121339    6.51255979   3      56  H

outcell: Unit cell vectors (Ang):
       28.991692    0.000000    0.000000
        0.000000   17.480056    0.000000
        0.000000    0.000000   20.793004

outcell: Cell vector modules (Ang)   :   28.991692   17.480056   20.793004
outcell: Cell angles (23,13,12) (deg):     90.0000     90.0000     90.0000
outcell: Cell volume (Ang**3)        :  10537.4037
<dSpData1D:S at geom step 2
  <sparsity:sparsity for geom step 2
    nrows_g=520 nrows=24 sparsity=.0243 nnzs=6568, refcount: 8>
  <dData1D:(new from dSpData1D) n=6568, refcount: 1>
refcount: 1>
new_DM -- step:     2
Re-using DM from previous geometries...
Number of DMs in history: 1
 DM extrapolation coefficients: 
1   1.00000
New DM after history re-use:
<dSpData2D:SpM extrapolated using coords
  <sparsity:sparsity for geom step 2
    nrows_g=520 nrows=24 sparsity=.0243 nnzs=6568, refcount: 10>
  <dData2D:(temp array for extrapolation) n=6568 m=8, refcount: 1>
refcount: 1>
     spin moment: S , {S} =    1.95251   0.00279  -0.00514   1.95251
No. of atoms with KB's overlaping orbs in proc 0. Max # of overlaps:      43     203
New grid distribution:   1
           1       1:  162    1:   25    1:   15
           2       1:  162    1:   25   16:   30
           3       1:  162    1:   25   31:   45
           4       1:  162    1:   25   46:   60
           5       1:  162    1:   25   61:   75
           6       1:  162    1:   25   76:   90
           7       1:  162    1:   25   91:  105
           8       1:  162    1:   25  106:  120
           9       1:  162   26:   50    1:   15
          10       1:  162   26:   50   16:   30
          11       1:  162   26:   50   31:   45
          12       1:  162   26:   50   46:   60
          13       1:  162   26:   50   61:   75
          14       1:  162   26:   50   76:   90
          15       1:  162   26:   50   91:  105
          16       1:  162   26:   50  106:  120
          17       1:  162   51:   75    1:   15
          18       1:  162   51:   75   16:   30
          19       1:  162   51:   75   31:   45
          20       1:  162   51:   75   46:   60
          21       1:  162   51:   75   61:   75
          22       1:  162   51:   75   76:   90
          23       1:  162   51:   75   91:  105
          24       1:  162   51:   75  106:  120
          25       1:  162   76:  100    1:   15
          26       1:  162   76:  100   16:   30
          27       1:  162   76:  100   31:   45
          28       1:  162   76:  100   46:   60
          29       1:  162   76:  100   61:   75
          30       1:  162   76:  100   76:   90
          31       1:  162   76:  100   91:  105
          32       1:  162   76:  100  106:  120

InitMesh: MESH =   324 x   200 x   240 =    15552000
InitMesh: (bp) =   162 x   100 x   120 =     1944000
InitMesh: Mesh cutoff (required, used) =   340.000   345.179 Ry
ExtMesh (bp) on 0 =   266 x   129 x   119 =     4083366
New grid distribution:   2
           1       1:   86    1:   83    1:   29
           2     106:  123    1:   83   22:   32
           3       1:   86    1:   83   30:   36
           4     106:  136   82:  100    1:   13
           5       1:   76    1:   79   47:  120
           6       1:   88   84:  100    1:   28
           7       1:   81   80:  100   37:   45
           8     137:  162   82:  100   10:   21
           9      87:  105    1:   83    1:   28
          10     106:  136   82:  100   14:   21
          11      77:  105    1:   79   37:   44
          12      77:  105    1:   79   45:  120
          13     106:  124   84:  100   34:  120
          14     124:  162    1:   83   72:  120
          15      87:  105    1:   83   29:   36
          16     137:  162   82:  100    1:    9
          17     106:  131    1:   81    1:   14
          18     106:  131    1:   81   15:   21
          19     124:  162    1:   83   22:   71
          20     106:  124   84:  100   22:   33
          21     106:  123    1:   83   33:  120
          22     132:  162    1:   81   11:   21
          23       1:   88   84:  100   29:   36
          24      82:  105   80:  100   37:   42
          25     132:  162    1:   81    1:   10
          26      89:  105   84:  100    1:   27
          27     125:  162   84:  100   22:  103
          28       1:   81   80:  100   46:  120
          29       1:   76    1:   79   37:   46
          30      82:  105   80:  100   43:  120
          31      89:  105   84:  100   28:   36
          32     125:  162   84:  100  104:  120
New grid distribution:   3
           1      78:  102    1:   70    1:   26
           2     103:  131    1:   67    1:   17
           3     103:  132   68:  100    1:   16
           4     129:  162    1:   73   33:  108
           5       1:   72    1:   71   57:  120
           6       1:   68   72:  100   40:   57
           7     103:  132   74:  100   33:   51
           8     129:  162    1:   73  109:  120
           9       1:   77    1:   70    1:   26
          10     132:  162    1:   67   14:   32
          11     103:  128    1:   73   33:   47
          12     133:  162   68:  100    1:   15
          13      73:  102    1:   71   51:  120
          14       1:   74   71:  100   25:   39
          15     132:  162    1:   67    1:   13
          16      69:  102   72:  100   40:   54
          17       1:   74   71:  100    1:   24
          18     103:  131    1:   67   18:   32
          19     103:  132   68:  100   17:   32
          20       1:   72    1:   71   40:   56
          21     103:  128    1:   73   48:  120
          22     133:  162   74:  100   33:  101
          23      73:  102    1:   71   40:   50
          24      75:  102   71:  100   23:   39
          25       1:   77    1:   70   27:   39
          26      78:  102    1:   70   27:   39
          27     133:  162   68:  100   16:   32
          28     103:  132   74:  100   52:  120
          29       1:   68   72:  100   58:  120
          30      69:  102   72:  100   55:  120
          31      75:  102   71:  100    1:   22
          32     133:  162   74:  100  102:  120
Setting up quadratic distribution...
ExtMesh (bp) on 0 =   190 x   187 x   133 =     4725490
PhiOnMesh: Number of (b)points on node 0 =               207002
PhiOnMesh: nlist on node 0 =               774776

        iscf     Eharris(eV)        E_KS(eV)     FreeEng(eV)     dDmax    Ef(eV) dHmax(eV)
   scf:    1    -8041.964872    -8041.974590    -8041.995901  0.003565 -6.456706  0.117002
     spin moment: S , {S} =    1.94998   0.00283  -0.00511   1.94997
   scf:    2    -8041.666690    -8041.878218    -8041.887152  0.068620 -6.438267  2.335444
     spin moment: S , {S} =    1.98595   0.00165  -0.00318   1.98595
   scf:    3    -8041.969810    -8041.975881    -8041.996163  0.065423 -6.456235  0.028522
     spin moment: S , {S} =    1.95390   0.00290  -0.00524   1.95389
   scf:    4    -8041.975426    -8041.975685    -8041.996238  0.000557 -6.455703  0.009977
     spin moment: S , {S} =    1.95288   0.00280  -0.00506   1.95287
   scf:    5    -8041.975348    -8041.975523    -8041.996239  0.000585 -6.455610  0.008929
     spin moment: S , {S} =    1.95228   0.00280  -0.00503   1.95227
   scf:    6    -8041.975684    -8041.975605    -8041.996242  0.000225 -6.455547  0.001804
     spin moment: S , {S} =    1.95258   0.00281  -0.00503   1.95257
   scf:    7    -8041.975631    -8041.975618    -8041.996242  0.000064 -6.455509  0.000613
     spin moment: S , {S} =    1.95264   0.00281  -0.00501   1.95263
   scf:    8    -8041.975603    -8041.975611    -8041.996242  0.000036 -6.455496  0.000618
     spin moment: S , {S} =    1.95261   0.00281  -0.00500   1.95261
   scf:    9    -8041.975615    -8041.975613    -8041.996242  0.000008 -6.455484  0.000261
     spin moment: S , {S} =    1.95263   0.00281  -0.00498   1.95262
   scf:   10    -8041.975614    -8041.975614    -8041.996242  0.000003 -6.455478  0.000145
     spin moment: S , {S} =    1.95264   0.00281  -0.00496   1.95263
   scf:   11    -8041.975614    -8041.975614    -8041.996242  0.000004 -6.455473  0.000126
     spin moment: S , {S} =    1.95265   0.00282  -0.00494   1.95264
   scf:   12    -8041.975615    -8041.975614    -8041.996242  0.000003 -6.455470  0.000046
     spin moment: S , {S} =    1.95265   0.00282  -0.00492   1.95264

SCF Convergence by DM+H criterion
max |DM_out - DM_in|         :     0.0000032808
max |H_out - H_in|      (eV) :     0.0000458179
SCF cycle converged after 12 iterations

Using DM_out to compute the final energy and forces
No. of atoms with KB's overlaping orbs in proc 0. Max # of overlaps:      43     203

siesta: E_KS(eV) =            -8041.9756
     spin moment: S , {S} =    1.95265   0.00282  -0.00492   1.95264

siesta: Atomic forces (eV/Ang):
     1   -0.032503    0.050080   -0.011185
     2    0.000857    0.002288   -0.004616
     3   -0.017677    0.001864    0.024858
     4    0.009103   -0.001245   -0.001196
     5   -0.001137   -0.003732   -0.001034
     6    0.042668    0.000044    0.001025
     7   -0.002790   -0.041582   -0.010233
     8    0.008595    0.005822    0.006130
     9   -0.001523    0.001290    0.000856
    10   -0.032092   -0.038532   -0.024453
    11    0.007291   -0.005774    0.000030
    12   -0.038934    0.018420   -0.043628
    13    0.001222   -0.000761    0.003078
    14   -0.002929    0.048347   -0.002752
    15    0.016380    0.000618   -0.017927
    16    0.011619   -0.005691    0.009307
    17    0.000803    0.001923   -0.001946
    18   -0.006083   -0.000173   -0.000782
    19    0.003584    0.001215   -0.001664
    20    0.002439   -0.019542   -0.000219
    21   -0.003185   -0.025059    0.001202
    22   -0.017513    0.004638   -0.001161
    23   -0.008182    0.015479   -0.004354
    24   -0.002459   -0.056273   -0.001932
    25    0.003290   -0.002753   -0.000586
    26   -0.002048   -0.000224   -0.002446
    27    0.028193    0.016963    0.004943
    28   -0.010955   -0.057092    0.042640
    29    0.001728    0.013712   -0.001405
    30    0.034580    0.014704    0.031963
    31   -0.057658   -0.067517   -0.015751
    32    0.003794    0.001756   -0.000951
    33   -0.004036    0.000381   -0.033330
    34    0.000121   -0.000785   -0.001726
    35    0.000447   -0.019257    0.000024
    36    0.000124   -0.000365    0.000203
    37    0.002542   -0.011387    0.003532
    38   -0.001652   -0.002640   -0.000613
    39    0.001747    0.006238   -0.011857
    40    0.000810   -0.002063   -0.001234
    41    0.056144    0.004597    0.000056
    42    0.001939    0.000683   -0.009519
    43   -0.037021   -0.010858    0.021661
    44   -0.025579   -0.001077    0.000121
    45    0.002273   -0.005113   -0.007379
    46   -0.000616    0.060003    0.038569
    47    0.004819   -0.001755   -0.005739
    48   -0.003755    0.000445    0.005134
    49   -0.001338    0.057296    0.000966
    50   -0.000656   -0.004040   -0.010370
    51    0.001122    0.001687   -0.000043
    52    0.001591   -0.000363   -0.008317
    53   -0.002074    0.000099    0.000008
    54    0.020007    0.000470    0.000894
    55    0.001034    0.000946    0.000927
    56   -0.008070   -0.003060   -0.000551
----------------------------------------
   Tot   -0.051600   -0.056706   -0.042771
----------------------------------------
   Max    0.067517
   Res    0.018539    sqrt( Sum f_i^2 / 3N )
----------------------------------------
   Max    0.067517    constrained

Stress tensor Voigt[x,y,z,yz,xz,xy] (kbar):        0.44       -0.35       -0.87       -0.25        0.17        0.31
(Free)E + p*V (eV/cell)    -8040.2946
Target enthalpy (eV/cell)    -8041.9962

siesta: Stress tensor (static) (eV/Ang**3):
         0.000276    0.000195    0.000108
         0.000195   -0.000219   -0.000155
         0.000108   -0.000155   -0.000540

siesta: Pressure (static):          0.25833864  kBar

siesta: Stress tensor (total) (eV/Ang**3):
         0.000275    0.000195    0.000108
         0.000195   -0.000220   -0.000155
         0.000108   -0.000155   -0.000540

siesta: Pressure (total):          0.25872568  kBar

siesta: Temp_ion =       0.143 K

                     ====================================
                        Begin MD quenched step =      3
                     ====================================

outcoor: Atomic coordinates (Ang):                          
   -5.90843188   17.91805805    1.82126861   1       1  O
   -4.87243734   17.34914347    3.15652975   2       2  Si
   -5.72646630   16.42940675    3.98662492   3       3  H
   -4.38580052   18.52800832    3.98419218   3       4  H
   -2.81906988   16.30333272    2.48601752   2       5  Si
   -1.96883739   16.43138050    3.72664797   3       6  H
   -2.77560813   14.59867224    2.07768799   1       7  O
   -3.20269635   14.03786049    0.46227250   2       8  Si
   -2.14792407   13.02266909    0.08629889   3       9  H
   -4.56271594   13.37243590    0.52065177   3      10  H
   -2.09241015   17.45742972    0.55712089   2      11  Si
   -2.59509304   18.87954230    0.52008965   3      12  H
   -3.24226389   15.98630012   -0.89944600   2      13  Si
   -4.65323858   16.51750563   -1.04020310   3      14  H
   -2.59494597   15.81899365   -2.25328048   3      15  H
   -0.35906982   17.39282124    0.43180800   1      16  O
    0.00583476   17.66482641   -0.44891253   3      17  H
   -7.42788147   18.70229643    3.81508203   1      18  O
   -7.11724956   19.10413490    2.19516619   4      19  P
   -6.26815731   20.44776890    2.07901967   1      20  O
   -8.58204088   18.96598012    1.55924203   1      21  O
  -12.61731319   16.42941192    4.85118161   1      22  O
  -12.02939482   17.15438545    6.42704375   2      23  Si
  -12.25857460   16.08081547    7.45223261   3      24  H
  -12.78337514   18.41948774    6.75470567   3      25  H
   -9.66014494   17.37458712    6.39836047   2      26  Si
   -9.21730236   18.26758946    7.53758742   3      27  H
   -9.30378308   15.73309088    6.92617211   1      28  O
   -8.71733762   14.58160323    5.72112768   2      29  Si
   -7.24802210   14.33321104    5.97813776   3      30  H
   -9.48420969   13.28661197    5.89218248   3      31  H
   -8.99450871   17.90662461    4.10211749   2      32  Si
  -10.11309696   18.79098492    3.63941927   3      33  H
   -9.03187767   15.58003860    3.58114016   2      34  Si
  -10.38189818   15.20804059    3.03149142   3      35  H
   -7.96096401   15.20667019    2.59734238   3      36  H
  -14.67927673   16.51671353    6.15721347   1      37  O
  -14.34057435   16.96081006    4.60777946   4      38  P
  -13.51325544   18.27205854    4.24466602   1      39  O
  -15.65417262   16.77789054    3.81047340   1      40  O
  -18.52222762   12.14959343    6.58658304   1      41  O
  -18.13054701   12.75891546    8.18306788   2      42  Si
  -18.25218969   11.62461496    9.18378047   3      43  H
  -19.14913761   13.81034807    8.57748735   3      44  H
  -16.03743327   13.97315112    8.43734611   2      45  Si
  -16.28543212   14.76968404    9.70283173   3      46  H
  -14.58798656   13.02408866    8.74712883   1      47  O
  -13.70518010   12.33214152    7.39131489   2      48  Si
  -12.25734147   12.67297405    7.62342868   3      49  H
  -13.86966714   10.83619506    7.45096577   3      50  H
  -15.81389880   15.08246973    6.33029864   2      51  Si
  -17.17857641   15.46971721    5.80491224   3      52  H
  -14.64311918   13.24422487    5.39862781   2      53  Si
  -13.60041995   13.72152756    4.41769708   3      54  H
  -15.57006667   12.23587660    4.76452745   3      55  H
  -19.44402057   11.79120653    6.51255881   3      56  H

outcell: Unit cell vectors (Ang):
       28.991692    0.000000    0.000000
        0.000000   17.480056    0.000000
        0.000000    0.000000   20.793004

outcell: Cell vector modules (Ang)   :   28.991692   17.480056   20.793004
outcell: Cell angles (23,13,12) (deg):     90.0000     90.0000     90.0000
outcell: Cell volume (Ang**3)        :  10537.4037
<dSpData1D:S at geom step 3
  <sparsity:sparsity for geom step 3
    nrows_g=520 nrows=24 sparsity=.0243 nnzs=6568, refcount: 8>
  <dData1D:(new from dSpData1D) n=6568, refcount: 1>
refcount: 1>
new_DM -- step:     3
Re-using DM from previous geometries...
Number of DMs in history: 2
  Estimated Rank of xi*xj matrix:            2
 matrix rank:            3
Singular values: 
  1.4142      1.4142     0.14120E-04
 DM extrapolation coefficients: 
1   0.05831
2   0.94169
New DM after history re-use:
<dSpData2D:SpM extrapolated using coords
  <sparsity:sparsity for geom step 3
    nrows_g=520 nrows=24 sparsity=.0243 nnzs=6568, refcount: 11>
  <dData2D:(temp array for extrapolation) n=6568 m=8, refcount: 1>
refcount: 1>
     spin moment: S , {S} =    1.95264   0.00282  -0.00493   1.95263
No. of atoms with KB's overlaping orbs in proc 0. Max # of overlaps:      43     203
New grid distribution:   1
           1       1:  162    1:   25    1:   15
           2       1:  162    1:   25   16:   30
           3       1:  162    1:   25   31:   45
           4       1:  162    1:   25   46:   60
           5       1:  162    1:   25   61:   75
           6       1:  162    1:   25   76:   90
           7       1:  162    1:   25   91:  105
           8       1:  162    1:   25  106:  120
           9       1:  162   26:   50    1:   15
          10       1:  162   26:   50   16:   30
          11       1:  162   26:   50   31:   45
          12       1:  162   26:   50   46:   60
          13       1:  162   26:   50   61:   75
          14       1:  162   26:   50   76:   90
          15       1:  162   26:   50   91:  105
          16       1:  162   26:   50  106:  120
          17       1:  162   51:   75    1:   15
          18       1:  162   51:   75   16:   30
          19       1:  162   51:   75   31:   45
          20       1:  162   51:   75   46:   60
          21       1:  162   51:   75   61:   75
          22       1:  162   51:   75   76:   90
          23       1:  162   51:   75   91:  105
          24       1:  162   51:   75  106:  120
          25       1:  162   76:  100    1:   15
          26       1:  162   76:  100   16:   30
          27       1:  162   76:  100   31:   45
          28       1:  162   76:  100   46:   60
          29       1:  162   76:  100   61:   75
          30       1:  162   76:  100   76:   90
          31       1:  162   76:  100   91:  105
          32       1:  162   76:  100  106:  120

InitMesh: MESH =   324 x   200 x   240 =    15552000
InitMesh: (bp) =   162 x   100 x   120 =     1944000
InitMesh: Mesh cutoff (required, used) =   340.000   345.179 Ry
ExtMesh (bp) on 0 =   266 x   129 x   119 =     4083366
New grid distribution:   2
           1       1:   86    1:   83    1:   29
           2     106:  123    1:   83   22:   32
           3       1:   86    1:   83   30:   36
           4     106:  136   82:  100    1:   13
           5       1:   76    1:   79   47:  120
           6       1:   88   84:  100    1:   28
           7       1:   81   80:  100   37:   45
           8     137:  162   82:  100   10:   21
           9      87:  105    1:   83    1:   28
[...]

siesta: Atomic forces (eV/Ang):
     1   -0.000155    0.000223   -0.000195
     2   -0.001380   -0.001425   -0.001506
     3   -0.000004   -0.000041    0.000007
     4   -0.000059   -0.000182   -0.000098
     5    0.000906   -0.002371    0.001992
     6    0.000082   -0.000007    0.000168
     7    0.000183   -0.000400    0.000429
     8    0.000714   -0.000016    0.001754
     9   -0.000031    0.000028    0.000027
    10   -0.000043   -0.000029    0.000062
    11   -0.000003   -0.000925   -0.000092
    12    0.000010   -0.000034    0.000007
    13    0.000544    0.000363    0.000011
    14    0.000007    0.000002   -0.000002
    15    0.000014   -0.000004   -0.000018
    16    0.000069   -0.000061    0.000154
    17    0.000011   -0.000024   -0.000023
    18   -0.000166    0.000006   -0.000012
    19   -0.000009    0.001008    0.000559
    20    0.000072    0.000134   -0.000002
    21   -0.000048   -0.000131   -0.000015
    22   -0.000126    0.000080    0.000002
    23   -0.004789    0.002849    0.000773
    24   -0.000002    0.000185   -0.000010
    25   -0.000280    0.000377   -0.000080
    26   -0.001243    0.000763    0.000808
    27    0.000043    0.000078    0.000108
    28   -0.000061   -0.000615   -0.000253
    29   -0.001090   -0.004992    0.000295
    30    0.000102   -0.000002    0.000014
    31   -0.000165   -0.000290    0.000093
    32   -0.001737    0.001598   -0.002085
    33   -0.000229    0.000175   -0.000059
    34   -0.000452    0.000086    0.000703
    35   -0.000033   -0.000006   -0.000005
    36   -0.000021    0.000035    0.000012
    37    0.000019    0.000097   -0.000063
    38    0.000084   -0.000317   -0.000753
    39   -0.000145   -0.000047   -0.000035
    40    0.000066   -0.000076   -0.000130
    41    0.000064   -0.000100   -0.000630
    42   -0.000451   -0.000164   -0.001172
    43    0.000009   -0.000012   -0.000015
    44    0.000004   -0.000030   -0.000015
    45   -0.001256    0.003128    0.000860
    46   -0.000047    0.000142    0.000219
    47   -0.000173    0.000207    0.000259
    48    0.000242    0.000703    0.001959
    49    0.000086    0.000026    0.000036
    50    0.000005    0.000044    0.000017
    51   -0.000198    0.000249    0.000081
    52   -0.000021    0.000014   -0.000004
    53   -0.000154    0.000506   -0.000322
    54    0.000022    0.000026   -0.000045
    55    0.000001    0.000005    0.000004
    56   -0.000013   -0.000075   -0.000189
----------------------------------------
   Tot   -0.011223    0.000760    0.003587
----------------------------------------
   Max    0.004992
   Res    0.000830    sqrt( Sum f_i^2 / 3N )
----------------------------------------
   Max    0.004992    constrained

Stress tensor Voigt[x,y,z,yz,xz,xy] (kbar):        0.45       -0.34       -0.86       -0.25        0.17        0.32
(Free)E + p*V (eV/cell)    -8040.3444
Target enthalpy (eV/cell)    -8041.9965

siesta: Stress tensor (static) (eV/Ang**3):
         0.000280    0.000197    0.000108
         0.000197   -0.000214   -0.000157
         0.000108   -0.000157   -0.000536

siesta: Pressure (static):          0.25119715  kBar

siesta: Stress tensor (total) (eV/Ang**3):
         0.000280    0.000197    0.000108
         0.000197   -0.000214   -0.000157
         0.000108   -0.000157   -0.000536

siesta: Pressure (total):          0.25119780  kBar

outcoor: Relaxed atomic coordinates (Ang):                  
   -5.90855435   17.91826666    1.82121992   1       1  O
   -4.87248024   17.34917020    3.15645971   2       2  Si
   -5.72665183   16.42943887    3.98693354   3       3  H
   -4.38567426   18.52800904    3.98418672   3       4  H
   -2.81903738   16.30323036    2.48609654   2       5  Si
   -1.96837734   16.43137246    3.72660478   3       6  H
   -2.77561800   14.59850185    2.07765394   1       7  O
   -3.20267677   14.03790806    0.46239396   2       8  Si
   -2.14793630   13.02268361    0.08630520   3       9  H
   -4.56302770   13.37204855    0.52034032   3      10  H
   -2.09220936   17.45741561    0.55709933   2      11  Si
   -2.59551808   18.87971498    0.51958990   3      12  H
   -3.24224479   15.98631149   -0.89944665   2      13  Si
   -4.65321720   16.51810220   -1.04019443   3      14  H
   -2.59478306   15.81899364   -2.25345597   3      15  H
   -0.35900283   17.39280309    0.43183374   1      16  O
    0.00588539   17.66510339   -0.44888280   3      17  H
   -7.42789422   18.70231477    3.81507256   1      18  O
   -7.11722183   19.10417015    2.19507579   4      19  P
   -6.26814516   20.44769752    2.07901702   1      20  O
   -8.58205315   18.96587173    1.55924611   1      21  O
  -12.61738204   16.42943294    4.85117559   1      22  O
  -12.02958148   17.15455326    6.42702437   2      23  Si
  -12.25857217   16.08016892    7.45220305   3      24  H
  -12.78316581   18.41949747    6.75480471   3      25  H
   -9.66016594   17.37467228    6.39838303   2      26  Si
   -9.21698719   18.26774579    7.53760503   3      27  H
   -9.30383563   15.73286556    6.92637081   1      28  O
   -8.71735548   14.58159861    5.72112767   2      29  Si
   -7.24773010   14.33336896    5.97846373   3      30  H
   -9.48484476   13.28580130    5.89186863   3      31  H
   -8.99444449   17.90669104    4.10205628   2      32  Si
  -10.11307937   18.79096293    3.63901642   3      33  H
   -9.03189513   15.58004547    3.58101153   2      34  Si
  -10.38187547   15.20778204    3.03149567   3      35  H
   -7.96091999   15.20664650    2.59731242   3      36  H
  -14.67926405   16.51666699    6.15722598   1      37  O
  -14.34059836   16.96076662    4.60776458   4      38  P
  -13.51325192   18.27208082    4.24461487   1      39  O
  -15.65417299   16.77788012    3.81046645   1      40  O
  -18.52202936   12.14959533    6.58653609   1      41  O
  -18.13056992   12.75889874    8.18294841   2      42  Si
  -18.25273900   11.62450621    9.18398014   3      43  H
  -19.14940352   13.81032835    8.57747505   3      44  H
  -16.03748500   13.97325303    8.43739143   2      45  Si
  -16.28542116   14.77033195    9.70318389   3      46  H
  -14.58797028   13.02407903    8.74711624   1      47  O
  -13.70522447   12.33216396    7.39141658   2      48  Si
  -12.25737634   12.67365053    7.62342884   3      49  H
  -13.86966632   10.83615288    7.45085022   3      50  H
  -15.81385353   15.08249348    6.33029752   2      51  Si
  -17.17854713   15.46971188    5.80481381   3      52  H
  -14.64312437   13.24424512    5.39859916   2      53  Si
  -13.60019659   13.72151777    4.41770839   3      54  H
  -15.57005954   12.23588327    4.76453188   3      55  H
  -19.44399359   11.79122194    6.51252920   3      56  H

siesta: Eigenvalues (eV):
ik =     1
  -27.4466  -27.1267  -26.4184  -26.3067  -25.6871  -25.3485  -25.0678  -25.0624  -24.9156  -24.9066
  -24.9066  -24.7849  -24.7082  -24.6560  -24.5444  -24.5161  -24.4481  -24.4332  -24.3959  -24.3948
  -24.2689  -24.2029  -23.9674  -23.8731  -23.6974  -23.4798  -15.6934  -15.6107  -15.4332  -15.3772
  -15.0558  -15.0224  -14.9249  -14.8906  -14.6909  -14.6687  -14.6109  -14.5953  -14.5463  -14.5276
  -14.4334  -14.4007  -14.0366  -14.0090  -13.7550  -13.7344  -13.5548  -13.5253  -13.1503  -13.1421
  -12.6905  -12.6040  -12.5553  -12.5250  -12.4082  -12.3933  -12.2723  -12.2128  -12.1535  -12.0411
  -12.0244  -11.9574  -11.7656  -11.7397  -11.7324  -11.7076  -11.7055  -11.5237  -11.4922  -11.4824
  -11.4198  -11.2610  -11.2304  -11.0873  -10.9203  -10.8679  -10.7610  -10.4676  -10.3937  -10.3320
  -10.2787  -10.2326  -10.2276  -10.2268  -10.2026  -10.1944  -10.1581  -10.1503  -10.1233  -10.0784
  -10.0582   -9.9654   -9.9609   -9.9167   -9.9162   -9.8268   -9.7831   -9.7589   -9.6817   -9.5945
   -9.5497   -9.5052   -9.5037   -9.4439   -9.4069   -9.3454   -9.3352   -9.2612   -9.2357   -9.1869
   -9.1792   -9.1170   -9.0472   -8.9770   -8.9596   -8.9482   -8.9397   -8.9301   -8.9033   -8.8562
   -8.8533   -8.8067   -8.7747   -8.7543   -8.6512   -8.6395   -8.5405   -8.5152   -8.4095   -8.3571
   -8.3509   -8.3253   -8.2504   -8.2494   -8.2011   -8.1910   -8.1664   -8.1459   -8.1340   -8.0726
   -8.0408   -7.8285   -7.7993   -7.7433   -7.7349   -7.7179   -7.6962   -7.6843   -7.6716   -7.6578
   -7.6150   -7.6080   -7.5876   -7.5239   -7.4353   -7.4351   -7.4166   -7.4104   -7.4030   -7.3132
   -7.1480   -7.1357   -7.1257   -7.0533   -7.0397   -7.0117   -7.0097   -6.8772   -6.7051   -6.6457
   -6.6163   -6.5971   -6.5546   -6.5166   -6.4025   -5.9530   -3.3079   -3.2566   -2.8979   -2.8829
   -2.7500   -2.7147   -2.5743   -2.5563   -2.4064   -2.3926   -2.3487   -2.3310   -2.2322   -2.2154
   -1.9148   -1.8917   -1.6978   -1.6841   -1.6507   -1.6244   -1.5171   -1.4949   -1.4933   -1.4797
   -1.4780   -1.4365   -1.1922   -1.1666   -1.1011   -1.0782   -1.0665   -1.0519   -0.9885   -0.9755
   -0.8061   -0.7694   -0.6984   -0.6870   -0.5281   -0.5152   -0.3917   -0.3815   -0.3773   -0.3654
   -0.2123   -0.1814   -0.1344   -0.1082   -0.1028   -0.0840    0.0163    0.0427    0.0679    0.0851
    0.0863    0.1367    0.1625    0.1927    0.3136    0.3360    0.3419    0.3563    0.3654    0.3921
    0.4503    0.4598    0.5273    0.5382    0.5619    0.5706    0.6539    0.6690    0.7900    0.8129
    0.8425    0.8525    0.9093    0.9205    1.0333    1.0407    1.1284    1.1449    1.1687    1.1826
    1.2873    1.2998    1.3014    1.3117    1.3316    1.3397    1.4110    1.4600    1.4873    1.5067
    1.5176    1.5370    1.5813    1.5948    1.6650    1.7285    1.7751    1.7959    1.9352    1.9678
    2.0135    2.0269    2.1194    2.1511    2.3731    2.3882    2.3968    2.4098    2.5778    2.5941
    2.6987    2.7501    2.7532    2.7681    2.8740    2.9181    2.9961    3.0029    3.1162    3.1373
    3.2336    3.2966    3.3561    3.3809    3.4006    3.4222    3.4663    3.4793    3.5005    3.5490
    3.5978    3.6334    3.6421    3.6640    3.7254    3.7489    3.8560    3.8703    3.9685    3.9938
    4.2077    4.2208    4.3453    4.3735    4.5230    4.5382    4.5800    4.5927    4.6529    4.6587
    4.7267    4.7391    4.7537    4.7602    4.8679    4.8746    5.1096    5.1304    5.1616    5.1762
    5.2121    5.2191    5.2557    5.2648    5.3907    5.4001    5.4810    5.4891    5.4991    5.5076
    5.5712    5.5849    5.7409    5.7473    5.7968    5.8100    5.9002    5.9141    6.0616    6.0808
    6.1014    6.1224    6.2288    6.2328    6.2599    6.2902    6.3205    6.3361    6.4158    6.4328
    6.6606    6.6680    6.7446    6.7498    6.7884    6.8066    6.8936    6.9043    6.9231    6.9354
    6.9728    6.9843    7.1026    7.1272    7.2745    7.2888    7.4154    7.4256    7.5404    7.5581
    7.6626    7.6856    7.7916    7.8005    7.8520    7.8758    7.8985    7.9225    8.0258    8.0805
    8.1552    8.1813    8.4115    8.4349    8.5287    8.5482    8.5746    8.5930    8.7477    8.7636
    8.9029    8.9154    9.0085    9.0518    9.1208    9.1549    9.1569    9.1739    9.3282    9.3406
    9.3588    9.3789    9.4908    9.5017    9.5730    9.5902    9.6287    9.6452    9.7694    9.7768
    9.7916    9.8098    9.8804    9.8941    9.9353    9.9498   10.0250   10.0428   10.1646   10.1850
   10.3450   10.3511   10.5122   10.5379   10.5825   10.6071   10.6602   10.6817   10.7260   10.7391
   10.8577   10.8635   10.9131   10.9302   10.9498   11.0030   11.1063   11.1346   11.1873   11.2040
   11.2268   11.2528   11.3694   11.3896   11.4520   11.4602   11.5682   11.5964   11.6790   11.6902
   11.8429   11.8661   12.0035   12.0201   12.0690   12.0861   12.1662   12.1806   12.2732   12.2911
   12.3658   12.3900   12.4741   12.4944   12.5015   12.5203   12.6291   12.6676   12.9396   12.9539
   12.9643   12.9785   13.0765   13.0920   13.1575   13.1723   13.2882   13.3076   13.5284   13.5474
   13.6204   13.6419   13.7063   13.7195   13.9987   14.0109   14.0581   14.0723   14.2590   14.2708
   14.3138   14.3229   14.4530   14.4715   14.5469   14.5617   14.6480   14.6584   14.7560   14.7632
   14.7906   14.8058   14.8468   14.8660   14.9926   15.0143   15.0408   15.0676   15.1159   15.1383
   15.2210   15.2378   15.2974   15.3098   15.3273   15.3458   15.4061   15.4210   15.5465   15.5602
   15.6342   15.6476   15.6799   15.6915   15.7878   15.7988   15.9945   16.0092   16.0744   16.1114
   16.1686   16.2081   16.5292   16.5502   16.5630   16.5852   16.5972   16.6108   16.7033   16.7126
   16.8875   16.9153   17.0430   17.0527   17.1357   17.1565   17.1650   17.1888   17.3263   17.3478
   17.3551   17.3736   17.4324   17.4479   17.5804   17.5937   17.8310   17.8550   18.0572   18.0789
   18.1304   18.1420   18.2804   18.3029   18.4644   18.4799   18.5412   18.5587   18.8243   18.8330
   18.8913   18.9070   18.9217   18.9450   19.1350   19.1477   19.3144   19.3269   19.3822   19.3958
   19.4235   19.4343   19.5288   19.5576   19.6098   19.6282   19.7277   19.7402   19.8407   19.8465
   19.9263   19.9367   20.1827   20.2002   20.3600   20.3747   20.5208   20.5390   20.7444   20.7577
   20.8053   20.8134   20.9089   20.9211   21.0462   21.0592   21.0969   21.1149   21.3593   21.3734
   21.4506   21.4692   21.6032   21.6158   21.7187   21.7268   21.8159   21.8327   21.8663   21.8839
   21.9842   21.9975   22.1199   22.1308   22.2245   22.2469   22.3166   22.3318   22.3864   22.3958
   22.4232   22.4332   22.6127   22.6231   22.7332   22.7601   22.9013   22.9300   22.9508   22.9617
   23.1097   23.1300   23.2368   23.2576   23.4559   23.4868   23.5962   23.6207   23.7402   23.7558
   23.7753   23.7926   23.9538   23.9789   24.2135   24.2225   24.3351   24.3448   24.4024   24.4147
   24.5458   24.5620   24.7045   24.7216   24.7510   24.7620   24.8499   24.8755   24.9071   24.9173
   24.9633   24.9805   25.1755   25.1964   25.2669   25.2714   25.2803   25.2894   25.6108   25.6283
   25.9485   25.9718   26.0003   26.0194   26.2122   26.2386   26.4144   26.4418   26.6336   26.6615
   26.8081   26.8208   26.9473   26.9586   27.2276   27.2558   27.3023   27.3267   27.6244   27.6371
   27.7152   27.7382   27.8822   27.9084   28.2640   28.2873   28.6933   28.7131   28.9608   29.0104
   29.0157   29.0521   29.3622   29.3813   29.4762   29.5026   29.9988   30.1406   30.1874   30.2040
   30.5161   30.5954   30.6991   30.8871   30.9144   31.0687   31.0753   31.2012   31.3524   31.4561
   31.5236   31.5922   31.8092   32.0402   32.3368   32.4029   32.5067   32.5334   32.5990   32.7876
   32.9579   33.1102   33.2582   33.3502   33.4519   33.5892   33.7056   33.7719   33.8152   33.9156
   34.0332   34.2088   34.2337   34.2829   34.4371   34.5313   35.2778   35.5084   35.8085   35.8956
   35.9034   36.0125   36.1524   36.1899   36.2395   36.2510   36.2627   36.5883   36.5916   36.7418
   36.7789   36.9223   37.1930   37.3053   37.9211   38.0112   38.2278   38.2986   38.3883   38.3979
   38.5573   38.6414   38.6622   38.6839   38.7256   38.8482   39.3647   39.4442   39.4500   39.5304
   39.7293   39.7409   39.8376   40.1241   40.1256   40.1937   40.3817   40.6514   40.7074   40.8207
   40.9509   41.0459   42.0175   42.2061   42.3094   42.4413   42.4483   42.5836   42.9937   43.4370
   44.0880   44.3534   45.3314   45.3800   45.4402   45.5912   45.9366   46.1286   46.2640   46.3704
   46.5168   46.6112   46.8780   47.0813   47.4217   47.4409   47.5066   47.5413   47.5901   47.6211
   47.6598   47.6892   47.7658   47.8143   48.1275   48.1609   48.3498   48.3779   48.6896   48.7613
   48.8613   48.9569   48.9873   49.0485   49.0799   49.2172   49.3923   49.4115   49.4405   49.4631
   49.6000   49.6700   49.9483   49.9785   50.1875   50.2240   50.3384   50.3881   50.4493   50.5239
   50.7868   50.8875   51.1617   51.2198   51.2435   51.2689   51.3758   51.4577   51.9805   52.0382
   52.3568   52.4043   52.5335   52.5834   52.6884   52.7307   53.0460   53.0992   53.1114   53.2321
   53.2757   53.3548   53.6837   53.7920   53.9284   53.9845   54.1402   54.2361   54.5783   54.6062
   54.6726   54.7344   55.2571   55.2973   55.4276   55.4577   55.7765   55.9353   56.1655   56.2038
   56.3145   56.3881   56.4302   56.4723   56.6892   56.7335   56.8845   56.9318   57.2322   57.3108
   57.4597   57.5632   57.8623   57.9553   58.1716   58.2231   58.3029   58.3695   58.5086   58.5789
   58.6884   58.7440   59.0417   59.1446   59.3531   59.3710   59.6094   59.6404   60.0260   60.1365
   60.4078   60.4346   60.4776   60.4868   60.5636   60.5892   61.1583   61.2183   61.4063   61.4303
   61.6288   61.6514   61.7292   61.7615   61.9420   62.0157   62.2657   62.3072   62.6962   62.8453
   62.8540   62.8968   63.2557   63.4398   63.9503   64.0136   64.9616   65.0409   65.6895   65.7111
   66.0179   66.0597   66.7101   66.8276   67.4983   67.7030   68.2181   68.8558   69.0955   69.2420
   69.5886   70.0343   71.2544   71.3988   73.2479   73.3785   78.6998   78.8617   79.3229   79.3498
   80.5267   80.5343   81.2646   81.3124   82.3763   82.4057   85.5337   85.5694   85.7809   85.8287
   90.6694   90.6747   90.9140   90.9154   93.0839   93.2475   93.4333   93.6136   93.8681   93.9464
   95.1498   95.3432   95.4563   95.5981   97.0264   97.0855   97.4556   97.5753   98.1501   98.2620
  100.1111  100.1121  101.4051  101.4178  101.6614  102.0375  109.2002  109.3992  111.8045  111.9863
siesta: Fermi energy =      -6.455514 eV

siesta: Program's energy decomposition (eV):
siesta: Ebs     =     -2145.381470
siesta: Eions   =      8062.213954
siesta: Ena     =       479.284456
siesta: Ekin    =      5905.681718
siesta: Enl     =     -4310.852862
siesta: Eso     =        -0.009550
siesta: Edftu   =         0.000000
siesta: DEna    =       -16.289485
siesta: DUscf   =        21.478186
siesta: DUext   =         0.000000
siesta: Exc     =     -2059.054421
siesta: eta*DQ  =         0.000000
siesta: Emadel  =         0.000000
siesta: Emeta   =         0.000000
siesta: Emolmec =         0.000000
siesta: Ekinion =         0.000006
siesta: Eharris =     -8041.975905
siesta: Etot    =     -8041.975905
siesta: FreeEng =     -8041.996534

siesta: Final energy (eV):
siesta:  Band Struct. =   -2145.381470
siesta:       Kinetic =    5905.681718
siesta:       Hartree =   19659.978523
siesta:       Edftu   =       0.000000
siesta:       Eso     =      -0.009550
siesta:    Ext. field =       0.000000
siesta:   Exch.-corr. =   -2059.054421
siesta:  Ion-electron =  -44700.116642
siesta:       Ion-ion =   13151.544460
siesta:       Ekinion =       0.000006
siesta:         Total =   -8041.975905
siesta:         Fermi =      -6.455514

siesta: Stress tensor (static) (eV/Ang**3):
siesta:     0.000280    0.000197    0.000108
siesta:     0.000197   -0.000214   -0.000157
siesta:     0.000108   -0.000157   -0.000536

siesta: Cell volume =      10537.403706 Ang**3

siesta: Pressure (static):
siesta:                Solid            Molecule  Units
siesta:           0.00000171          0.00000170  Ry/Bohr**3
siesta:           0.00015678          0.00015569  eV/Ang**3
siesta:           0.25119715          0.24944922  kBar
(Free)E+ p_basis*V_orbitals  =       -8005.820950
(Free)Eharris+ p_basis*V_orbitals  =       -8005.820951
     spin moment: S , {S} =    1.95261   0.00305  -0.00310   1.95260

siesta: Electric dipole (a.u.)  =    0.178891   -2.413548    0.776035
siesta: Electric dipole (Debye) =    0.454697   -6.134631    1.972485

cite: Please see "desoxy1-3.bib" for an exhaustive BiBTeX file.
cite: Please clearly indicate Siesta version in published work: v4.1.5-1-g384057250
cite: This calculation has made use of the following articles
cite: which are encouraged to be cited in a published work.
        Primary SIESTA paper
          DOI: www.doi.org/10.1088/0953-8984/14/11/302
        Spin-orbit coupling (on-site approximation)
          DOI: www.doi.org/10.1088/0953-8984/19/19/489001


WARNING: alloc-realloc-dealloc name mismatch
         Name: atomlist isa
         Size:              -224. Bytes
         Node:     0
         Subsequent mismatches will not be reported
>> End of run:  17-OCT-2023  20:28:14
Job completed
