<?xml version="1.0" encoding="UTF-8" ?>
<psml version="1.1" energy_unit="hartree" length_unit="bohr"
 uuid="781c9b20-10f4-11ef-7dd7-c2d3b517b8fb"
 xmlns="http://esl.cecam.org/PSML/ns/1.1">
<provenance creator="ATM4.2.7" date="13-MAY-24">
<annotation action="semilocal-pseudopotential-generation" />
<input-file name="INP">
<![CDATA[   pg C
        tm2      2.0
   C    vlr
      0.00
    1    4
    2    0      1.00      1.00
    2    1      1.00      1.00
    3    2      0.00      0.00
    4    3      0.00      0.00
      0.76      1.16      1.94      1.50      0.00      0.00
]]>
</input-file>
</provenance>
<pseudo-atom-spec atomic-label="C" atomic-number="6" z-pseudo="4"
 flavor="Troullier-Martins" relativity="dirac" spin-dft="no"
 core-corrections="no">
<annotation pseudo-energy="-5.43833198984" />
<exchange-correlation>
<annotation atom-xc-code="vl" siesta-xc-type="VDW" siesta-xc-authors="LMKLL" />
<libxc-info number-of-functionals="2">
<functional name="XC_GGA_X_OPTB88_VDW" type="XC_EXCHANGE" id="139" />
<functional name="XC_NOT_IMPL" type="XC_EXCHANGE_CORRELATION" id="-1" />
</libxc-info>
</exchange-correlation>
<valence-configuration total-valence-charge="4">
<shell n="2" l="s" occupation="2" />
<shell n="2" l="p" occupation="2" />
</valence-configuration>
</pseudo-atom-spec>
<grid npts="376">
<annotation type="sampled-log-atom"
 recipe="r(i:1..N) = a*(exp(b*(i-1))-1); resampled"
 recipe-cont="a: scale; b: step" scale="0.413125362778E-03"
 step="0.125000000000E-01" delta="0.500000000000E-02" rmax="20" />
<grid-data>
  0.000000000000E+00  5.011754802073E-03  1.010916406402E-02  1.528428587985E-02
  2.051294588609E-02  2.579306902283E-02  3.080490455088E-02  3.585705078143E-02
  4.120333662099E-02  4.674450415624E-02  5.235966953373E-02  5.790983282241E-02
  6.324301618788E-02  6.906387791697E-02  7.447503532343E-02  8.030763612978E-02
  8.551367796568E-02  9.105548065289E-02  9.695469890584E-02  1.032343840481E-01
  1.085485054922E-01  1.141350877691E-01  1.200081002442E-01  1.261822285081E-01
  1.326729110971E-01  1.377583943340E-01  1.430382040414E-01  1.485197658220E-01
  1.542107890253E-01  1.601192775907E-01  1.662535413039E-01  1.726222074842E-01
  1.792342331180E-01  1.860989174560E-01  1.932259150919E-01  2.006252495407E-01
  2.057145602314E-01  2.109327074357E-01  2.162829526653E-01  2.217686399978E-01
  2.273931981662E-01  2.331601427026E-01  2.390730781349E-01  2.451357002404E-01
  2.513517983552E-01  2.577252577429E-01  2.642600620232E-01  2.709602956615E-01
  2.778301465218E-01  2.848739084847E-01  2.920959841306E-01  2.995008874919E-01
  3.070932468743E-01  3.148778077495E-01  3.228594357215E-01  3.310431195676E-01
  3.394339743566E-01  3.480372446459E-01  3.568583077594E-01  3.659026771488E-01
  3.751760058394E-01  3.846840899635E-01  3.944328723831E-01  4.044284464046E-01
  4.095207264967E-01  4.146770595872E-01  4.198982513636E-01  4.251851176477E-01
  4.305384845232E-01  4.359591884645E-01  4.414480764677E-01  4.470060061826E-01
  4.526338460471E-01  4.583324754226E-01  4.641027847315E-01  4.699456755965E-01
  4.758620609811E-01  4.818528653325E-01  4.879190247262E-01  4.940614870118E-01
  5.002812119616E-01  5.065791714203E-01  5.129563494569E-01  5.194137425184E-01
  5.259523595855E-01  5.325732223306E-01  5.392773652769E-01  5.460658359603E-01
  5.529396950933E-01  5.599000167303E-01  5.669478884357E-01  5.740844114538E-01
  5.813107008809E-01  5.886278858393E-01  5.960371096542E-01  6.035395300317E-01
  6.111363192404E-01  6.188286642941E-01  6.266177671372E-01  6.345048448330E-01
  6.424911297534E-01  6.505778697716E-01  6.587663284573E-01  6.670577852738E-01
  6.754535357780E-01  6.839548918231E-01  6.925631817632E-01  7.012797506612E-01
  7.101059604987E-01  7.190431903889E-01  7.280928367922E-01  7.372563137342E-01
  7.465350530269E-01  7.559305044921E-01  7.654441361883E-01  7.750774346398E-01
  7.848319050690E-01  7.947090716318E-01  8.047104776556E-01  8.148376858804E-01
  8.250922787031E-01  8.354758584246E-01  8.459900475006E-01  8.566364887943E-01
  8.674168458339E-01  8.783328030721E-01  8.893860661494E-01  9.005783621608E-01
  9.119114399251E-01  9.233870702589E-01  9.350070462527E-01  9.467731835515E-01
  9.586873206382E-01  9.707513191208E-01  9.829670640237E-01  9.953364640819E-01
  1.007861452039E+00  1.020543984951E+00  1.033386044488E+00  1.046389637249E+00
  1.059556795071E+00  1.072889575350E+00  1.086390061359E+00  1.100060362577E+00
  1.113902615017E+00  1.127918981558E+00  1.142111652287E+00  1.156482844837E+00
  1.171034804735E+00  1.185769805757E+00  1.200690150274E+00  1.215798169622E+00
  1.231096224459E+00  1.246586705138E+00  1.262272032077E+00  1.278154656141E+00
  1.294237059022E+00  1.310521753628E+00  1.327011284476E+00  1.343708228089E+00
  1.360615193398E+00  1.377734822151E+00  1.395069789325E+00  1.412622803543E+00
  1.430396607500E+00  1.448393978389E+00  1.466617728335E+00  1.485070704837E+00
  1.503755791210E+00  1.522675907036E+00  1.541834008622E+00  1.561233089460E+00
  1.580876180697E+00  1.600766351605E+00  1.620906710064E+00  1.641300403046E+00
  1.661950617106E+00  1.682860578884E+00  1.704033555602E+00  1.725472855583E+00
  1.747181828758E+00  1.769163867202E+00  1.791422405650E+00  1.813960922046E+00
  1.836782938077E+00  1.859892019732E+00  1.883291777850E+00  1.906985868692E+00
  1.930977994508E+00  1.955271904115E+00  1.979871393487E+00  2.004780306344E+00
  2.030002534754E+00  2.055542019743E+00  2.081402751905E+00  2.107588772034E+00
  2.134104171748E+00  2.160953094132E+00  2.188139734386E+00  2.215668340476E+00
  2.243543213804E+00  2.271768709876E+00  2.300349238982E+00  2.329289266888E+00
  2.358593315533E+00  2.388265963734E+00  2.418311847902E+00  2.448735662769E+00
  2.479542162116E+00  2.510736159523E+00  2.542322529114E+00  2.574306206324E+00
  2.606692188669E+00  2.639485536522E+00  2.672691373913E+00  2.706314889320E+00
  2.740361336487E+00  2.774836035239E+00  2.809744372319E+00  2.845091802225E+00
  2.880883848065E+00  2.917126102420E+00  2.953824228214E+00  2.990983959606E+00
  3.028611102878E+00  3.066711537348E+00  3.105291216287E+00  3.144356167848E+00
  3.183912496009E+00  3.223966381527E+00  3.264524082903E+00  3.305591937361E+00
  3.347176361835E+00  3.389283853978E+00  3.431920993170E+00  3.475094441551E+00
  3.518810945061E+00  3.563077334491E+00  3.607900526556E+00  3.653287524970E+00
  3.699245421544E+00  3.745781397293E+00  3.792902723558E+00  3.840616763142E+00
  3.888930971461E+00  3.937852897708E+00  3.987390186033E+00  4.037550576739E+00
  4.088341907489E+00  4.139772114531E+00  4.191849233940E+00  4.244581402872E+00
  4.297976860836E+00  4.352043950980E+00  4.406791121398E+00  4.462226926445E+00
  4.518360028080E+00  4.575199197214E+00  4.632753315082E+00  4.691031374633E+00
  4.750042481932E+00  4.809795857584E+00  4.870300838176E+00  4.931566877735E+00
  4.993603549203E+00  5.056420545938E+00  5.120027683221E+00  5.184434899798E+00
  5.249652259429E+00  5.315689952456E+00  5.382558297406E+00  5.450267742592E+00
  5.518828867753E+00  5.588252385704E+00  5.658549144012E+00  5.729730126687E+00
  5.801806455904E+00  5.874789393735E+00  5.948690343913E+00  6.023520853612E+00
  6.099292615250E+00  6.176017468321E+00  6.253707401237E+00  6.332374553211E+00
  6.412031216143E+00  6.492689836549E+00  6.574363017504E+00  6.657063520608E+00
  6.740804267982E+00  6.825598344289E+00  6.911458998776E+00  6.998399647344E+00
  7.086433874648E+00  7.175575436213E+00  7.265838260591E+00  7.357236451531E+00
  7.449784290187E+00  7.543496237347E+00  7.638386935693E+00  7.734471212089E+00
  7.831764079900E+00  7.930280741335E+00  8.030036589820E+00  8.131047212412E+00
  8.233328392226E+00  8.336896110903E+00  8.441766551110E+00  8.547956099068E+00
  8.655481347109E+00  8.764359096272E+00  8.874606358927E+00  8.986240361432E+00
  9.099278546828E+00  9.213738577561E+00  9.329638338245E+00  9.446995938451E+00
  9.565829715545E+00  9.686158237545E+00  9.808000306028E+00  9.931374959066E+00
  1.005630147420E+01  1.018279937145E+01  1.031088841637E+01  1.044058862313E+01
  1.057192025766E+01  1.070490384079E+01  1.083956015147E+01  1.097591023004E+01
  1.111397538146E+01  1.125377717869E+01  1.139533746606E+01  1.153867836265E+01
  1.168382226575E+01  1.183079185441E+01  1.197961009291E+01  1.213030023442E+01
  1.228288582457E+01  1.243739070517E+01  1.259383901793E+01  1.275225520820E+01
  1.291266402885E+01  1.307509054407E+01  1.323956013335E+01  1.340609849538E+01
  1.357473165213E+01  1.374548595287E+01  1.391838807831E+01  1.409346504475E+01
  1.427074420834E+01  1.445025326929E+01  1.463202027626E+01  1.481607363073E+01
  1.500244209139E+01  1.519115477871E+01  1.538224117941E+01  1.557573115115E+01
  1.577165492712E+01  1.597004312082E+01  1.617092673079E+01  1.637433714552E+01
  1.658030614829E+01  1.678886592219E+01  1.700004905509E+01  1.721388854479E+01
  1.743041780416E+01  1.764967066632E+01  1.787168138998E+01  1.809648466477E+01
  1.832411561666E+01  1.855460981344E+01  1.878800327032E+01  1.902433245547E+01
  1.926363429584E+01  1.950594618280E+01  1.975130597809E+01  1.999975201968E+01
</grid-data>
</grid>
<valence-charge total-charge="4" is-unscreening-charge="yes"
 rescaled-to-z-pseudo="no">
<radfunc>
<data>
  2.116109151696E+00  2.116206957335E+00  2.116506851583E+00  2.117017335588E+00
  2.117742625908E+00  2.118686929986E+00  2.119778049514E+00  2.121067419758E+00
  2.122635790160E+00  2.124478525887E+00  2.126566497942E+00  2.128843192098E+00
  2.131224965830E+00  2.134035259171E+00  2.136838824526E+00  2.140059809511E+00
  2.143103087266E+00  2.146510586954E+00  2.150320756942E+00  2.154575052626E+00
  2.158328092428E+00  2.162418109032E+00  2.166870753176E+00  2.171713119187E+00
  2.176973858939E+00  2.181212173513E+00  2.185716394499E+00  2.190500738934E+00
  2.195580208318E+00  2.200970700927E+00  2.206689145296E+00  2.212753654491E+00
  2.219183698605E+00  2.226000289837E+00  2.233226170358E+00  2.240885987834E+00
  2.246246704260E+00  2.251820535511E+00  2.257616337011E+00  2.263643374698E+00
  2.269911299311E+00  2.276430102930E+00  2.283210054235E+00  2.290261608882E+00
  2.297595291360E+00  2.305221544995E+00  2.313150547247E+00  2.321391988306E+00
  2.329954812253E+00  2.338846921747E+00  2.348074849496E+00  2.357643402569E+00
  2.367555289030E+00  2.377810740398E+00  2.388407147942E+00  2.399338735714E+00
  2.410596298329E+00  2.422167036415E+00  2.434034527080E+00  2.446178869991E+00
  2.458577051113E+00  2.471203564801E+00  2.484031329773E+00  2.497032923998E+00
  2.503590622290E+00  2.510182146166E+00  2.516804718111E+00  2.523455885112E+00
  2.530133589487E+00  2.536836240990E+00  2.543562788651E+00  2.550312790560E+00
  2.557086479342E+00  2.563884820702E+00  2.570709561920E+00  2.577563266670E+00
  2.584449332005E+00  2.591371982753E+00  2.598336237985E+00  2.605347843611E+00
  2.612413164598E+00  2.619539029781E+00  2.626732521839E+00  2.634000704756E+00
  2.641350281117E+00  2.648787171882E+00  2.656316012132E+00  2.663939557603E+00
  2.671657998993E+00  2.679468184036E+00  2.687362751445E+00  2.695329186197E+00
  2.703348812391E+00  2.711395748104E+00  2.719435856346E+00  2.727425737209E+00
  2.735311818187E+00  2.743029611918E+00  2.750503222278E+00  2.757645189500E+00
  2.764356771190E+00  2.770528756563E+00  2.776042903531E+00  2.780774069669E+00
  2.784593075900E+00  2.787370293325E+00  2.788979876916E+00  2.789304483397E+00
  2.788240204071E+00  2.785701316864E+00  2.781624316208E+00  2.775970514899E+00
  2.768726327487E+00  2.759900136024E+00  2.749514804174E+00  2.737597920547E+00
  2.724177500061E+00  2.709284051912E+00  2.692949089808E+00  2.675205411966E+00
  2.656087011958E+00  2.635628901226E+00  2.613866955472E+00  2.590837743446E+00
  2.566578364533E+00  2.541126301934E+00  2.514519297661E+00  2.486795254011E+00
  2.457992164671E+00  2.428148078021E+00  2.397301094362E+00  2.365489401480E+00
  2.332751338034E+00  2.299125476258E+00  2.264650774132E+00  2.229366744936E+00
  2.193313645898E+00  2.156532707070E+00  2.119066370796E+00  2.080958549968E+00
  2.042254881300E+00  2.003002957066E+00  1.963252516801E+00  1.923055566276E+00
  1.882466388458E+00  1.841541401446E+00  1.800338809079E+00  1.758917979648E+00
  1.717338510832E+00  1.675659187825E+00  1.633937452795E+00  1.592229398562E+00
  1.550589509982E+00  1.509070587000E+00  1.467723630130E+00  1.426597753128E+00
  1.385740103193E+00  1.345195794937E+00  1.305007851770E+00  1.265217154227E+00
  1.225862416153E+00  1.186980179550E+00  1.148604797538E+00  1.110768426894E+00
  1.073501033134E+00  1.036830404950E+00  1.000782164249E+00  9.653797822653E-01
  9.306446075635E-01  8.965958943707E-01  8.632508375725E-01  8.306246120123E-01
  7.987304161681E-01  7.675795174108E-01  7.371812966753E-01  7.075433153391E-01
  6.786714029520E-01  6.505697185166E-01  6.232408117129E-01  5.966856908636E-01
  5.709038859864E-01  5.458935157666E-01  5.216513532905E-01  4.981728934347E-01
  4.754524205263E-01  4.534830769577E-01  4.322569299508E-01  4.117650354079E-01
  3.919975199208E-01  3.729436735279E-01  3.545920139783E-01  3.369303522874E-01
  3.199458582140E-01  3.036251200541E-01  2.879542044253E-01  2.729187154719E-01
  2.585038480977E-01  2.446944468319E-01  2.314750608410E-01  2.188299866803E-01
  2.067433263705E-01  1.951990468543E-01  1.841810288652E-01  1.736731100806E-01
  1.636591242318E-01  1.541229384125E-01  1.450484879834E-01  1.364198093213E-01
  1.282210707308E-01  1.204366019093E-01  1.130509196213E-01  1.060487553500E-01
  9.941507736662E-02  9.313510959490E-02  8.719435504612E-02  8.157861508585E-02
  7.627400442365E-02  7.126696370199E-02  6.654427035429E-02  6.209304768258E-02
  5.790077248276E-02  5.395528132481E-02  5.024477549588E-02  4.675782457583E-02
  4.348336880993E-02  4.041072034857E-02  3.752956324484E-02  3.482995241085E-02
  3.230231165888E-02  2.993743063197E-02  2.772646106154E-02  2.566091217199E-02
  2.373264521370E-02  2.193386747348E-02  2.025712572581E-02  1.869529916398E-02
  1.724159178108E-02  1.588952443862E-02  1.463292664296E-02  1.346592792577E-02
  1.238294900258E-02  1.137869276817E-02  1.044813513400E-02  9.586515811171E-03
  8.789328981046E-03  8.052313909258E-03  7.371445693714E-03  6.742925937641E-03
  6.163173397130E-03  5.628814899819E-03  5.136676327857E-03  4.683773718395E-03
  4.267304570923E-03  3.884639334062E-03  3.533313056399E-03  3.211017171713E-03
  2.915591593757E-03  2.645017252815E-03  2.397408112079E-03  2.171004486484E-03
  1.964166634380E-03  1.775367312042E-03  1.603184969804E-03  1.446297583374E-03
  1.303476526195E-03  1.173581343162E-03  1.055553635958E-03  9.484123949971E-04
  8.512492128068E-04  7.632234142185E-04  6.835574808755E-04  6.115329611889E-04
  5.464864138112E-04  4.878056237716E-04  4.349260905241E-04  3.873279030620E-04
  3.445326792145E-04  3.061004765174E-04  2.716270452415E-04  2.407415063709E-04
  2.131040086117E-04  1.884033178118E-04  1.663547051713E-04  1.466981472709E-04
  1.291964641571E-04  1.136334524122E-04  9.981236123797E-05  8.755441464474E-05
  7.669731053256E-05  6.709392017086E-05  5.861107837888E-05  5.112838974105E-05
  4.453716287954E-05  3.873942079050E-05  3.364695310351E-05  2.918046216395E-05
  2.526876608873E-05  2.184805585738E-05  1.886121875647E-05  1.625721180411E-05
  1.399048448955E-05  1.202045052359E-05  1.031100254040E-05  8.830066594676E-06
  7.549195004828E-06  6.443196451067E-06  5.489799994972E-06  4.669348974491E-06
  3.964522950961E-06  3.360085648132E-06  2.842656938907E-06  2.400507098217E-06
  2.023371352987E-06  1.702282932569E-06  1.429423072428E-06  1.197986516551E-06
  1.002061139717E-06  8.365204055920E-07  6.969274714320E-07  5.794498401516E-07
  4.807835460174E-07  3.980859404957E-07  3.289162212887E-07  2.711829176836E-07
  2.230976152516E-07  1.831342597321E-07  1.499934485699E-07  1.225711563307E-07
  9.993142351670E-08  8.128250393340E-08  6.595621750443E-08  5.338983457819E-08
  4.311068183517E-08  3.472243844593E-08  2.789422534197E-08  2.234813952132E-08
  1.785770498096E-08  1.422722657240E-08  1.130290630001E-08  8.956611584566E-09
  7.079366219539E-09  5.581199905563E-09  4.388627447736E-09  3.441779194007E-09
  2.692002745776E-09  2.099863567381E-09  1.633482390405E-09  1.267156253978E-09
  9.802177947916E-10  7.560941369312E-10  5.815325550139E-10  4.459651047845E-10
  3.409887323622E-10  2.599410751089E-10  1.975553324413E-10  1.496802838507E-10
  1.130538260012E-10  8.512034586724E-11  6.388389076125E-11  4.779048119968E-11
  3.563407600668E-11  2.648167325617E-11  1.961384379861E-11  1.447767064019E-11
  1.064962845139E-11  7.806401157456E-12  5.702017499884E-12  4.149997991543E-12
  3.009463177316E-12  2.174362199711E-12  1.565150508922E-12  1.122383019159E-12
  8.017998640328E-13  5.705709643041E-13  4.044369068718E-13  2.855404754231E-13
</data>
</radfunc>
</valence-charge>
<semilocal-potentials set="scalar_relativistic">
<slps n="2" l="s" rc="0.755930504492" flavor="Troullier-Martins">
<radfunc>
<data>
 -1.269790375729E+01 -1.269787166443E+01 -1.269776804440E+01 -1.269755011127E+01
 -1.269714636305E+01 -1.269645325486E+01 -1.269541520830E+01 -1.269385937677E+01
 -1.269148418910E+01 -1.268801335434E+01 -1.268318772578E+01 -1.267683811761E+01
 -1.266897242365E+01 -1.265807062548E+01 -1.264543159602E+01 -1.262871593436E+01
 -1.261074504120E+01 -1.258808646509E+01 -1.255954163032E+01 -1.252361890950E+01
 -1.248833906458E+01 -1.244601653303E+01 -1.239529825085E+01 -1.233458982675E+01
 -1.226201894684E+01 -1.219850179009E+01 -1.212603292104E+01 -1.204343378433E+01
 -1.194939182408E+01 -1.184245093264E+01 -1.172100292564E+01 -1.158328070325E+01
 -1.142735392907E+01 -1.125112825272E+01 -1.105234931881E+01 -1.082861303692E+01
 -1.066434282143E+01 -1.048707738949E+01 -1.029602280137E+01 -1.009037564816E+01
 -9.869330566284E+00 -9.632089232211E+00 -9.377870980026E+00 -9.105925178737E+00
 -8.815545495491E+00 -8.506086153485E+00 -8.176980268220E+00 -7.827760312171E+00
 -7.458080715810E+00 -7.067742562427E+00 -6.656720277878E+00 -6.225190157577E+00
 -5.773560518290E+00 -5.302503219803E+00 -4.812986282655E+00 -4.306307345780E+00
 -3.784127775489E+00 -3.248507367999E+00 -2.701939531757E+00 -2.147388633050E+00
 -1.588327741283E+00 -1.028780117185E+00 -4.733647431093E-01  7.265276425366E-02
  3.403010554009E-01  6.033029649942E-01  8.607919524446E-01  1.111849332520E+00
  1.355502151170E+00  1.590721140728E+00  1.816418844164E+00  2.031448023968E+00
  2.234600500885E+00  2.424606601031E+00  2.600135426625E+00  2.759796205340E+00
  2.902141015267E+00  3.025669225731E+00  3.128834037159E+00  3.210051543803E+00
  3.267712778664E+00  3.300199227053E+00  3.305902309573E+00  3.283247331869E+00
  3.230722371654E+00  3.146912517080E+00  3.030539778457E+00  2.880508862120E+00
  2.695958816905E+00  2.476320338146E+00  2.221378242227E+00  1.931338310053E+00
  1.606897346210E+00  1.249314918247E+00  8.604848304459E-01  4.430039425152E-01
  2.354417067553E-04 -4.636369370846E-01 -9.435680715411E-01 -1.433629499082E+00
 -1.927013574806E+00 -2.416073386480E+00 -2.892411238029E+00 -3.347032168025E+00
 -3.770582422282E+00 -4.153694903923E+00 -4.487463048805E+00 -4.764060104570E+00
 -4.977512418042E+00 -5.124638276875E+00 -5.206114272976E+00 -5.227728949310E+00
 -5.201726040086E+00 -5.148398477987E+00 -5.091457319292E+00 -5.035730270046E+00
 -4.980786947094E+00 -4.926345393218E+00 -4.872218820745E+00 -4.818356538318E+00
 -4.764747557384E+00 -4.711415479355E+00 -4.658391412614E+00 -4.605703386824E+00
 -4.553370109957E+00 -4.501398872405E+00 -4.449786895104E+00 -4.398523910149E+00
 -4.347594663967E+00 -4.296987058905E+00 -4.246674281804E+00 -4.196669801053E+00
 -4.146983067171E+00 -4.097609575061E+00 -4.048571933652E+00 -3.999898607629E+00
 -3.951630374536E+00 -3.903806661390E+00 -3.856463810951E+00 -3.809638793007E+00
 -3.763362337857E+00 -3.717655966874E+00 -3.672529632485E+00 -3.627981485343E+00
 -3.583992402055E+00 -3.540542074913E+00 -3.497575279844E+00 -3.455053777201E+00
 -3.412945807785E+00 -3.371209015005E+00 -3.329884180223E+00 -3.288983645205E+00
 -3.248503676495E+00 -3.208455992151E+00 -3.168843887202E+00 -3.129671686911E+00
 -3.090942622838E+00 -3.052656840775E+00 -3.014816982734E+00 -2.977423915263E+00
 -2.940474707965E+00 -2.903967535428E+00 -2.867902330849E+00 -2.832274811326E+00
 -2.797079384607E+00 -2.762314412235E+00 -2.727976504241E+00 -2.694061531817E+00
 -2.660565335409E+00 -2.627483553572E+00 -2.594811693488E+00 -2.562545239005E+00
 -2.530679342384E+00 -2.499209484403E+00 -2.468131025733E+00 -2.437438064896E+00
 -2.407125209336E+00 -2.377189288583E+00 -2.347625830677E+00 -2.318430313663E+00
 -2.289598281875E+00 -2.261125317708E+00 -2.233007037134E+00 -2.205239171071E+00
 -2.177817169978E+00 -2.150737687474E+00 -2.123996000941E+00 -2.097586596111E+00
 -2.071506131510E+00 -2.045750623399E+00 -2.020315990004E+00 -1.995198247220E+00
 -1.970393430907E+00 -1.945897624568E+00 -1.921706945276E+00 -1.897817300884E+00
 -1.874224758622E+00 -1.850926141697E+00 -1.827917491032E+00 -1.805195017534E+00
 -1.782755358753E+00 -1.760595159126E+00 -1.738710825346E+00 -1.717099483742E+00
 -1.695757713985E+00 -1.674681414394E+00 -1.653867619650E+00 -1.633312992651E+00
 -1.613014280051E+00 -1.592968260016E+00 -1.573171742885E+00 -1.553621608816E+00
 -1.534314312583E+00 -1.515246935881E+00 -1.496416740994E+00 -1.477820756613E+00
 -1.459456090084E+00 -1.441319886264E+00 -1.423409460570E+00 -1.405721990138E+00
 -1.388254461949E+00 -1.371004193604E+00 -1.353968414777E+00 -1.337144439843E+00
 -1.320529530045E+00 -1.304120982961E+00 -1.287916369410E+00 -1.271913120233E+00
 -1.256108721220E+00 -1.240500781130E+00 -1.225086613657E+00 -1.209864171446E+00
 -1.194831159249E+00 -1.179984992531E+00 -1.165323317156E+00 -1.150843941704E+00
 -1.136544630503E+00 -1.122422561290E+00 -1.108475528691E+00 -1.094701590045E+00
 -1.081098529398E+00 -1.067664345419E+00 -1.054396872104E+00 -1.041293925562E+00
 -1.028353664242E+00 -1.015573882694E+00 -1.002952474043E+00 -9.904885560056E-01
 -9.781805171714E-01 -9.660260137324E-01 -9.540237842578E-01 -9.421717064920E-01
 -9.304675053203E-01 -9.189095906937E-01 -9.074961743850E-01 -8.962253679445E-01
 -8.850951672828E-01 -8.741038595156E-01 -8.632497954424E-01 -8.525315193799E-01
 -8.419472664113E-01 -8.314950137133E-01 -8.211729915489E-01 -8.109794585449E-01
 -8.009128109623E-01 -7.909715253519E-01 -7.811785915559E-01 -7.714962278194E-01
 -7.619267675642E-01 -7.524711434006E-01 -7.431295634255E-01 -7.339017338124E-01
 -7.247869706850E-01 -7.157844872778E-01 -7.068932652024E-01 -6.981121207686E-01
 -6.894398135683E-01 -6.808750886216E-01 -6.724166813390E-01 -6.640633056342E-01
 -6.558136752498E-01 -6.476665145399E-01 -6.396205597537E-01 -6.316745587056E-01
 -6.238272720977E-01 -6.160774757706E-01 -6.084239597452E-01 -6.008655281950E-01
 -5.934010000170E-01 -5.860292086778E-01 -5.787490020241E-01 -5.715592421837E-01
 -5.644588053996E-01 -5.574465818445E-01 -5.505214754810E-01 -5.436824038860E-01
 -5.369282980785E-01 -5.302581023622E-01 -5.236707741642E-01 -5.171652838693E-01
 -5.107406146536E-01 -5.043957623277E-01 -4.981297351834E-01 -4.919415538375E-01
 -4.858302510777E-01 -4.797948717112E-01 -4.738344724155E-01 -4.679481215908E-01
 -4.621348992146E-01 -4.563938966971E-01 -4.507242167397E-01 -4.451249731943E-01
 -4.395952909250E-01 -4.341343056706E-01 -4.287411639102E-01 -4.234150227290E-01
 -4.181550496869E-01 -4.129604226880E-01 -4.078303298524E-01 -4.027639693886E-01
 -3.977605494687E-01 -3.928192881043E-01 -3.879394130239E-01 -3.831201615529E-01
 -3.783607804933E-01 -3.736605260067E-01 -3.690186634977E-01 -3.644344674989E-01
 -3.599072215576E-01 -3.554362181235E-01 -3.510207584385E-01 -3.466601524269E-01
 -3.423537185879E-01 -3.381007838887E-01 -3.339006836597E-01 -3.297527614898E-01
 -3.256563691245E-01 -3.216108663642E-01 -3.176156209641E-01 -3.136700085353E-01
 -3.097734124472E-01 -3.059252237311E-01 -3.021248409851E-01 -2.983716702796E-01
 -2.946651250651E-01 -2.910046260797E-01 -2.873896012594E-01 -2.838194856480E-01
 -2.802937213087E-01 -2.768117572376E-01 -2.733730492767E-01 -2.699770600292E-01
 -2.666232587757E-01 -2.633111213907E-01 -2.600401302609E-01 -2.568097742047E-01
 -2.536195483913E-01 -2.504689542626E-01 -2.473574994551E-01 -2.442846977225E-01
 -2.412500688603E-01 -2.382531386301E-01 -2.352934386859E-01 -2.323705065007E-01
 -2.294838852943E-01 -2.266331239616E-01 -2.238177770024E-01 -2.210374044517E-01
 -2.182915718106E-01 -2.155798499789E-01 -2.129018151876E-01 -2.102570489326E-01
 -2.076451379097E-01 -2.050656739496E-01 -2.025182539543E-01 -2.000024798340E-01
</data>
</radfunc>
</slps>
<slps n="2" l="p" rc="1.15648284484" flavor="Troullier-Martins">
<radfunc>
<data>
 -1.215305585811E+01 -1.215302463886E+01 -1.215293459156E+01 -1.215277763088E+01
 -1.215254284690E+01 -1.215221527300E+01 -1.215180589885E+01 -1.215128021128E+01
 -1.215058119316E+01 -1.214967924426E+01 -1.214855636332E+01 -1.214721560293E+01
 -1.214568961858E+01 -1.214373583262E+01 -1.214163091655E+01 -1.213903223136E+01
 -1.213641031294E+01 -1.213329401616E+01 -1.212959677943E+01 -1.212521888093E+01
 -1.212114969566E+01 -1.211650415260E+01 -1.211120569713E+01 -1.210516648923E+01
 -1.209828448239E+01 -1.209249839127E+01 -1.208611198429E+01 -1.207905718214E+01
 -1.207125498895E+01 -1.206261318328E+01 -1.205302359032E+01 -1.204235890197E+01
 -1.203046902118E+01 -1.201717692097E+01 -1.200227402914E+01 -1.198551517808E+01
 -1.197317160812E+01 -1.195977990373E+01 -1.194523329503E+01 -1.192941412016E+01
 -1.191219312472E+01 -1.189342882150E+01 -1.187296694046E+01 -1.185064000445E+01
 -1.182626706966E+01 -1.179965367285E+01 -1.177059202726E+01 -1.173886150543E+01
 -1.170422943891E+01 -1.166645224985E+01 -1.162527690854E+01 -1.158044268295E+01
 -1.153168311303E+01 -1.147872810601E+01 -1.142130601336E+01 -1.135914552057E+01
 -1.129197716423E+01 -1.121953429495E+01 -1.114155308022E+01 -1.105777273650E+01
 -1.096793352000E+01 -1.087177493095E+01 -1.076903346335E+01 -1.065944040462E+01
 -1.060198871816E+01 -1.054272023878E+01 -1.048159938610E+01 -1.041859017799E+01
 -1.035365630355E+01 -1.028676122237E+01 -1.021786828753E+01 -1.014694088809E+01
 -1.007394260525E+01 -9.998837375068E+00 -9.921589649638E+00 -9.842164548470E+00
 -9.760527992292E+00 -9.676646813164E+00 -9.590488837765E+00 -9.502022945413E+00
 -9.411219109156E+00 -9.318048437606E+00 -9.222483247623E+00 -9.124497213841E+00
 -9.024065660610E+00 -8.921166084789E+00 -8.815779022596E+00 -8.707889397485E+00
 -8.597488503676E+00 -8.484576783765E+00 -8.369167538005E+00 -8.251291644076E+00
 -8.131003254695E+00 -8.008386262908E+00 -7.883561073549E+00 -7.756690899172E+00
 -7.627986437390E+00 -7.497707446944E+00 -7.366159534191E+00 -7.233684558168E+00
 -7.100643671611E+00 -6.967393334222E+00 -6.834256730471E+00 -6.701495666786E+00
 -6.569290524796E+00 -6.437737036232E+00 -6.306867115206E+00 -6.176695377790E+00
 -6.047283057078E+00 -5.918811672373E+00 -5.791605774341E+00 -5.666136780870E+00
 -5.542875314648E+00 -5.422109020525E+00 -5.303954418022E+00 -5.188636531095E+00
 -5.076618927299E+00 -4.968298938773E+00 -4.863991423417E+00 -4.764011187170E+00
 -4.668613662526E+00 -4.578018103507E+00 -4.492399642471E+00 -4.411890083992E+00
 -4.336576428062E+00 -4.266499329412E+00 -4.201651001447E+00 -4.141972684656E+00
 -4.087351645512E+00 -4.037617510121E+00 -3.992541692376E+00 -3.951827032446E+00
 -3.915109831693E+00 -3.881962916052E+00 -3.851885061395E+00 -3.824309089657E+00
 -3.798607990712E+00 -3.774097700816E+00 -3.750053154573E+00 -3.725726648225E+00
 -3.700374099153E+00 -3.673291487076E+00 -3.643861375784E+00 -3.611614761699E+00
 -3.576302664763E+00 -3.538007151536E+00 -3.497223297899E+00 -3.455053663127E+00
 -3.412945807785E+00 -3.371209015005E+00 -3.329884180223E+00 -3.288983645205E+00
 -3.248503676495E+00 -3.208455992151E+00 -3.168843887202E+00 -3.129671686911E+00
 -3.090942622838E+00 -3.052656840775E+00 -3.014816982734E+00 -2.977423915263E+00
 -2.940474707965E+00 -2.903967535428E+00 -2.867902330849E+00 -2.832274811326E+00
 -2.797079384607E+00 -2.762314412235E+00 -2.727976504241E+00 -2.694061531817E+00
 -2.660565335409E+00 -2.627483553572E+00 -2.594811693488E+00 -2.562545239005E+00
 -2.530679342384E+00 -2.499209484403E+00 -2.468131025733E+00 -2.437438064896E+00
 -2.407125209336E+00 -2.377189288583E+00 -2.347625830677E+00 -2.318430313663E+00
 -2.289598281875E+00 -2.261125317708E+00 -2.233007037134E+00 -2.205239171071E+00
 -2.177817169978E+00 -2.150737687474E+00 -2.123996000941E+00 -2.097586596111E+00
 -2.071506131510E+00 -2.045750623399E+00 -2.020315990004E+00 -1.995198247220E+00
 -1.970393430907E+00 -1.945897624568E+00 -1.921706945276E+00 -1.897817300884E+00
 -1.874224758622E+00 -1.850926141697E+00 -1.827917491032E+00 -1.805195017534E+00
 -1.782755358753E+00 -1.760595159126E+00 -1.738710825346E+00 -1.717099483742E+00
 -1.695757713985E+00 -1.674681414394E+00 -1.653867619650E+00 -1.633312992651E+00
 -1.613014280051E+00 -1.592968260016E+00 -1.573171742885E+00 -1.553621608816E+00
 -1.534314312583E+00 -1.515246935881E+00 -1.496416740994E+00 -1.477820756613E+00
 -1.459456090084E+00 -1.441319886264E+00 -1.423409460570E+00 -1.405721990138E+00
 -1.388254461949E+00 -1.371004193604E+00 -1.353968414777E+00 -1.337144439843E+00
 -1.320529530045E+00 -1.304120982961E+00 -1.287916369410E+00 -1.271913120233E+00
 -1.256108721220E+00 -1.240500781130E+00 -1.225086613657E+00 -1.209864171446E+00
 -1.194831159249E+00 -1.179984992531E+00 -1.165323317156E+00 -1.150843941704E+00
 -1.136544630503E+00 -1.122422561290E+00 -1.108475528691E+00 -1.094701590045E+00
 -1.081098529398E+00 -1.067664345419E+00 -1.054396872104E+00 -1.041293925562E+00
 -1.028353664242E+00 -1.015573882694E+00 -1.002952474043E+00 -9.904885560056E-01
 -9.781805171714E-01 -9.660260137324E-01 -9.540237842578E-01 -9.421717064920E-01
 -9.304675053203E-01 -9.189095906937E-01 -9.074961743850E-01 -8.962253679445E-01