Siesta Version  : v4.1.5-1-g384057250
Architecture    : gcc
Compiler version: GNU Fortran (Ubuntu 11.3.0-1ubuntu1~22.04) 11.3.0
Compiler flags  : mpifort -O2 -fPIC -ftree-vectorize -fallow-argument-mismatch
PP flags        : -DFC_HAVE_ABORT -DMPI -DSIESTA__FLOOK -DSIESTA__METIS -DSIESTA__MUMPS -DCDF -DNCDF -DNCDF_4 -DNCDF_PARALLEL -DSIESTA__MRRR -DSIESTA__ELPA
Libraries       : libncdf.a libfdict.a  -lflookall -ldl -lnetcdff -lnetcdf -lhdf5_hl -lhdf5 -lhdf5_fortran -lz -lscalapack-openmpi -lopenblas -lmetis -lzmumps -lcmumps -ldmumps -lmumps_common -lpord -lsmumps -lesmumps -lscotch -lscotcherr -fopenmp -lelpa
PARALLEL version
NetCDF support
NetCDF-4 support
NetCDF-4 MPI-IO support
METIS ordering support
Lua support

* Running on 4 nodes in parallel
>> Start of run:  28-JUN-2023  16:36:50

                           ***********************       
                           *  WELCOME TO SIESTA  *       
                           ***********************       

reinit: Reading from standard input
reinit: Dumped input in INPUT_TMP.50710
************************** Dump of input data file ****************************
SystemLabel      GC
NumberOfAtoms    29
NumberOfSpecies  4
%block ChemicalSpeciesLabel
    1    8  O
    2    7  N
    3   14  Si
    4    1  H
%endblock ChemicalSpeciesLabel
# Single point calculation
MD.TypeOfRun                CG
MD.Steps                    0
SCF.MustConverge            F # In case it does not. There can be 2 very close atoms
AtomicCoordinatesFormat NotScaledCartesianAng
%block AtomicCoordinatesAndAtomicSpecies
1.043624880    3.939228610    0.000000000       1
-3.040641290   1.071078170    0.000000000       2
2.054601450    1.213582070    0.000000000       2
0.999014100    -1.732643800   0.000000000       2
-2.132351640   -1.812968220   0.000000000       2
3.860190550    -1.112298180   0.000000000       2
-1.236183220   1.152964460    0.000000000       3
-0.532924260   -0.939006270   0.000000000       3
0.635660470    2.374516770    0.000000000       3
2.245170240    -0.549967100   0.000000000       3
-3.449816660   -0.583665030   0.000000000       3
2.963714090    1.790992630    0.000000000       4
-4.845591350   -1.123549660   0.000000000       4
4.007020910    -2.152308560   0.000000000       4
4.772194380    -0.502318160   0.000000000       4
-2.265399090   -2.864605110   0.000000000       4
8.583174118    7.390807421    0.000000000       3
10.488058088   8.597446361    0.000000000       3
9.992303948    4.624472451    0.000000000       3
12.069774238   7.093689611    0.000000000       3
8.642796788    5.673379851    0.000000000       2
7.044039058    8.144484731    0.000000000       2
11.644599208   5.354309671    0.000000000       2
10.679402888   10.089600111   0.000000000       4
13.554142218   7.312420431    0.000000000       4
6.932693778    9.193679841    0.000000000       4
6.111481348    7.519570551    0.000000000       4
9.982077118    3.016361331    0.000000000       1
12.420025088   4.627618111    0.000000000       4
%endblock AtomicCoordinatesAndAtomicSpecies
%include ../../../Defaults.fdf
************************** End of input data file *****************************

reinit: -----------------------------------------------------------------------
reinit: System Name: 
reinit: -----------------------------------------------------------------------
reinit: System Label: GC
reinit: -----------------------------------------------------------------------

initatom: Reading input for the pseudopotentials and atomic orbitals ----------
Species number:   1 Atomic number:    8 Label: O
Species number:   2 Atomic number:    7 Label: N
Species number:   3 Atomic number:   14 Label: Si
Species number:   4 Atomic number:    1 Label: H

Ground state valence configuration:   2s02  2p04
Reading pseudopotential information in formatted form from O.psf

Pseudopotential generated from a relativistic atomic calculation

Valence configuration for pseudopotential generation:
2s( 2.00) rc: 0.45
2p( 4.00) rc: 0.92
3d( 0.00) rc: 2.24
4f( 0.00) rc: 0.25
Ground state valence configuration:   2s02  2p03
Reading pseudopotential information in formatted form from N.psf

Pseudopotential generated from a relativistic atomic calculation

Valence configuration for pseudopotential generation:
2s( 2.00) rc: 0.94
2p( 3.00) rc: 0.59
3d( 0.00) rc: 3.46
4f( 0.00) rc: 2.47
Ground state valence configuration:   3s02  3p02
Reading pseudopotential information in formatted form from Si.psf

Pseudopotential generated from a relativistic atomic calculation

Valence configuration for pseudopotential generation:
3s( 2.00) rc: 1.67
3p( 2.00) rc: 2.04
3d( 0.00) rc: 2.89
4f( 0.00) rc: 2.49
Ground state valence configuration:   1s01
Reading pseudopotential information in formatted form from H.psf

Pseudopotential generated from a relativistic atomic calculation

Valence configuration for pseudopotential generation:
1s( 1.00) rc: 0.01
2p( 0.00) rc: 0.60
3d( 0.00) rc: 1.99
4f( 0.00) rc: 2.49
For O, standard SIESTA heuristics set lmxkb to 3
 (one more than the basis l, including polarization orbitals).
Use PS.lmax or PS.KBprojectors blocks to override.
For N, standard SIESTA heuristics set lmxkb to 3
 (one more than the basis l, including polarization orbitals).
Use PS.lmax or PS.KBprojectors blocks to override.
For Si, standard SIESTA heuristics set lmxkb to 3
 (one more than the basis l, including polarization orbitals).
Use PS.lmax or PS.KBprojectors blocks to override.
For H, standard SIESTA heuristics set lmxkb to 2
 (one more than the basis l, including polarization orbitals).
Use PS.lmax or PS.KBprojectors blocks to override.

<basis_specs>
===============================================================================
O                    Z=   8    Mass=  16.000        Charge= 0.17977+309
Lmxo=1 Lmxkb= 3    BasisType=split      Semic=F
L=0  Nsemic=0  Cnfigmx=2
          i=1  nzeta=2  polorb=0  (2s)
            splnorm:   0.28000    
               vcte:    0.0000    
               rinn:    0.0000    
               qcoe:    0.0000    
               qyuk:    0.0000    
               qwid:   0.10000E-01
                rcs:    0.0000      0.0000    
            lambdas:    1.0000      1.0000    
L=1  Nsemic=0  Cnfigmx=2
          i=1  nzeta=2  polorb=1  (2p)
            splnorm:   0.28000    
               vcte:    0.0000    
               rinn:    0.0000    
               qcoe:    0.0000    
               qyuk:    0.0000    
               qwid:   0.10000E-01
                rcs:    0.0000      0.0000    
            lambdas:    1.0000      1.0000    
-------------------------------------------------------------------------------
L=0  Nkbl=1  erefs: 0.17977+309
L=1  Nkbl=1  erefs: 0.17977+309
L=2  Nkbl=1  erefs: 0.17977+309
L=3  Nkbl=1  erefs: 0.17977+309
===============================================================================
</basis_specs>

atom: Called for O                     (Z =   8)

read_vps: Pseudopotential generation method:
read_vps: ATM4.2.7  Troullier-Martins                       
Valence charge for ps generation:    6.00000

xc_check: Exchange-correlation functional:
xc_check: GGA Perdew, Burke & Ernzerhof 1996
V l=0 = -2*Zval/r beyond r=  1.1000
V l=1 = -2*Zval/r beyond r=  1.1000
V l=2 = -2*Zval/r beyond r=  2.2154
V l=3 = -2*Zval/r beyond r=  1.1000
All V_l potentials equal beyond r=  2.2154
This should be close to max(r_c) in ps generation
All pots = -2*Zval/r beyond r=  2.2154

VLOCAL1: 99.0% of the norm of Vloc inside      8.845 Ry
VLOCAL1: 99.9% of the norm of Vloc inside     20.157 Ry
atom: Maximum radius for 4*pi*r*r*local-pseudopot. charge    2.67231
atom: Maximum radius for r*vlocal+2*Zval:    2.32897
GHOST: No ghost state for L =  0
GHOST: No ghost state for L =  1
GHOST: No ghost state for L =  2
GHOST: No ghost state for L =  3

KBgen: Kleinman-Bylander projectors: 
   l= 0   rc=  2.243238   el= -1.759686   Ekb=**********   kbcos= -0.171774
   l= 1   rc=  2.328968   el= -0.663873   Ekb=-14.506792   kbcos= -0.519897
   l= 2   rc=  2.573941   el=  0.002031   Ekb= -1.137373   kbcos= -0.019581
   l= 3   rc=  2.606321   el=  0.003153   Ekb= -1.013546   kbcos= -0.003122

KBgen: Total number of Kleinman-Bylander projectors:   16
atom: -------------------------------------------------------------------------

atom: SANKEY-TYPE ORBITALS:
atom: Selected multiple-zeta basis: split     

SPLIT: Orbitals with angular momentum L= 0

SPLIT: Basis orbitals for state 2s

SPLIT: PAO cut-off radius determined from an
SPLIT: energy shift=  0.002000 Ry

   izeta = 1
                 lambda =    1.000000
                     rc =    4.243912
                 energy =   -1.758270
                kinetic =    3.286084
    potential(screened) =   -5.044353
       potential(ionic) =  -12.921184

   izeta = 2
                 rmatch =    2.187845
              splitnorm =    0.280000
                 energy =   -0.885018
                kinetic =    8.134434
    potential(screened) =   -9.019452
       potential(ionic) =  -17.710645

SPLIT: Orbitals with angular momentum L= 1

SPLIT: Basis orbitals for state 2p

SPLIT: PAO cut-off radius determined from an
SPLIT: energy shift=  0.002000 Ry

   izeta = 1
                 lambda =    1.000000
                     rc =    5.314825
                 energy =   -0.661986
                kinetic =    4.917472
    potential(screened) =   -5.579458
       potential(ionic) =  -13.236259

   izeta = 2
                 rmatch =    2.160663
              splitnorm =    0.280000
                 energy =   -0.068760
                kinetic =    9.183374
    potential(screened) =   -9.252135
       potential(ionic) =  -18.274251

POLgen: Perturbative polarization orbital with L=  2

POLgen: Polarization orbital for state 2p

   izeta = 1
                     rc =    5.314825
                 energy =    1.970580
                kinetic =    3.886128
    potential(screened) =   -1.915547
       potential(ionic) =   -7.749584
atom: Total number of Sankey-type orbitals: 13

atm_pop: Valence configuration (for local Pseudopot. screening):
 2s( 2.00)                                                            
 2p( 4.00)                                                            
Vna: chval, zval:    6.00000   6.00000

Vna:  Cut-off radius for the neutral-atom potential:   5.314825

atom: _________________________________________________________________________

<basis_specs>
===============================================================================
N                    Z=   7    Mass=  14.010        Charge= 0.17977+309
Lmxo=1 Lmxkb= 3    BasisType=split      Semic=F
L=0  Nsemic=0  Cnfigmx=2
          i=1  nzeta=2  polorb=0  (2s)
            splnorm:   0.28000    
               vcte:    0.0000    
               rinn:    0.0000    
               qcoe:    0.0000    
               qyuk:    0.0000    
               qwid:   0.10000E-01
                rcs:    0.0000      0.0000    
            lambdas:    1.0000      1.0000    
L=1  Nsemic=0  Cnfigmx=2
          i=1  nzeta=2  polorb=1  (2p)
            splnorm:   0.28000    
               vcte:    0.0000    
               rinn:    0.0000    
               qcoe:    0.0000    
               qyuk:    0.0000    
               qwid:   0.10000E-01
                rcs:    0.0000      0.0000    
            lambdas:    1.0000      1.0000    
-------------------------------------------------------------------------------
L=0  Nkbl=1  erefs: 0.17977+309
L=1  Nkbl=1  erefs: 0.17977+309
L=2  Nkbl=1  erefs: 0.17977+309
L=3  Nkbl=1  erefs: 0.17977+309
===============================================================================
</basis_specs>

atom: Called for N                     (Z =   7)

read_vps: Pseudopotential generation method:
read_vps: ATM4.2.7  Troullier-Martins                       
Valence charge for ps generation:    5.00000

xc_check: Exchange-correlation functional:
xc_check: GGA Perdew, Burke & Ernzerhof 1996
V l=0 = -2*Zval/r beyond r=  1.2889
V l=1 = -2*Zval/r beyond r=  1.2889
V l=2 = -2*Zval/r beyond r=  3.4178
V l=3 = -2*Zval/r beyond r=  2.4084
All V_l potentials equal beyond r=  3.3753
This should be close to max(r_c) in ps generation
All pots = -2*Zval/r beyond r=  3.4178

VLOCAL1: 99.0% of the norm of Vloc inside      3.810 Ry
VLOCAL1: 99.9% of the norm of Vloc inside      8.683 Ry
atom: Maximum radius for 4*pi*r*r*local-pseudopot. charge    4.02088
atom: Maximum radius for r*vlocal+2*Zval:    3.54838
GHOST: No ghost state for L =  0
GHOST: No ghost state for L =  1
GHOST: No ghost state for L =  2
GHOST: No ghost state for L =  3

KBgen: Kleinman-Bylander projectors: 
   l= 0   rc=  3.417763   el= -1.365098   Ekb= -4.433130   kbcos= -0.707855
   l= 1   rc=  3.375302   el= -0.521201   Ekb=-13.264039   kbcos= -0.535594
   l= 2   rc=  3.872880   el=  0.001991   Ekb= -0.641094   kbcos= -0.062456
   l= 3   rc=  3.970931   el=  0.003093   Ekb= -0.474517   kbcos= -0.018236

KBgen: Total number of Kleinman-Bylander projectors:   16
atom: -------------------------------------------------------------------------

atom: SANKEY-TYPE ORBITALS:
atom: Selected multiple-zeta basis: split     

SPLIT: Orbitals with angular momentum L= 0

SPLIT: Basis orbitals for state 2s

SPLIT: PAO cut-off radius determined from an
SPLIT: energy shift=  0.002000 Ry

   izeta = 1
                 lambda =    1.000000
                     rc =    4.730425
                 energy =   -1.363399
                kinetic =    1.245246
    potential(screened) =   -2.608645
       potential(ionic) =   -8.121105

   izeta = 2
                 rmatch =    2.531849
              splitnorm =    0.280000
                 energy =   -0.959908
                kinetic =    2.409435
    potential(screened) =   -3.369343
       potential(ionic) =   -9.427975

SPLIT: Orbitals with angular momentum L= 1

SPLIT: Basis orbitals for state 2p

SPLIT: PAO cut-off radius determined from an
SPLIT: energy shift=  0.002000 Ry

   izeta = 1
                 lambda =    1.000000
                     rc =    5.924108
                 energy =   -0.519262
                kinetic =    3.672940
    potential(screened) =   -4.192202
       potential(ionic) =   -9.518354

   izeta = 2
                 rmatch =    2.531849
              splitnorm =    0.280000
                 energy =   -0.104258
                kinetic =    6.807538
    potential(screened) =   -6.911796
       potential(ionic) =  -13.149920

POLgen: Perturbative polarization orbital with L=  2

POLgen: Polarization orbital for state 2p

   izeta = 1
                     rc =    5.924108
                 energy =    1.427508
                kinetic =    2.872379
    potential(screened) =   -1.444871
       potential(ionic) =   -5.563644
atom: Total number of Sankey-type orbitals: 13

atm_pop: Valence configuration (for local Pseudopot. screening):
 2s( 2.00)                                                            
 2p( 3.00)                                                            
Vna: chval, zval:    5.00000   5.00000

Vna:  Cut-off radius for the neutral-atom potential:   5.924108

atom: _________________________________________________________________________

<basis_specs>
===============================================================================
Si                   Z=  14    Mass=  28.090        Charge= 0.17977+309
Lmxo=1 Lmxkb= 3    BasisType=split      Semic=F
L=0  Nsemic=0  Cnfigmx=3
          i=1  nzeta=2  polorb=0  (3s)
            splnorm:   0.28000    
               vcte:    0.0000    
               rinn:    0.0000    
               qcoe:    0.0000    
               qyuk:    0.0000    
               qwid:   0.10000E-01
                rcs:    0.0000      0.0000    
            lambdas:    1.0000      1.0000    
L=1  Nsemic=0  Cnfigmx=3
          i=1  nzeta=2  polorb=1  (3p)
            splnorm:   0.28000    
               vcte:    0.0000    
               rinn:    0.0000    
               qcoe:    0.0000    
               qyuk:    0.0000    
               qwid:   0.10000E-01
                rcs:    0.0000      0.0000    
            lambdas:    1.0000      1.0000    
-------------------------------------------------------------------------------
L=0  Nkbl=1  erefs: 0.17977+309
L=1  Nkbl=1  erefs: 0.17977+309
L=2  Nkbl=1  erefs: 0.17977+309
L=3  Nkbl=1  erefs: 0.17977+309
===============================================================================
</basis_specs>

atom: Called for Si                    (Z =  14)

read_vps: Pseudopotential generation method:
read_vps: ATM4.2.7  Troullier-Martins                       
Valence charge for ps generation:    4.00000

xc_check: Exchange-correlation functional:
xc_check: GGA Perdew, Burke & Ernzerhof 1996
V l=0 = -2*Zval/r beyond r=  2.7826
V l=1 = -2*Zval/r beyond r=  2.7826
V l=2 = -2*Zval/r beyond r=  2.9253
V l=3 = -2*Zval/r beyond r=  2.7826
All V_l potentials equal beyond r=  2.8530
This should be close to max(r_c) in ps generation
All pots = -2*Zval/r beyond r=  2.9253

VLOCAL1: 99.0% of the norm of Vloc inside      5.333 Ry
VLOCAL1: 99.9% of the norm of Vloc inside     12.154 Ry
atom: Maximum radius for 4*pi*r*r*local-pseudopot. charge    3.39869
atom: Maximum radius for r*vlocal+2*Zval:    2.96205
GHOST: No ghost state for L =  0
GHOST: No ghost state for L =  1
GHOST: No ghost state for L =  2
GHOST: No ghost state for L =  3

KBgen: Kleinman-Bylander projectors: 
   l= 0   rc=  3.075247   el= -0.794092   Ekb=  5.879390   kbcos=  0.167461
   l= 1   rc=  3.153101   el= -0.300068   Ekb=  2.642817   kbcos=  0.058301
   l= 2   rc=  3.273594   el=  0.001958   Ekb= -1.185135   kbcos= -0.104411
   l= 3   rc=  3.232927   el=  0.003046   Ekb= -0.497174   kbcos= -0.015889

KBgen: Total number of Kleinman-Bylander projectors:   16
atom: -------------------------------------------------------------------------

atom: SANKEY-TYPE ORBITALS:
atom: Selected multiple-zeta basis: split     

SPLIT: Orbitals with angular momentum L= 0

SPLIT: Basis orbitals for state 3s

SPLIT: PAO cut-off radius determined from an
SPLIT: energy shift=  0.002000 Ry

   izeta = 1
                 lambda =    1.000000
                     rc =    6.429618
                 energy =   -0.792283
                kinetic =    0.525293
    potential(screened) =   -1.317576
       potential(ionic) =   -3.744923

   izeta = 2
                 rmatch =    3.998416
              splitnorm =    0.280000
                 energy =   -0.583081
                kinetic =    1.069570
    potential(screened) =   -1.652651
       potential(ionic) =   -4.235185

SPLIT: Orbitals with angular momentum L= 1

SPLIT: Basis orbitals for state 3p

SPLIT: PAO cut-off radius determined from an
SPLIT: energy shift=  0.002000 Ry

   izeta = 1
                 lambda =    1.000000
                     rc =    8.464845
                 energy =   -0.298236
                kinetic =    0.785360
    potential(screened) =   -1.083596
       potential(ionic) =   -3.273779

   izeta = 2
                 rmatch =    4.587816
              splitnorm =    0.280000
                 energy =   -0.131871
                kinetic =    1.403687
    potential(screened) =   -1.535557
       potential(ionic) =   -4.015310

POLgen: Perturbative polarization orbital with L=  2

POLgen: Polarization orbital for state 3p

   izeta = 1
                     rc =    8.464845
                 energy =    0.321949
                kinetic =    1.055677
    potential(screened) =   -0.733728
       potential(ionic) =   -2.672950
atom: Total number of Sankey-type orbitals: 13

atm_pop: Valence configuration (for local Pseudopot. screening):
 3s( 2.00)                                                            
 3p( 2.00)                                                            
Vna: chval, zval:    4.00000   4.00000

Vna:  Cut-off radius for the neutral-atom potential:   8.464845

atom: _________________________________________________________________________

<basis_specs>
===============================================================================
H                    Z=   1    Mass=  1.0100        Charge= 0.17977+309
Lmxo=0 Lmxkb= 2    BasisType=split      Semic=F
L=0  Nsemic=0  Cnfigmx=1
          i=1  nzeta=2  polorb=1  (1s)
            splnorm:   0.62000    
               vcte:    0.0000    
               rinn:    0.0000    
               qcoe:    0.0000    
               qyuk:    0.0000    
               qwid:   0.10000E-01
                rcs:    0.0000      0.0000    
            lambdas:    1.0000      1.0000    
-------------------------------------------------------------------------------
L=0  Nkbl=1  erefs: 0.17977+309
L=1  Nkbl=1  erefs: 0.17977+309
L=2  Nkbl=1  erefs: 0.17977+309
===============================================================================
</basis_specs>

atom: Called for H                     (Z =   1)

read_vps: Pseudopotential generation method:
read_vps: ATM4.2.7  Troullier-Martins                       
Valence charge for ps generation:    1.00000

xc_check: Exchange-correlation functional:
xc_check: GGA Perdew, Burke & Ernzerhof 1996
V l=0 = -2*Zval/r beyond r=  0.0098
V l=1 = -2*Zval/r beyond r=  0.5817
V l=2 = -2*Zval/r beyond r=  1.9372
All V_l potentials equal beyond r=  1.9372
This should be close to max(r_c) in ps generation
All pots = -2*Zval/r beyond r=  1.9372

VLOCAL1: 99.0% of the norm of Vloc inside     11.567 Ry
VLOCAL1: 99.9% of the norm of Vloc inside     26.362 Ry
atom: Maximum radius for 4*pi*r*r*local-pseudopot. charge    2.25106
atom: Maximum radius for r*vlocal+2*Zval:    1.91306
GHOST: No ghost state for L =  0
GHOST: No ghost state for L =  1
GHOST: No ghost state for L =  2

KBgen: Kleinman-Bylander projectors: 
   l= 0   rc=  2.036604   el= -0.477180   Ekb= -6.081590   kbcos= -0.277285
   l= 1   rc=  2.195416   el=  0.001076   Ekb= -0.926943   kbcos= -0.034643
   l= 2   rc=  2.251056   el=  0.002010   Ekb= -0.130941   kbcos= -0.009788

KBgen: Total number of Kleinman-Bylander projectors:    9
atom: -------------------------------------------------------------------------

atom: SANKEY-TYPE ORBITALS:
atom: Selected multiple-zeta basis: split     

SPLIT: Orbitals with angular momentum L= 0

SPLIT: Basis orbitals for state 1s

SPLIT: PAO cut-off radius determined from an
SPLIT: energy shift=  0.002000 Ry

   izeta = 1
                 lambda =    1.000000
                     rc =    6.518340
                 energy =   -0.475305
                kinetic =    0.912139
    potential(screened) =   -1.387444
       potential(ionic) =   -1.907295

   izeta = 2
                 rmatch =    2.141150
              splitnorm =    0.620000
                 energy =    0.566467
                kinetic =    3.772856
    potential(screened) =   -3.206389
       potential(ionic) =   -3.759093

POLgen: Perturbative polarization orbital with L=  1

POLgen: Polarization orbital for state 1s

   izeta = 1
                     rc =    6.518340
                 energy =    0.533861
                kinetic =    1.121086
    potential(screened) =   -0.587225
       potential(ionic) =   -1.053027
atom: Total number of Sankey-type orbitals:  5

atm_pop: Valence configuration (for local Pseudopot. screening):
 1s( 1.00)                                                            
Vna: chval, zval:    1.00000   1.00000

Vna:  Cut-off radius for the neutral-atom potential:   6.518340

atom: _________________________________________________________________________

prinput: Basis input ----------------------------------------------------------

PAO.BasisType split     

%block ChemicalSpeciesLabel
    1    8 O                       # Species index, atomic number, species label
    2    7 N                       # Species index, atomic number, species label
    3   14 Si                      # Species index, atomic number, species label
    4    1 H                       # Species index, atomic number, species label
%endblock ChemicalSpeciesLabel

%block PAO.Basis                 # Define Basis set
O                     2                    # Species label, number of l-shells
 n=2   0   2                         # n, l, Nzeta 
   4.244      2.188   
   1.000      1.000   
 n=2   1   2 P   1                   # n, l, Nzeta, Polarization, NzetaPol
   5.315      2.161   
   1.000      1.000   
N                     2                    # Species label, number of l-shells
 n=2   0   2                         # n, l, Nzeta 
   4.730      2.532   
   1.000      1.000   
 n=2   1   2 P   1                   # n, l, Nzeta, Polarization, NzetaPol
   5.924      2.532   
   1.000      1.000   
Si                    2                    # Species label, number of l-shells
 n=3   0   2                         # n, l, Nzeta 
   6.430      3.998   
   1.000      1.000   
 n=3   1   2 P   1                   # n, l, Nzeta, Polarization, NzetaPol
   8.465      4.588   
   1.000      1.000   
H                     1                    # Species label, number of l-shells
 n=1   0   2 P   1                   # n, l, Nzeta, Polarization, NzetaPol
   6.518      2.141   
   1.000      1.000   
%endblock PAO.Basis

prinput: ----------------------------------------------------------------------

Dumping basis to NetCDF file O.ion.nc
Dumping basis to NetCDF file N.ion.nc
Dumping basis to NetCDF file Si.ion.nc
Dumping basis to NetCDF file H.ion.nc
coor:   Atomic-coordinates input format  =     Cartesian coordinates
coor:                                          (in Angstroms)

siesta: Atomic coordinates (Bohr) and species
siesta:      1.97217   7.44407   0.00000  1        1
siesta:     -5.74598   2.02405   0.00000  2        2
siesta:      3.88264   2.29334   0.00000  2        3
siesta:      1.88786  -3.27422   0.00000  2        4
siesta:     -4.02956  -3.42601   0.00000  2        5
siesta:      7.29471  -2.10194   0.00000  2        6
siesta:     -2.33605   2.17879   0.00000  3        7
siesta:     -1.00708  -1.77447   0.00000  3        8
siesta:      1.20122   4.48719   0.00000  3        9
siesta:      4.24276  -1.03929   0.00000  3       10
siesta:     -6.51921  -1.10297   0.00000  3       11
siesta:      5.60061   3.38449   0.00000  4       12
siesta:     -9.15684  -2.12320   0.00000  4       13
siesta:      7.57218  -4.06728   0.00000  4       14
siesta:      9.01814  -0.94924   0.00000  4       15
siesta:     -4.28099  -5.41332   0.00000  4       16
siesta:     16.21985  13.96661   0.00000  3       17
siesta:     19.81957  16.24683   0.00000  3       18
siesta:     18.88273   8.73899   0.00000  3       19
siesta:     22.80858  13.40514   0.00000  3       20
siesta:     16.33253  10.72114   0.00000  2       21
siesta:     13.31131  15.39085   0.00000  2       22
siesta:     22.00511  10.11818   0.00000  2       23
siesta:     20.18115  19.06659   0.00000  4       24
siesta:     25.61363  13.81848   0.00000  4       25
siesta:     13.10090  17.37354   0.00000  4       26
siesta:     11.54903  14.20993   0.00000  4       27
siesta:     18.86340   5.70010   0.00000  1       28
siesta:     23.47046   8.74493   0.00000  4       29

siesta: Automatic unit cell vectors (Ang):
siesta:   27.828290    0.000000    0.000000
siesta:    0.000000   21.838209    0.000000
siesta:    0.000000    0.000000    9.854683

siesta: System type = molecule  

initatomlists: Number of atoms, orbitals, and projectors:     29   297   394

siesta: ******************** Simulation parameters ****************************
siesta:
siesta: The following are some of the parameters of the simulation.
siesta: A complete list of the parameters used, including default values,
siesta: can be found in file out.fdf
siesta:
redata: Spin configuration                          = spin-orbit
redata: Number of spin components                   = 8
redata: Time-Reversal Symmetry                      = F
redata: Spin spiral                                 = F
############################################################
This spin-orbit implementation uses a local approximation.
From 4.2 and onwards the full non-local approximation is implemented
You are strongly advised to use >=4.2 versions!
############################################################
redata: Long output                                 =   F
redata: Number of Atomic Species                    =        4
redata: Charge density info will appear in .RHO file
redata: Write Mulliken Pop.                         = Atomic and Orbital charges
redata: Matel table size (NRTAB)                    =     1024
redata: Mesh Cutoff                                 =   340.0000 Ry
redata: Net charge of the system                    =     0.0000 |e|
redata: Min. number of SCF Iter                     =        1
redata: Max. number of SCF Iter                     =      200
redata: SCF mix quantity                            = Hamiltonian
redata: Mix DM or H after convergence               =   F
redata: Recompute H after scf cycle                 =   F
redata: Mix DM in first SCF step                    =   T
redata: Write Pulay info on disk                    =   F
redata: New DM Occupancy tolerance                  = 0.000000000001
redata: No kicks to SCF
redata: DM Mixing Weight for Kicks                  =     0.5000
redata: Require Harris convergence for SCF          =   F
redata: Harris energy tolerance for SCF             =     0.000100 eV
redata: Require DM convergence for SCF              =   T
redata: DM tolerance for SCF                        =     0.000008
redata: Require EDM convergence for SCF             =   F
redata: EDM tolerance for SCF                       =     0.001000 eV
redata: Require H convergence for SCF               =   T
redata: Hamiltonian tolerance for SCF               =     0.000001 eV
redata: Require (free) Energy convergence for SCF   =   F
redata: (free) Energy tolerance for SCF             =     0.000100 eV
redata: Using Saved Data (generic)                  =   F
redata: Use continuation files for DM               =   F
redata: Neglect nonoverlap interactions             =   F
redata: Method of Calculation                       = Diagonalization
redata: Electronic Temperature                      =   299.9978 K
redata: Fix the spin of the system                  =   F
redata: Dynamics option                             = Single-point calculation
mix.SCF: Pulay mixing                            = Pulay
mix.SCF:    Variant                              = stable
mix.SCF:    History steps                        = 6
mix.SCF:    Linear mixing weight                 =     0.250000
mix.SCF:    Mixing weight                        =     0.250000
mix.SCF:    SVD condition                        = 0.1000E-07
mix.SCF:    Restart steps                        = 24
mix.SCF:    Restart save steps                   = 3
mix.SCF: Spin-component mixing                   all
redata: Save all siesta data in one NC              =   F
redata: ***********************************************************************

%block SCF.Mixers
  Pulay
%endblock SCF.Mixers

%block SCF.Mixer.Pulay
  # Mixing method
  method pulay
  variant stable

  # Mixing options
  weight 0.2500
  weight.linear 0.2500
  history 6
  restart 24
  restart.save 3
%endblock SCF.Mixer.Pulay

DM_history_depth set to one: no extrapolation allowed by default for geometry relaxation
Size of DM history Fstack: 1
Total number of electrons:    98.000000
Total ionic charge:    98.000000

* ProcessorY, Blocksize:    2  24


* Orbital distribution balance (max,min):    81    72


Time-reversal symmetry not used.

siesta: k-grid: Number of k-points =     1
siesta: k-grid: Cutoff (effective) =     4.927 Ang
siesta: k-grid: Supercell and displacements
siesta: k-grid:    1   0   0      0.000
siesta: k-grid:    0   1   0      0.000
siesta: k-grid:    0   0   1      0.000

diag: Algorithm                                     = ELPA-1stage
diag: Parallel over k                               =   F
diag: Use parallel 2D distribution                  =   T
diag: Parallel block-size                           = 24
diag: Parallel distribution                         =     2 x     2
diag: Used triangular part                          = Lower
diag: Absolute tolerance                            =  0.100E-15
diag: Orthogonalization factor                      =  0.100E-05
diag: Memory factor                                 =  1.0000


ts: **************************************************************
ts: Save H and S matrices                           =    F
ts: Save DM and EDM matrices                        =    F
ts: Only save the overlap matrix S                  =    F
ts: **************************************************************

************************ Begin: TS CHECKS AND WARNINGS ************************
************************ End: TS CHECKS AND WARNINGS **************************


                     ====================================
                        Single-point calculation
                     ====================================

outcoor: Atomic coordinates (Ang):                          
    1.04362488    3.93922861    0.00000000   1       1  O
   -3.04064129    1.07107817    0.00000000   2       2  N
    2.05460145    1.21358207    0.00000000   2       3  N
    0.99901410   -1.73264380    0.00000000   2       4  N
   -2.13235164   -1.81296822    0.00000000   2       5  N
    3.86019055   -1.11229818    0.00000000   2       6  N
   -1.23618322    1.15296446    0.00000000   3       7  Si
   -0.53292426   -0.93900627    0.00000000   3       8  Si
    0.63566047    2.37451677    0.00000000   3       9  Si
    2.24517024   -0.54996710    0.00000000   3      10  Si
   -3.44981666   -0.58366503    0.00000000   3      11  Si
    2.96371409    1.79099263    0.00000000   4      12  H
   -4.84559135   -1.12354966    0.00000000   4      13  H
    4.00702091   -2.15230856    0.00000000   4      14  H
    4.77219438   -0.50231816    0.00000000   4      15  H
   -2.26539909   -2.86460511    0.00000000   4      16  H
    8.58317412    7.39080742    0.00000000   3      17  Si
   10.48805809    8.59744636    0.00000000   3      18  Si
    9.99230395    4.62447245    0.00000000   3      19  Si
   12.06977424    7.09368961    0.00000000   3      20  Si
    8.64279679    5.67337985    0.00000000   2      21  N
    7.04403906    8.14448473    0.00000000   2      22  N
   11.64459921    5.35430967    0.00000000   2      23  N
   10.67940289   10.08960011    0.00000000   4      24  H
   13.55414222    7.31242043    0.00000000   4      25  H
    6.93269378    9.19367984    0.00000000   4      26  H
    6.11148135    7.51957055    0.00000000   4      27  H
    9.98207712    3.01636133    0.00000000   1      28  O
   12.42002509    4.62761811    0.00000000   4      29  H

outcell: Unit cell vectors (Ang):
       27.828290    0.000000    0.000000
        0.000000   21.838209    0.000000
        0.000000    0.000000    9.854683

outcell: Cell vector modules (Ang)   :   27.828290   21.838209    9.854683
outcell: Cell angles (23,13,12) (deg):     90.0000     90.0000     90.0000
outcell: Cell volume (Ang**3)        :   5988.8881
<dSpData1D:S at geom step 0
  <sparsity:sparsity for geom step 0
    nrows_g=297 nrows=81 sparsity=.1375 nnzs=12125, refcount: 8>
  <dData1D:(new from dSpData1D) n=12125, refcount: 1>
refcount: 1>
new_DM -- step:     1
Initializing Density Matrix...
DM filled with atomic data:
<dSpData2D:DM initialized from atoms
  <sparsity:sparsity for geom step 0
    nrows_g=297 nrows=81 sparsity=.1375 nnzs=12125, refcount: 9>
  <dData2D:DM n=12125 m=8, refcount: 1>
refcount: 1>
     spin moment: S , {S} =   56.00000   0.00000   0.00000  56.00000
No. of atoms with KB's overlaping orbs in proc 0. Max # of overlaps:      29     142

Initializing spin-orbit part of the Hamiltonian
  Adding spin-orbit effects for O 
  Adding spin-orbit effects for N 
  Adding spin-orbit effects for Si
  Adding spin-orbit effects for H 


New grid distribution:   1
           1       1:  160    1:   63    1:   30
           2       1:  160    1:   63   31:   60
           3       1:  160   64:  125    1:   30
           4       1:  160   64:  125   31:   60

InitMesh: MESH =   320 x   250 x   120 =     9600000
InitMesh: (bp) =   160 x   125 x    60 =     1200000
InitMesh: Mesh cutoff (required, used) =   340.000   362.199 Ry
ExtMesh (bp) on 0 =   264 x   167 x   142 =     6260496
New grid distribution:   2
           1      58:  160    1:   38    1:   60
           2       1:   57    1:   39    1:   60
           3      58:  160   39:  125    1:   60
           4       1:   57   40:  125    1:   60
New grid distribution:   3
           1      59:  160    1:   41    1:   60
           2       1:   58    1:   41    1:   60
           3      59:  160   42:  125    1:   60
           4       1:   58   42:  125    1:   60
Setting up quadratic distribution...
ExtMesh (bp) on 0 =   207 x   142 x   172 =     5055768
PhiOnMesh: Number of (b)points on node 0 =               234840
PhiOnMesh: nlist on node 0 =              2549914

stepf: Fermi-Dirac step function

siesta: Program's energy decomposition (eV):
siesta: Ebs     =      -625.965162
siesta: Eions   =      3585.165840
siesta: Ena     =       382.019161
siesta: Ekin    =      3369.812321
siesta: Enl     =     -3298.355626
siesta: Eso     =        -0.003411
siesta: Edftu   =         0.000000
siesta: DEna    =       153.677294
siesta: DUscf   =        82.018897
siesta: DUext   =         0.000000
siesta: Exc     =     -1204.210956
siesta: eta*DQ  =         0.000000
siesta: Emadel  =         0.000000
siesta: Emeta   =         0.000000
siesta: Emolmec =         0.000000
siesta: Ekinion =         0.000000
siesta: Eharris =     -4019.969952
siesta: Etot    =     -4100.208159
siesta: FreeEng =     -4100.209579

        iscf     Eharris(eV)        E_KS(eV)     FreeEng(eV)     dDmax    Ef(eV) dHmax(eV)
   scf:    1    -4019.969952    -4100.208159    -4100.209579  0.965011 -4.904579 21.922041
     spin moment: S , {S} =    2.00726  -0.00000  -0.00000   2.00726
timer: Routine,Calls,Time,% = IterSCF        1      13.619  19.23
   scf:    2    -4146.574321    -4135.600664    -4135.602603  0.448915 -4.234537 11.666145
     spin moment: S , {S} =    1.98809   0.00000   0.00000   1.98809
   scf:    3    -4103.307952    -4132.164424    -4132.186125  0.419961 -4.341144 12.518750
     spin moment: S , {S} =    2.25119  -0.00000  -0.00000   2.25119
   scf:    4    -4149.878035    -4144.858973    -4144.858974  0.318954 -3.908525  7.148167
     spin moment: S , {S} =    0.00010  -0.00000   0.00000   0.00010
   scf:    5    -4146.248188    -4145.662034    -4145.662034  0.037422 -3.688434  4.618945
     spin moment: S , {S} =    0.00006   0.00000   0.00000   0.00006
   scf:    6    -4146.423126    -4146.051228    -4146.051228  0.024276 -3.661059  2.310282
     spin moment: S , {S} =    0.00003   0.00000  -0.00000   0.00003
   scf:    7    -4146.412862    -4146.228125    -4146.228125  0.022158 -3.561553  0.884261
     spin moment: S , {S} =    0.00001  -0.00000  -0.00000   0.00001
   scf:    8    -4146.345166    -4146.284718    -4146.284718  0.012019 -3.805332  0.518134
     spin moment: S , {S} =    0.00000  -0.00000   0.00000   0.00000
   scf:    9    -4146.324100    -4146.303703    -4146.303703  0.006676 -3.760833  0.402874
     spin moment: S , {S} =    0.00000   0.00000   0.00000   0.00000
   scf:   10    -4146.356953    -4146.323065    -4146.323065  0.022956 -3.796223  0.247913
     spin moment: S , {S} =    0.00000  -0.00000   0.00000  -0.00000
   scf:   11    -4146.327175    -4146.325160    -4146.325160  0.005673 -3.789777  0.069296
     spin moment: S , {S} =    0.00000   0.00000   0.00000  -0.00000
   scf:   12    -4146.326590    -4146.325891    -4146.325891  0.001112 -3.782714  0.031772
     spin moment: S , {S} =    0.00000   0.00000   0.00000  -0.00000
   scf:   13    -4146.326472    -4146.326178    -4146.326178  0.001163 -3.781771  0.020927
     spin moment: S , {S} =    0.00000   0.00000   0.00000  -0.00000
   scf:   14    -4146.326475    -4146.326320    -4146.326320  0.000767 -3.779062  0.012393
     spin moment: S , {S} =    0.00000   0.00000   0.00000  -0.00000
   scf:   15    -4146.326447    -4146.326380    -4146.326380  0.000771 -3.780423  0.007383
     spin moment: S , {S} =    0.00000   0.00000   0.00000  -0.00000
   scf:   16    -4146.326447    -4146.326410    -4146.326410  0.000699 -3.779676  0.005265
     spin moment: S , {S} =    0.00000   0.00000   0.00000   0.00000
   scf:   17    -4146.326428    -4146.326418    -4146.326418  0.000386 -3.779544  0.003863
     spin moment: S , {S} =    0.00000   0.00000   0.00000   0.00000
   scf:   18    -4146.326426    -4146.326422    -4146.326422  0.000246 -3.779722  0.002621
     spin moment: S , {S} =    0.00000   0.00000   0.00000   0.00000
   scf:   19    -4146.326426    -4146.326424    -4146.326424  0.000217 -3.779908  0.001756
     spin moment: S , {S} =    0.00000   0.00000   0.00000   0.00000
   scf:   20    -4146.326425    -4146.326424    -4146.326424  0.000107 -3.779943  0.001277
     spin moment: S , {S} =    0.00000   0.00000   0.00000   0.00000
   scf:   21    -4146.326426    -4146.326425    -4146.326425  0.000162 -3.779927  0.000730
     spin moment: S , {S} =    0.00000   0.00000   0.00000   0.00000
   scf:   22    -4146.326426    -4146.326425    -4146.326425  0.000107 -3.779897  0.000274
     spin moment: S , {S} =    0.00000   0.00000   0.00000   0.00000
   scf:   23    -4146.326425    -4146.326425    -4146.326425  0.000043 -3.779889  0.000160
     spin moment: S , {S} =    0.00000   0.00000   0.00000   0.00000
   scf:   24    -4146.326425    -4146.326425    -4146.326425  0.000020 -3.779892  0.000101
     spin moment: S , {S} =    0.00000   0.00000   0.00000   0.00000
mix: Pulay -- resetting history
   scf:   25    -4146.326425    -4146.326425    -4146.326425  0.000013 -3.779895  0.000055
     spin moment: S , {S} =    0.00000   0.00000   0.00000   0.00000
   scf:   26    -4146.326425    -4146.326425    -4146.326425  0.000003 -3.779897  0.000035
     spin moment: S , {S} =    0.00000   0.00000   0.00000   0.00000
   scf:   27    -4146.326425    -4146.326425    -4146.326425  0.000004 -3.779895  0.000022
     spin moment: S , {S} =    0.00000   0.00000   0.00000   0.00000
   scf:   28    -4146.326425    -4146.326425    -4146.326425  0.000002 -3.779894  0.000013
     spin moment: S , {S} =    0.00000   0.00000   0.00000   0.00000
   scf:   29    -4146.326425    -4146.326425    -4146.326425  0.000001 -3.779894  0.000008
     spin moment: S , {S} =    0.00000   0.00000   0.00000  -0.00000
   scf:   30    -4146.326425    -4146.326425    -4146.326425  0.000001 -3.779894  0.000004
     spin moment: S , {S} =    0.00000  -0.00000   0.00000  -0.00000
   scf:   31    -4146.326425    -4146.326425    -4146.326425  0.000000 -3.779894  0.000002
     spin moment: S , {S} =    0.00000  -0.00000   0.00000   0.00000
   scf:   32    -4146.326425    -4146.326425    -4146.326425  0.000000 -3.779894  0.000001
     spin moment: S , {S} =    0.00000  -0.00000   0.00000   0.00000
   scf:   33    -4146.326425    -4146.326425    -4146.326425  0.000000 -3.779894  0.000001
     spin moment: S , {S} =    0.00000   0.00000   0.00000   0.00000

SCF Convergence by DM+H criterion
max |DM_out - DM_in|         :     0.0000001914
max |H_out - H_in|      (eV) :     0.0000007319
SCF cycle converged after 33 iterations

Using DM_out to compute the final energy and forces
No. of atoms with KB's overlaping orbs in proc 0. Max # of overlaps:      29     142

siesta: E_KS(eV) =            -4146.3264

siesta: E_KS - E_eggbox =     -4146.3264
     spin moment: S , {S} =    0.00000   0.00000   0.00000   0.00000

siesta: Atomic forces (eV/Ang):
     1   -0.233564   -2.545754   -0.000000
     2    0.013539    0.042837   -0.000000
     3    0.812169   -0.437426    0.000000
     4    0.794938   -0.017752    0.000000
     5    0.056008   -0.088673   -0.000000
     6    1.858222    0.662355   -0.000000
     7    0.039995   -0.267359    0.000000
     8   -0.452780    0.310520   -0.000000
     9   -0.218069    1.334067    0.000000
    10   -1.132575    0.380593   -0.000000
    11   -0.027246   -0.019236   -0.000000
    12   -0.391147   -0.207535    0.000000
    13   -0.042043   -0.039573   -0.000000
    14    0.192874   -0.128491   -0.000000
    15   -1.314649   -0.988108    0.000000
    16   -0.037647    0.027497    0.000000
    17    1.099640   -1.174237   -0.000000
    18   -0.232324    0.210596    0.000000
    19   -0.197029   -1.352846    0.000000
    20   -0.010261   -0.453925    0.000000
    21   -0.346075    1.123585   -0.000000
    22   -2.263549   -0.856990   -0.000000
    23    0.269507    0.604247    0.000000
    24    0.123165   -0.037517   -0.000000
    25    0.115221    0.092493   -0.000000
    26   -0.216227   -0.229970    0.000000
    27    1.622859    1.359151    0.000000
    28    3.937718    0.830681   -0.000000
    29    0.056698    0.114567   -0.000000
----------------------------------------
   Tot    3.877367   -1.752200    0.000000
----------------------------------------
   Max    3.937718
   Res    0.771507    sqrt( Sum f_i^2 / 3N )
----------------------------------------
   Max    3.937718    constrained

Stress tensor Voigt[x,y,z,yz,xz,xy] (kbar):       -0.10        1.37       -0.10       -0.00        0.00        1.24
(Free)E + p*V (eV/cell)    -4147.7817
Target enthalpy (eV/cell)    -4146.3264

mulliken: Atomic and Orbital Populations:

Species: O                   

Atom      Orb        Charge      Spin       Svec
----------------------------------------------------------------
    1  1 2s         1.74802   0.00000      0.000  -0.000  -0.000
    1  2 2s         0.06723   0.00000     -0.000   0.000   0.000
    1  3 2py        1.42225   0.00000      0.000  -0.000  -0.000
    1  4 2pz        1.54126   0.00000      0.000   0.000  -0.000
    1  5 2px        1.62264   0.00000     -0.000  -0.000  -0.000
    1  6 2py        0.04037   0.00000     -0.000  -0.000   0.000
    1  7 2pz       -0.00436   0.00000      0.000   0.000   0.000
    1  8 2px        0.00705   0.00000      0.000   0.000   0.000
    1  9 3Pdxy      0.00711   0.00000      0.000  -0.000   0.000
    1 10 3Pdyz      0.00913   0.00000     -0.000   0.000   0.000
    1 11 3Pdz2      0.00160   0.00000     -0.000   0.000  -0.000
    1 12 3Pdxz      0.00039   0.00000     -0.000   0.000   0.000
    1 13 3Pdx2-y2   0.00698   0.00000     -0.000   0.000   0.000
    1     Total     6.46967   0.00000      0.000  -0.000  -0.000

   28  1 2s         1.74927   0.00000      0.000   0.000   0.000
   28  2 2s         0.06468   0.00000     -0.000   0.000   0.000
   28  3 2py        1.40516   0.00000     -0.000   0.000   0.000
   28  4 2pz        1.54075   0.00000     -0.000   0.000   0.000
   28  5 2px        1.64447   0.00000     -0.000  -0.000   0.000
   28  6 2py        0.04334   0.00000     -0.000  -0.000   0.000
   28  7 2pz       -0.00394   0.00000      0.000  -0.000   0.000
   28  8 2px        0.01078   0.00000      0.000  -0.000   0.000
   28  9 3Pdxy      0.00651   0.00000     -0.000  -0.000  -0.000
   28 10 3Pdyz      0.00983   0.00000     -0.000  -0.000  -0.000
   28 11 3Pdz2      0.00127   0.00000     -0.000   0.000   0.000
   28 12 3Pdxz     -0.00018   0.00000     -0.000  -0.000  -0.000
   28 13 3Pdx2-y2   0.00775   0.00000     -0.000  -0.000   0.000
   28     Total     6.47967   0.00000     -0.000  -0.000   0.000

----------------------------------------------------------------
Total              12.94934   0.00000     -0.000  -0.000   0.000


Species: N                   

Atom      Orb        Charge      Spin       Svec
----------------------------------------------------------------
    2  1 2s         1.55173   0.00000      0.000  -0.000  -0.000
    2  2 2s         0.08405   0.00000     -0.000   0.000   0.000
    2  3 2py        1.04331   0.00000      0.000   0.000  -0.000
    2  4 2pz        1.22413   0.00000      0.000   0.000  -0.000
    2  5 2px        0.98908   0.00000      0.000  -0.000  -0.000
    2  6 2py        0.18867   0.00000     -0.000  -0.000   0.000
    2  7 2pz        0.05546   0.00000     -0.000  -0.000   0.000
    2  8 2px        0.19602   0.00000     -0.000  -0.000   0.000
    2  9 3Pdxy      0.00840   0.00000     -0.000  -0.000   0.000
    2 10 3Pdyz      0.01100   0.00000      0.000   0.000   0.000
    2 11 3Pdz2      0.00196   0.00000     -0.000  -0.000   0.000
    2 12 3Pdxz      0.00757   0.00000      0.000   0.000   0.000
    2 13 3Pdx2-y2   0.00910   0.00000      0.000  -0.000  -0.000
    2     Total     5.37047   0.00000      0.000   0.000  -0.000

    3  1 2s         1.40130   0.00000      0.000  -0.000  -0.000
    3  2 2s         0.11611   0.00000     -0.000  -0.000   0.000
    3  3 2py        0.94143   0.00000      0.000   0.000  -0.000
    3  4 2pz        1.54318   0.00000      0.000  -0.000  -0.000
    3  5 2px        1.08141   0.00000      0.000  -0.000  -0.000
    3  6 2py        0.24856   0.00000     -0.000  -0.000   0.000
    3  7 2pz        0.00745   0.00000     -0.000   0.000   0.000
    3  8 2px        0.17866   0.00000      0.000   0.000   0.000
    3  9 3Pdxy      0.00402   0.00000     -0.000   0.000   0.000
    3 10 3Pdyz      0.00420   0.00000      0.000   0.000  -0.000
    3 11 3Pdz2      0.00075   0.00000      0.000   0.000   0.000
    3 12 3Pdxz      0.00279   0.00000      0.000   0.000  -0.000
    3 13 3Pdx2-y2   0.00286   0.00000      0.000  -0.000  -0.000
    3     Total     5.53272   0.00000      0.000  -0.000  -0.000

    4  1 2s         1.45968   0.00000      0.000   0.000  -0.000
    4  2 2s         0.11895   0.00000     -0.000  -0.000   0.000
    4  3 2py        1.13129   0.00000     -0.000  -0.000  -0.000
    4  4 2pz        1.29439   0.00000     -0.000   0.000  -0.000
    4  5 2px        0.82589   0.00000     -0.000  -0.000  -0.000
    4  6 2py        0.14949   0.00000      0.000   0.000   0.000
    4  7 2pz        0.05367   0.00000      0.000  -0.000   0.000
    4  8 2px        0.29227   0.00000      0.000   0.000   0.000
    4  9 3Pdxy      0.00869   0.00000      0.000   0.000  -0.000
    4 10 3Pdyz      0.01045   0.00000      0.000  -0.000   0.000
    4 11 3Pdz2      0.00126   0.00000     -0.000  -0.000  -0.000
    4 12 3Pdxz      0.00500   0.00000     -0.000  -0.000  -0.000
    4 13 3Pdx2-y2   0.00797   0.00000     -0.000  -0.000  -0.000
    4     Total     5.35900   0.00000     -0.000  -0.000  -0.000

    5  1 2s         1.37623   0.00000     -0.000   0.000  -0.000
    5  2 2s         0.12793   0.00000      0.000   0.000   0.000
    5  3 2py        1.02628   0.00000     -0.000   0.000  -0.000
    5  4 2pz        1.50093   0.00000     -0.000  -0.000  -0.000
    5  5 2px        1.05986   0.00000     -0.000   0.000  -0.000
    5  6 2py        0.20369   0.00000      0.000  -0.000   0.000
    5  7 2pz        0.01337   0.00000      0.000  -0.000   0.000
    5  8 2px        0.20097   0.00000      0.000  -0.000   0.000
    5  9 3Pdxy      0.00393   0.00000      0.000  -0.000   0.000
    5 10 3Pdyz      0.00241   0.00000     -0.000  -0.000   0.000
    5 11 3Pdz2      0.00142   0.00000      0.000   0.000   0.000
    5 12 3Pdxz      0.00685   0.00000     -0.000  -0.000   0.000
    5 13 3Pdx2-y2   0.00559   0.00000     -0.000  -0.000   0.000
    5     Total     5.52946   0.00000     -0.000   0.000  -0.000

    6  1 2s         1.26977   0.00000      0.000  -0.000  -0.000
    6  2 2s         0.17901   0.00000     -0.000   0.000   0.000
    6  3 2py        1.07642   0.00000      0.000  -0.000  -0.000
    6  4 2pz        1.57557   0.00000      0.000   0.000  -0.000
    6  5 2px        0.95486   0.00000      0.000  -0.000  -0.000
    6  6 2py        0.18799   0.00000     -0.000   0.000   0.000
    6  7 2pz        0.02977   0.00000      0.000  -0.000   0.000
    6  8 2px        0.25572   0.00000     -0.000   0.000   0.000
    6  9 3Pdxy      0.00250   0.00000     -0.000   0.000   0.000
    6 10 3Pdyz      0.00016   0.00000     -0.000  -0.000  -0.000
    6 11 3Pdz2      0.00178   0.00000     -0.000   0.000   0.000
    6 12 3Pdxz      0.00325   0.00000     -0.000   0.000  -0.000
    6 13 3Pdx2-y2   0.00395   0.00000     -0.000   0.000   0.000
    6     Total     5.54075   0.00000      0.000  -0.000  -0.000

   21  1 2s         1.42497   0.00000      0.000  -0.000  -0.000
   21  2 2s         0.12776   0.00000     -0.000   0.000   0.000
   21  3 2py        0.87086   0.00000      0.000   0.000  -0.000
   21  4 2pz        1.29384   0.00000      0.000  -0.000   0.000
   21  5 2px        1.15600   0.00000     -0.000  -0.000  -0.000
   21  6 2py        0.27578   0.00000     -0.000  -0.000   0.000
   21  7 2pz        0.04907   0.00000      0.000   0.000   0.000
   21  8 2px        0.16338   0.00000      0.000   0.000   0.000
   21  9 3Pdxy      0.00653   0.00000     -0.000  -0.000  -0.000
   21 10 3Pdyz      0.00512   0.00000      0.000  -0.000  -0.000
   21 11 3Pdz2      0.00017   0.00000     -0.000   0.000  -0.000
   21 12 3Pdxz      0.00575   0.00000      0.000   0.000  -0.000
   21 13 3Pdx2-y2   0.00562   0.00000     -0.000  -0.000  -0.000
   21     Total     5.38484   0.00000      0.000  -0.000   0.000

   22  1 2s         1.29457   0.00000      0.000   0.000  -0.000
   22  2 2s         0.16760   0.00000     -0.000  -0.000   0.000
   22  3 2py        1.05609   0.00000      0.000   0.000  -0.000
   22  4 2pz        1.55931   0.00000     -0.000  -0.000  -0.000
   22  5 2px        0.98182   0.00000     -0.000  -0.000  -0.000
   22  6 2py        0.19662   0.00000     -0.000  -0.000   0.000
   22  7 2pz        0.02814   0.00000      0.000   0.000   0.000
   22  8 2px        0.23509   0.00000      0.000  -0.000   0.000
   22  9 3Pdxy      0.00333   0.00000     -0.000  -0.000   0.000
   22 10 3Pdyz      0.00035   0.00000     -0.000  -0.000  -0.000
   22 11 3Pdz2      0.00258   0.00000     -0.000  -0.000  -0.000
   22 12 3Pdxz      0.00314   0.00000     -0.000   0.000  -0.000
   22 13 3Pdx2-y2   0.00477   0.00000      0.000  -0.000  -0.000
   22     Total     5.53341   0.00000     -0.000  -0.000  -0.000

   23  1 2s         1.39739   0.00000     -0.000  -0.000   0.000
   23  2 2s         0.11781   0.00000      0.000   0.000  -0.000
   23  3 2py        1.00641   0.00000      0.000  -0.000  -0.000
   23  4 2pz        1.52404   0.00000      0.000   0.000  -0.000
   23  5 2px        1.06542   0.00000      0.000  -0.000  -0.000
   23  6 2py        0.21171   0.00000     -0.000   0.000   0.000
   23  7 2pz        0.00496   0.00000     -0.000  -0.000   0.000
   23  8 2px        0.19804   0.00000     -0.000   0.000   0.000
   23  9 3Pdxy      0.00529   0.00000      0.000  -0.000   0.000
   23 10 3Pdyz      0.00445   0.00000     -0.000  -0.000  -0.000
   23 11 3Pdz2      0.00058   0.00000      0.000  -0.000  -0.000
   23 12 3Pdxz      0.00243   0.00000      0.000   0.000  -0.000
   23 13 3Pdx2-y2   0.00137   0.00000     -0.000   0.000  -0.000
   23     Total     5.53990   0.00000      0.000   0.000  -0.000

----------------------------------------------------------------
Total              56.73990   0.00000      0.000  -0.000  -0.000


Species: Si                  

Atom      Orb        Charge      Spin       Svec
----------------------------------------------------------------
    7  1 3s         0.66759   0.00000     -0.000   0.000   0.000
    7  2 3s         0.36515   0.00000      0.000  -0.000   0.000
    7  3 3py        0.48747   0.00000     -0.000   0.000   0.000
    7  4 3pz        0.68899   0.00000      0.000  -0.000   0.000
    7  5 3px        0.12471   0.00000     -0.000   0.000  -0.000
    7  6 3py        0.26475   0.00000      0.000  -0.000   0.000
    7  7 3pz        0.25936   0.00000     -0.000  -0.000   0.000
    7  8 3px        0.43861   0.00000      0.000  -0.000   0.000
    7  9 3Pdxy      0.24577   0.00000     -0.000   0.000   0.000
    7 10 3Pdyz      0.02942   0.00000      0.000   0.000  -0.000
    7 11 3Pdz2      0.01176   0.00000      0.000   0.000   0.000
    7 12 3Pdxz      0.14575   0.00000      0.000  -0.000  -0.000
    7 13 3Pdx2-y2   0.11294   0.00000     -0.000   0.000   0.000
    7     Total     3.84228   0.00000     -0.000   0.000   0.000

    8  1 3s         0.65706   0.00000      0.000  -0.000   0.000
    8  2 3s         0.36842   0.00000     -0.000   0.000   0.000
    8  3 3py        0.38784   0.00000      0.000  -0.000  -0.000
    8  4 3pz        0.52697   0.00000     -0.000   0.000  -0.000
    8  5 3px       -0.03106   0.00000     -0.000   0.000  -0.000
    8  6 3py        0.30895   0.00000     -0.000  -0.000   0.000
    8  7 3pz        0.20176   0.00000     -0.000  -0.000   0.000
    8  8 3px        0.51458   0.00000      0.000  -0.000   0.000
    8  9 3Pdxy      0.24573   0.00000     -0.000   0.000   0.000
    8 10 3Pdyz      0.11216   0.00000      0.000   0.000  -0.000
    8 11 3Pdz2      0.01458   0.00000      0.000  -0.000   0.000
    8 12 3Pdxz      0.15303   0.00000      0.000   0.000  -0.000
    8 13 3Pdx2-y2   0.20013   0.00000     -0.000  -0.000  -0.000
    8     Total     3.66015   0.00000     -0.000  -0.000  -0.000

    9  1 3s         0.60498   0.00000     -0.000  -0.000   0.000
    9  2 3s         0.36635   0.00000      0.000   0.000  -0.000
    9  3 3py        0.07557   0.00000     -0.000  -0.000  -0.000
    9  4 3pz        0.48431   0.00000     -0.000   0.000  -0.000
    9  5 3px        0.37779   0.00000      0.000  -0.000  -0.000
    9  6 3py        0.44734   0.00000      0.000   0.000   0.000
    9  7 3pz        0.18784   0.00000      0.000  -0.000  -0.000
    9  8 3px        0.27387   0.00000     -0.000   0.000   0.000
    9  9 3Pdxy      0.31239   0.00000     -0.000   0.000  -0.000
    9 10 3Pdyz      0.18951   0.00000     -0.000   0.000  -0.000
    9 11 3Pdz2      0.01649   0.00000     -0.000  -0.000  -0.000
    9 12 3Pdxz      0.09664   0.00000     -0.000  -0.000  -0.000
    9 13 3Pdx2-y2   0.17153   0.00000      0.000  -0.000   0.000
    9     Total     3.60460   0.00000      0.000  -0.000  -0.000

   10  1 3s         0.48365   0.00000     -0.000   0.000   0.000
   10  2 3s         0.37727   0.00000      0.000  -0.000   0.000
   10  3 3py        0.24227   0.00000     -0.000   0.000   0.000
   10  4 3pz        0.40999   0.00000     -0.000   0.000   0.000
   10  5 3px        0.10133   0.00000     -0.000   0.000   0.000
   10  6 3py        0.32765   0.00000      0.000   0.000   0.000
   10  7 3pz        0.22218   0.00000     -0.000   0.000   0.000
   10  8 3px        0.42814   0.00000      0.000  -0.000   0.000
   10  9 3Pdxy      0.16951   0.00000      0.000   0.000  -0.000
   10 10 3Pdyz      0.14065   0.00000     -0.000  -0.000   0.000
   10 11 3Pdz2      0.01045   0.00000     -0.000  -0.000   0.000
   10 12 3Pdxz      0.17446   0.00000     -0.000   0.000   0.000
   10 13 3Pdx2-y2   0.31044   0.00000      0.000  -0.000  -0.000
   10     Total     3.39800   0.00000     -0.000   0.000   0.000

   11  1 3s         0.55279   0.00000     -0.000  -0.000   0.000
   11  2 3s         0.38544   0.00000      0.000   0.000   0.000
   11  3 3py        0.32141   0.00000     -0.000  -0.000   0.000
   11  4 3pz        0.53905   0.00000     -0.000   0.000   0.000
   11  5 3px        0.12337   0.00000     -0.000   0.000   0.000
   11  6 3py        0.28699   0.00000      0.000   0.000   0.000
   11  7 3pz        0.17784   0.00000      0.000  -0.000   0.000
   11  8 3px        0.44713   0.00000      0.000  -0.000  -0.000
   11  9 3Pdxy      0.22528   0.00000      0.000   0.000   0.000
   11 10 3Pdyz      0.12611   0.00000     -0.000  -0.000   0.000
   11 11 3Pdz2      0.00956   0.00000     -0.000   0.000  -0.000
   11 12 3Pdxz      0.05259   0.00000     -0.000   0.000   0.000
   11 13 3Pdx2-y2   0.20366   0.00000      0.000  -0.000   0.000
   11     Total     3.45122   0.00000     -0.000  -0.000   0.000

   17  1 3s         0.64005   0.00000      0.000   0.000   0.000
   17  2 3s         0.36031   0.00000      0.000  -0.000   0.000
   17  3 3py        0.22857   0.00000     -0.000  -0.000  -0.000
   17  4 3pz        0.42476   0.00000      0.000  -0.000   0.000
   17  5 3px        0.24500   0.00000      0.000   0.000   0.000
   17  6 3py        0.38767   0.00000     -0.000  -0.000  -0.000
   17  7 3pz        0.21087   0.00000     -0.000  -0.000   0.000
   17  8 3px        0.36798   0.00000     -0.000  -0.000  -0.000
   17  9 3Pdxy      0.30236   0.00000      0.000   0.000  -0.000
   17 10 3Pdyz      0.14331   0.00000     -0.000  -0.000   0.000
   17 11 3Pdz2      0.00913   0.00000      0.000   0.000   0.000
   17 12 3Pdxz      0.14322   0.00000      0.000  -0.000   0.000
   17 13 3Pdx2-y2   0.16317   0.00000      0.000  -0.000  -0.000
   17     Total     3.62640   0.00000      0.000   0.000   0.000

   18  1 3s         0.74454   0.00000     -0.000  -0.000   0.000
   18  2 3s         0.33921   0.00000      0.000  -0.000   0.000
   18  3 3py        0.08053   0.00000      0.000  -0.000   0.000
   18  4 3pz        0.82419   0.00000     -0.000  -0.000   0.000
   18  5 3px        0.55536   0.00000     -0.000  -0.000   0.000
   18  6 3py        0.51727   0.00000     -0.000   0.000   0.000
   18  7 3pz        0.19736   0.00000      0.000  -0.000   0.000
   18  8 3px        0.24986   0.00000      0.000   0.000   0.000
   18  9 3Pdxy      0.10343   0.00000     -0.000   0.000  -0.000
   18 10 3Pdyz      0.02737   0.00000      0.000   0.000  -0.000
   18 11 3Pdz2      0.00876   0.00000     -0.000   0.000  -0.000
   18 12 3Pdxz      0.03018   0.00000     -0.000  -0.000  -0.000
   18 13 3Pdx2-y2   0.11331   0.00000      0.000  -0.000   0.000
   18     Total     3.79136   0.00000     -0.000  -0.000   0.000

   19  1 3s         0.45876   0.00000     -0.000   0.000  -0.000
   19  2 3s         0.36567   0.00000      0.000   0.000  -0.000
   19  3 3py        0.08233   0.00000      0.000   0.000   0.000
   19  4 3pz        0.42853   0.00000      0.000   0.000  -0.000
   19  5 3px        0.35473   0.00000      0.000   0.000   0.000
   19  6 3py        0.47057   0.00000     -0.000  -0.000  -0.000
   19  7 3pz        0.18351   0.00000     -0.000   0.000   0.000
   19  8 3px        0.23941   0.00000     -0.000  -0.000  -0.000
   19  9 3Pdxy      0.34142   0.00000     -0.000   0.000  -0.000
   19 10 3Pdyz      0.18785   0.00000      0.000  -0.000  -0.000
   19 11 3Pdz2      0.01602   0.00000     -0.000   0.000  -0.000
   19 12 3Pdxz      0.08695   0.00000     -0.000  -0.000   0.000
   19 13 3Pdx2-y2   0.23629   0.00000     -0.000  -0.000  -0.000
   19     Total     3.45205   0.00000     -0.000   0.000  -0.000

   20  1 3s         0.67319   0.00000      0.000  -0.000  -0.000
   20  2 3s         0.37815   0.00000     -0.000   0.000   0.000
   20  3 3py        0.33157   0.00000     -0.000   0.000  -0.000
   20  4 3pz        0.58870   0.00000      0.000   0.000  -0.000
   20  5 3px        0.13773   0.00000     -0.000  -0.000  -0.000
   20  6 3py        0.29230   0.00000      0.000  -0.000   0.000
   20  7 3pz        0.16399   0.00000     -0.000  -0.000  -0.000
   20  8 3px        0.49994   0.00000      0.000   0.000   0.000
   20  9 3Pdxy      0.10044   0.00000      0.000  -0.000  -0.000
   20 10 3Pdyz      0.13398   0.00000     -0.000  -0.000  -0.000
   20 11 3Pdz2      0.00735   0.00000      0.000  -0.000   0.000
   20 12 3Pdxz      0.02700   0.00000     -0.000  -0.000   0.000
   20 13 3Pdx2-y2   0.17189   0.00000      0.000   0.000   0.000
   20     Total     3.50622   0.00000     -0.000   0.000  -0.000

----------------------------------------------------------------
Total              89.07217   0.00000     -0.000  -0.000   0.000


Species: H                   

Atom      Orb        Charge      Spin       Svec
----------------------------------------------------------------
   12  1 1s         0.49844   0.00000     -0.000   0.000   0.000
   12  2 1s         0.18160   0.00000      0.000  -0.000   0.000
   12  3 2Ppy       0.02922   0.00000      0.000  -0.000   0.000
   12  4 2Ppz       0.03447   0.00000     -0.000   0.000   0.000
   12  5 2Ppx       0.02287   0.00000      0.000   0.000  -0.000
   12     Total     0.76658   0.00000     -0.000   0.000   0.000

   13  1 1s         1.01855   0.00000      0.000   0.000  -0.000
   13  2 1s         0.09551   0.00000     -0.000  -0.000   0.000
   13  3 2Ppy       0.01808   0.00000      0.000  -0.000  -0.000
   13  4 2Ppz       0.02002   0.00000     -0.000   0.000   0.000
   13  5 2Ppx       0.03518   0.00000     -0.000   0.000   0.000
   13     Total     1.18735   0.00000      0.000   0.000  -0.000

   14  1 1s         0.46008   0.00000     -0.000   0.000   0.000
   14  2 1s         0.19999   0.00000     -0.000   0.000   0.000
   14  3 2Ppy       0.01787   0.00000     -0.000   0.000  -0.000
   14  4 2Ppz       0.04546   0.00000     -0.000  -0.000  -0.000
   14  5 2Ppx       0.01716   0.00000      0.000   0.000   0.000
   14     Total     0.74056   0.00000     -0.000  -0.000   0.000

   15  1 1s         0.50168   0.00000     -0.000   0.000   0.000
   15  2 1s         0.17811   0.00000      0.000  -0.000   0.000
   15  3 2Ppy       0.00527   0.00000      0.000   0.000  -0.000
   15  4 2Ppz       0.04360   0.00000      0.000   0.000  -0.000
   15  5 2Ppx       0.02805   0.00000     -0.000   0.000  -0.000
   15     Total     0.75670   0.00000     -0.000   0.000   0.000

   16  1 1s         0.50989   0.00000      0.000  -0.000   0.000
   16  2 1s         0.18739   0.00000     -0.000  -0.000   0.000
   16  3 2Ppy       0.02979   0.00000      0.000  -0.000   0.000
   16  4 2Ppz       0.03982   0.00000      0.000  -0.000   0.000
   16  5 2Ppx       0.02359   0.00000      0.000  -0.000   0.000
   16     Total     0.79049   0.00000      0.000  -0.000   0.000

   24  1 1s         1.06356   0.00000     -0.000   0.000  -0.000
   24  2 1s         0.07421   0.00000      0.000  -0.000   0.000
   24  3 2Ppy       0.03205   0.00000      0.000  -0.000   0.000
   24  4 2Ppz       0.03079   0.00000      0.000  -0.000   0.000
   24  5 2Ppx       0.01729   0.00000      0.000  -0.000  -0.000
   24     Total     1.21791   0.00000     -0.000   0.000  -0.000

   25  1 1s         1.04307   0.00000      0.000  -0.000  -0.000
   25  2 1s         0.08656   0.00000     -0.000   0.000  -0.000
   25  3 2Ppy       0.01227   0.00000     -0.000  -0.000  -0.000
   25  4 2Ppz       0.01843   0.00000     -0.000  -0.000  -0.000
   25  5 2Ppx       0.03571   0.00000      0.000  -0.000   0.000
   25     Total     1.19604   0.00000      0.000  -0.000  -0.000

   26  1 1s         0.47588   0.00000     -0.000  -0.000  -0.000
   26  2 1s         0.19598   0.00000      0.000   0.000   0.000
   26  3 2Ppy       0.02096   0.00000     -0.000   0.000  -0.000
   26  4 2Ppz       0.04931   0.00000      0.000   0.000   0.000
   26  5 2Ppx       0.01614   0.00000      0.000   0.000  -0.000
   26     Total     0.75828   0.00000     -0.000   0.000   0.000

   27  1 1s         0.51599   0.00000      0.000   0.000  -0.000
   27  2 1s         0.16865   0.00000     -0.000  -0.000   0.000
   27  3 2Ppy       0.00676   0.00000     -0.000   0.000  -0.000
   27  4 2Ppz       0.03850   0.00000      0.000   0.000  -0.000
   27  5 2Ppx       0.02850   0.00000     -0.000   0.000  -0.000
   27     Total     0.75840   0.00000      0.000   0.000  -0.000

   29  1 1s         0.48427   0.00000     -0.000   0.000   0.000
   29  2 1s         0.18784   0.00000      0.000  -0.000   0.000
   29  3 2Ppy       0.02513   0.00000     -0.000  -0.000  -0.000
   29  4 2Ppz       0.03413   0.00000      0.000  -0.000   0.000
   29  5 2Ppx       0.02414   0.00000     -0.000   0.000   0.000
   29     Total     0.75551   0.00000     -0.000  -0.000   0.000

----------------------------------------------------------------
Total              98.00000   0.00000      0.000   0.000   0.000


siesta: Eigenvalues (eV):
ik =     1
  -21.9932  -21.9932  -21.7277  -21.7277  -21.6069  -21.6069  -21.6053  -21.6053  -21.2624  -21.2624
  -20.9529  -20.9529  -20.8929  -20.8929  -19.8784  -19.8784  -19.3874  -19.3874  -19.3592  -19.3592
  -14.7242  -14.7242  -13.9325  -13.9325  -13.3355  -13.3355  -13.2579  -13.2579  -13.1351  -13.1351
  -12.9599  -12.9599  -12.8904  -12.8904  -12.5118  -12.5118  -12.3923  -12.3923  -12.0040  -12.0040
  -11.5191  -11.5191  -10.8019  -10.8019  -10.7833  -10.7833  -10.7526  -10.7526  -10.0633  -10.0633
   -9.5132   -9.5132   -9.2847   -9.2847   -8.8921   -8.8921   -8.7304   -8.7304   -8.7118   -8.7118
   -8.6480   -8.6480   -8.3663   -8.3663   -8.2293   -8.2293   -7.8373   -7.8373   -7.6773   -7.6773
   -7.4837   -7.4837   -7.3983   -7.3983   -7.3109   -7.3109   -6.9493   -6.9493   -6.7099   -6.7099
   -6.5490   -6.5490   -6.4616   -6.4616   -6.1272   -6.1272   -6.1012   -6.1012   -6.0423   -6.0423
   -5.6454   -5.6454   -5.6138   -5.6138   -5.4081   -5.4081   -4.3397   -4.3397   -3.2188   -3.2188
   -2.3435   -2.3435   -2.2808   -2.2808   -2.2777   -2.2777   -1.9282   -1.9282   -1.8934   -1.8934
   -1.8197   -1.8197   -1.7482   -1.7482   -1.6014   -1.6014   -1.5499   -1.5499   -0.9823   -0.9823
   -0.9453   -0.9453   -0.8670   -0.8670   -0.4196   -0.4196   -0.1297   -0.1297   -0.0048   -0.0048
    0.2096    0.2096    0.4025    0.4025    0.4951    0.4951    0.7197    0.7197    0.7256    0.7256
    0.9524    0.9524    1.1666    1.1666    1.3123    1.3123    1.3547    1.3547    1.4662    1.4662
    1.6416    1.6416    1.8133    1.8133    1.9038    1.9038    2.3059    2.3059    2.7145    2.7145
    2.7191    2.7191    2.8388    2.8388    2.9609    2.9609    3.1423    3.1423    3.3285    3.3285
    3.3469    3.3469    3.7404    3.7404    3.8145    3.8145    4.1048    4.1048    4.2494    4.2494
    4.4392    4.4392    4.5419    4.5419    4.5730    4.5730    4.6033    4.6033    4.8152    4.8152
    4.9236    4.9236    4.9710    4.9710    5.2069    5.2069    5.5256    5.5256    5.6280    5.6280
    5.6797    5.6797    5.8166    5.8166    5.8224    5.8224    5.9055    5.9055    5.9600    5.9600
    6.1882    6.1882    6.3022    6.3022    6.6596    6.6596    6.6942    6.6942    6.8361    6.8361
    7.0656    7.0656    7.1687    7.1687    7.3576    7.3576    7.4779    7.4779    7.7196    7.7196
    7.8253    7.8253    8.0302    8.0302    8.1121    8.1121    8.2044    8.2044    8.2922    8.2922
    8.4644    8.4644    8.6548    8.6548    8.7253    8.7253    8.9508    8.9508    9.1938    9.1938
    9.2066    9.2066    9.2276    9.2276    9.7788    9.7788    9.7898    9.7898    9.8458    9.8458
    9.9800    9.9800   10.1833   10.1833   10.4071   10.4071   10.6596   10.6596   10.7879   10.7879
   10.8774   10.8774   11.0575   11.0575   11.2375   11.2375   11.6841   11.6841   11.7876   11.7876
   11.8429   11.8429   11.9159   11.9159   12.1562   12.1562   12.3403   12.3403   12.5155   12.5155
   12.7209   12.7209   12.7651   12.7651   13.3515   13.3515   13.5146   13.5146   13.7364   13.7364
   13.7495   13.7495   14.0703   14.0703   14.1984   14.1984   14.3922   14.3922   14.7968   14.7968
   14.8862   14.8862   15.3524   15.3524   15.9664   15.9664   16.3897   16.3897   16.6892   16.6892
   16.9226   16.9226   17.3936   17.3936   17.6950   17.6950   18.1789   18.1789   18.3025   18.3025
   18.5584   18.5584   19.1248   19.1248   19.3093   19.3093   19.9107   19.9107   20.2655   20.2655
   20.9059   20.9059   21.3301   21.3301   21.7734   21.7734   22.2041   22.2041   22.3984   22.3984
   23.1077   23.1077   23.2513   23.2513   23.7400   23.7400   23.8262   23.8262   23.8263   23.8263
   24.8112   24.8112   25.1837   25.1837   26.0255   26.0255   26.7501   26.7501   27.3575   27.3575
   28.3045   28.3045   29.0574   29.0574   29.1139   29.1139   29.4740   29.4740   29.5701   29.5701
   30.0142   30.0142   30.0865   30.0865   30.2265   30.2265   30.5745   30.5745   30.7556   30.7556
   31.0037   31.0037   31.1990   31.1990   31.4928   31.4928   31.6133   31.6133   32.2163   32.2163
   32.7013   32.7013   33.8211   33.8211   34.4933   34.4933   34.7451   34.7451   34.9862   34.9862
   34.9911   34.9911   35.1783   35.1783   35.3539   35.3539   35.6333   35.6333   35.9295   35.9295
   36.7496   36.7496   36.7619   36.7619   36.9992   36.9992   37.1663   37.1663   37.4828   37.4828
   38.1439   38.1439   38.2569   38.2569   39.3752   39.3752   39.4366   39.4366   39.8997   39.8997
   40.2157   40.2157   40.5016   40.5016   40.6278   40.6278   40.6473   40.6473   40.9552   40.9552
   41.0172   41.0172   41.4573   41.4573   42.4075   42.4075   42.6006   42.6006   43.0309   43.0309
   43.1222   43.1222   43.7826   43.7826   43.8670   43.8670   44.0108   44.0108   44.2429   44.2429
   44.6545   44.6545   44.7283   44.7283   45.0184   45.0184   45.3188   45.3188   46.1143   46.1143
   46.3387   46.3387   46.8143   46.8143   47.1659   47.1659   48.6527   48.6527   48.9585   48.9585
   49.4254   49.4254   50.3392   50.3392   50.4736   50.4736   50.7384   50.7384   50.8929   50.8929
   51.3427   51.3427   51.6077   51.6077   52.6777   52.6777   52.7081   52.7081   54.1744   54.1744
   54.2454   54.2454   54.6157   54.6157   54.6866   54.6866   55.8100   55.8100   55.8426   55.8426
   55.8625   55.8625   56.0127   56.0127   56.5162   56.5162   57.8341   57.8341   58.1961   58.1961
   58.6472   58.6472   60.1142   60.1142   60.5144   60.5144   60.5195   60.5195   61.1243   61.1243
   61.8384   61.8384   61.9625   61.9625   62.1961   62.1961   64.4570   64.4570   66.4725   66.4725
   67.1183   67.1183   67.1654   67.1654   68.2106   68.2106   68.6998   68.6998   70.8150   70.8150
   74.0227   74.0227   79.9907   79.9907   91.0217   91.0217   91.9305   91.9305   93.3265   93.3265
   98.3387   98.3387   98.7668   98.7668   99.7439   99.7439  103.3054  103.3054  103.7114  103.7114
  110.0613  110.0613  111.5974  111.5974  123.6043  123.6043  125.7188  125.7188  129.9166  129.9166
  134.9916  134.9916  138.2439  138.2439
siesta: Fermi energy =      -3.779894 eV

siesta: Program's energy decomposition (eV):
siesta: Ebs     =     -1135.521573
siesta: Eions   =      3585.165840
siesta: Ena     =       382.019161
siesta: Ekin    =      2903.224260
siesta: Enl     =     -2787.982995
siesta: Eso     =        -0.004284
siesta: Edftu   =         0.000000
siesta: DEna    =        46.987071
siesta: DUscf   =        14.356780
siesta: DUext   =         0.000000
siesta: Exc     =     -1119.760579
siesta: eta*DQ  =         0.000000
siesta: Emadel  =         0.000000
siesta: Emeta   =         0.000000
siesta: Emolmec =         0.000000
siesta: Ekinion =         0.000000
siesta: Eharris =     -4146.326425
siesta: Etot    =     -4146.326425
siesta: FreeEng =     -4146.326425

siesta: Final energy (eV):
siesta:  Band Struct. =   -1135.521573
siesta:       Kinetic =    2903.224260
siesta:       Hartree =    8126.659172
siesta:       Edftu   =       0.000000
siesta:       Eso     =      -0.004284
siesta:    Ext. field =       0.000000
siesta:   Exch.-corr. =   -1119.760579
siesta:  Ion-electron =  -18838.487254
siesta:       Ion-ion =    4782.042259
siesta:       Ekinion =       0.000000
siesta:         Total =   -4146.326425
siesta:         Fermi =      -3.779894

siesta: Atomic forces (eV/Ang):
siesta:      1   -0.233564   -2.545754   -0.000000
siesta:      2    0.013539    0.042837   -0.000000
siesta:      3    0.812169   -0.437426    0.000000
siesta:      4    0.794938   -0.017752    0.000000
siesta:      5    0.056008   -0.088673   -0.000000
siesta:      6    1.858222    0.662355   -0.000000
siesta:      7    0.039995   -0.267359    0.000000
siesta:      8   -0.452780    0.310520   -0.000000
siesta:      9   -0.218069    1.334067    0.000000
siesta:     10   -1.132575    0.380593   -0.000000
siesta:     11   -0.027246   -0.019236   -0.000000
siesta:     12   -0.391147   -0.207535    0.000000
siesta:     13   -0.042043   -0.039573   -0.000000
siesta:     14    0.192874   -0.128491   -0.000000
siesta:     15   -1.314649   -0.988108    0.000000
siesta:     16   -0.037647    0.027497    0.000000
siesta:     17    1.099640   -1.174237   -0.000000
siesta:     18   -0.232324    0.210596    0.000000
siesta:     19   -0.197029   -1.352846    0.000000
siesta:     20   -0.010261   -0.453925    0.000000
siesta:     21   -0.346075    1.123585   -0.000000
siesta:     22   -2.263549   -0.856990   -0.000000
siesta:     23    0.269507    0.604247    0.000000
siesta:     24    0.123165   -0.037517   -0.000000
siesta:     25    0.115221    0.092493   -0.000000
siesta:     26   -0.216227   -0.229970    0.000000
siesta:     27    1.622859    1.359151    0.000000
siesta:     28    3.937718    0.830681   -0.000000
siesta:     29    0.056698    0.114567   -0.000000
siesta: ----------------------------------------
siesta:    Tot    3.877367   -1.752200    0.000000

siesta: Stress tensor (static) (eV/Ang**3):
siesta:    -0.000065    0.000774    0.000000
siesta:     0.000774    0.000854    0.000000
siesta:     0.000000   -0.000000   -0.000059

siesta: Cell volume =       5988.888067 Ang**3

siesta: Pressure (static):
siesta:                Solid            Molecule  Units
siesta:          -0.00000265         -0.00001339  Ry/Bohr**3
siesta:          -0.00024300         -0.00122928  eV/Ang**3
siesta:          -0.38933919         -1.96954499  kBar
(Free)E+ p_basis*V_orbitals  =       -4126.476008
(Free)Eharris+ p_basis*V_orbitals  =       -4126.476008
     spin moment: S , {S} =    0.00000   0.00000   0.00000   0.00000

siesta: Electric dipole (a.u.)  =    1.512604   -0.009647   -0.000000
siesta: Electric dipole (Debye) =    3.844658   -0.024519   -0.000000

cite: Please see "GC.bib" for an exhaustive BiBTeX file.
cite: Please clearly indicate Siesta version in published work: v4.1.5-1-g384057250
cite: This calculation has made use of the following articles
cite: which are encouraged to be cited in a published work.
        Primary SIESTA paper
          DOI: www.doi.org/10.1088/0953-8984/14/11/302
        Spin-orbit coupling (on-site approximation)
          DOI: www.doi.org/10.1088/0953-8984/19/19/489001


WARNING: alloc-realloc-dealloc name mismatch
         Name: atomlist isa
         Size:              -116. Bytes
         Node:     0
         Subsequent mismatches will not be reported
>> End of run:  28-JUN-2023  16:42:00
Job completed
