Siesta Version  : v4.1.5-1-g384057250
Architecture    : gcc
Compiler version: GNU Fortran (Debian 10.2.1-6) 10.2.1 20210110
Compiler flags  : mpifort -O2 -fPIC -ftree-vectorize -fallow-argument-mismatch
PP flags        : -DFC_HAVE_ABORT -DMPI -DSIESTA__FLOOK -DSIESTA__METIS -DSIESTA__MUMPS -DCDF -DNCDF -DNCDF_4 -DNCDF_PARALLEL -DSIESTA__MRRR -DSIESTA__ELPA
Libraries       : libncdf.a libfdict.a  -lflookall -ldl -lnetcdff -lnetcdf -lhdf5_hl -lhdf5 -lhdf5_fortran -lz -lscalapack-openmpi -lopenblas -lmetis -lzmumps -lcmumps -ldmumps -lmumps_common -lpord -lsmumps -lesmumps -lscotch -lscotcherr -fopenmp -lelpa
PARALLEL version
NetCDF support
NetCDF-4 support
NetCDF-4 MPI-IO support
METIS ordering support
Lua support

* Running on 6 nodes in parallel
>> Start of run:  16-OCT-2023  19:02:56

                           ***********************       
                           *  WELCOME TO SIESTA  *       
                           ***********************       

reinit: Reading from standard input
reinit: Dumped input in INPUT_TMP.32060
************************** Dump of input data file ****************************
# mpirun -np 4 siesta-4.1.5 < GC.fdf > GC.out &
SystemLabel      GC
NumberOfAtoms    29
NumberOfSpecies  4
%block ChemicalSpeciesLabel
    1    1  H
    2    7  N
    3   14  Si
    4    8  O
%endblock ChemicalSpeciesLabel
############################################
# This overrides Defaults.fdf configuration
############################################
MD.TypeOfRun                CG # CG, Verlet
MD.Steps                    0
MaxSCFIterations            600
AtomicCoordinatesFormat NotScaledCartesianAng
%block AtomicCoordinatesAndAtomicSpecies
    -0.8114677738565985 6.344699156308547 0.0  1  1  H
    -1.5179545038565985 5.554662976308547 0.0  2  2  N
    -3.2482414138565985 5.996026886308547 0.0  3  3  Si
    -3.4040210938565982 7.486019146308547 0.0  1  4  H
    -4.771563033856599 4.437119366308547 0.0  3  5  Si
    -6.254750663856599 4.679949726308547 0.0  1  6  H
    -3.5731721738565985 2.523843206308547 0.0  3  7  Si
    -4.339197633856599 0.9911264663085471 0.0  2  8  N
    -3.7489510838565985 0.03391343630854715 0.0  1  9  H
    -5.390819953856599 0.9106662363085472 0.0  1  10  H
    -1.8569721138565984 2.579017516308547 0.0  2  11  N
    -0.7819494938565985 3.909356356308547 0.0  3  12  Si
    0.8267238261434013 3.8905460963085474 0.0  4  13  O
    5.6164483 -7.44953905 0.0  1  14  H
    4.58206954 -7.2320376 0.0  2  15  N
    3.29666389 -8.492636 0.0  3  16  Si
    3.80117524 -9.90371886 -0.0  1  17  H
    1.65934232 -8.01362137 0.0  2  18  N
    1.68097912 -6.20463398 -0.0  3  19  Si
    0.54543521 -4.28636135 0.0  3  20  Si
    -1.03431493 -3.94450034 0.0  4  21  O
    1.73226934 -2.87719605 0.0  2  22  N
    1.20957366 -1.92961761 -0.0  1  23  H
    3.50853448 -2.77677601 0.0  3  24  Si
    4.13684451 -1.17938608 0.0  2  25  N
    3.54296161 -0.26248101 0.0  1  26  H
    5.18364407 -1.05231197 -0.0  1  27  H
    4.63288658 -4.07521596 -0.0  2  28  N
    3.79410501 -5.58634043 0.0  3  29  Si
%endblock AtomicCoordinatesAndAtomicSpecies
%include ../../../../Defaults.fdf
************************** End of input data file *****************************

reinit: -----------------------------------------------------------------------
reinit: System Name: 
reinit: -----------------------------------------------------------------------
reinit: System Label: GC
reinit: -----------------------------------------------------------------------

initatom: Reading input for the pseudopotentials and atomic orbitals ----------
Species number:   1 Atomic number:    1 Label: H
Species number:   2 Atomic number:    7 Label: N
Species number:   3 Atomic number:   14 Label: Si
Species number:   4 Atomic number:    8 Label: O

Ground state valence configuration:   1s01
Reading pseudopotential information in formatted form from H.psf

Pseudopotential generated from a relativistic atomic calculation

Valence configuration for pseudopotential generation:
1s( 1.00) rc: 0.01
2p( 0.00) rc: 0.60
3d( 0.00) rc: 1.99
4f( 0.00) rc: 2.49
Ground state valence configuration:   2s02  2p03
Reading pseudopotential information in formatted form from N.psf

Pseudopotential generated from a relativistic atomic calculation

Valence configuration for pseudopotential generation:
2s( 2.00) rc: 0.94
2p( 3.00) rc: 0.59
3d( 0.00) rc: 3.46
4f( 0.00) rc: 2.47
Ground state valence configuration:   3s02  3p02
Reading pseudopotential information in formatted form from Si.psf

Pseudopotential generated from a relativistic atomic calculation

Valence configuration for pseudopotential generation:
3s( 2.00) rc: 1.67
3p( 2.00) rc: 2.04
3d( 0.00) rc: 2.89
4f( 0.00) rc: 2.49
Ground state valence configuration:   2s02  2p04
Reading pseudopotential information in formatted form from O.psf

Pseudopotential generated from a relativistic atomic calculation

Valence configuration for pseudopotential generation:
2s( 2.00) rc: 0.45
2p( 4.00) rc: 0.92
3d( 0.00) rc: 2.24
4f( 0.00) rc: 0.25
For H, standard SIESTA heuristics set lmxkb to 2
 (one more than the basis l, including polarization orbitals).
Use PS.lmax or PS.KBprojectors blocks to override.
For N, standard SIESTA heuristics set lmxkb to 3
 (one more than the basis l, including polarization orbitals).
Use PS.lmax or PS.KBprojectors blocks to override.
For Si, standard SIESTA heuristics set lmxkb to 3
 (one more than the basis l, including polarization orbitals).
Use PS.lmax or PS.KBprojectors blocks to override.
For O, standard SIESTA heuristics set lmxkb to 3
 (one more than the basis l, including polarization orbitals).
Use PS.lmax or PS.KBprojectors blocks to override.

<basis_specs>
===============================================================================
H                    Z=   1    Mass=  1.0100        Charge= 0.17977+309
Lmxo=0 Lmxkb= 2    BasisType=split      Semic=F
L=0  Nsemic=0  Cnfigmx=1
          i=1  nzeta=2  polorb=1  (1s)
            splnorm:   0.62000    
               vcte:    0.0000    
               rinn:    0.0000    
               qcoe:    0.0000    
               qyuk:    0.0000    
               qwid:   0.10000E-01
                rcs:    0.0000      0.0000    
            lambdas:    1.0000      1.0000    
-------------------------------------------------------------------------------
L=0  Nkbl=1  erefs: 0.17977+309
L=1  Nkbl=1  erefs: 0.17977+309
L=2  Nkbl=1  erefs: 0.17977+309
===============================================================================
</basis_specs>

atom: Called for H                     (Z =   1)

read_vps: Pseudopotential generation method:
read_vps: ATM4.2.7  Troullier-Martins                       
Valence charge for ps generation:    1.00000

xc_check: Exchange-correlation functional:
xc_check: GGA Perdew, Burke & Ernzerhof 1996
V l=0 = -2*Zval/r beyond r=  0.0098
V l=1 = -2*Zval/r beyond r=  0.5817
V l=2 = -2*Zval/r beyond r=  1.9372
All V_l potentials equal beyond r=  1.9372
This should be close to max(r_c) in ps generation
All pots = -2*Zval/r beyond r=  1.9372

VLOCAL1: 99.0% of the norm of Vloc inside     11.567 Ry
VLOCAL1: 99.9% of the norm of Vloc inside     26.362 Ry
atom: Maximum radius for 4*pi*r*r*local-pseudopot. charge    2.25106
atom: Maximum radius for r*vlocal+2*Zval:    1.91306
GHOST: No ghost state for L =  0
GHOST: No ghost state for L =  1
GHOST: No ghost state for L =  2

KBgen: Kleinman-Bylander projectors: 
   l= 0   rc=  2.036604   el= -0.477180   Ekb= -6.081590   kbcos= -0.277285
   l= 1   rc=  2.195416   el=  0.001076   Ekb= -0.926943   kbcos= -0.034643
   l= 2   rc=  2.251056   el=  0.002010   Ekb= -0.130941   kbcos= -0.009788

KBgen: Total number of Kleinman-Bylander projectors:    9
atom: -------------------------------------------------------------------------

atom: SANKEY-TYPE ORBITALS:
atom: Selected multiple-zeta basis: split     

SPLIT: Orbitals with angular momentum L= 0

SPLIT: Basis orbitals for state 1s

SPLIT: PAO cut-off radius determined from an
SPLIT: energy shift=  0.002000 Ry

   izeta = 1
                 lambda =    1.000000
                     rc =    6.518340
                 energy =   -0.475305
                kinetic =    0.912139
    potential(screened) =   -1.387444
       potential(ionic) =   -1.907295

   izeta = 2
                 rmatch =    2.141150
              splitnorm =    0.620000
                 energy =    0.566467
                kinetic =    3.772856
    potential(screened) =   -3.206389
       potential(ionic) =   -3.759093

POLgen: Perturbative polarization orbital with L=  1

POLgen: Polarization orbital for state 1s

   izeta = 1
                     rc =    6.518340
                 energy =    0.533861
                kinetic =    1.121086
    potential(screened) =   -0.587225
       potential(ionic) =   -1.053027
atom: Total number of Sankey-type orbitals:  5

atm_pop: Valence configuration (for local Pseudopot. screening):
 1s( 1.00)                                                            
Vna: chval, zval:    1.00000   1.00000

Vna:  Cut-off radius for the neutral-atom potential:   6.518340

atom: _________________________________________________________________________

<basis_specs>
===============================================================================
N                    Z=   7    Mass=  14.010        Charge= 0.17977+309
Lmxo=1 Lmxkb= 3    BasisType=split      Semic=F
L=0  Nsemic=0  Cnfigmx=2
          i=1  nzeta=2  polorb=0  (2s)
            splnorm:   0.28000    
               vcte:    0.0000    
               rinn:    0.0000    
               qcoe:    0.0000    
               qyuk:    0.0000    
               qwid:   0.10000E-01
                rcs:    0.0000      0.0000    
            lambdas:    1.0000      1.0000    
L=1  Nsemic=0  Cnfigmx=2
          i=1  nzeta=2  polorb=1  (2p)
            splnorm:   0.28000    
               vcte:    0.0000    
               rinn:    0.0000    
               qcoe:    0.0000    
               qyuk:    0.0000    
               qwid:   0.10000E-01
                rcs:    0.0000      0.0000    
            lambdas:    1.0000      1.0000    
-------------------------------------------------------------------------------
L=0  Nkbl=1  erefs: 0.17977+309
L=1  Nkbl=1  erefs: 0.17977+309
L=2  Nkbl=1  erefs: 0.17977+309
L=3  Nkbl=1  erefs: 0.17977+309
===============================================================================
</basis_specs>

atom: Called for N                     (Z =   7)

read_vps: Pseudopotential generation method:
read_vps: ATM4.2.7  Troullier-Martins                       
Valence charge for ps generation:    5.00000

xc_check: Exchange-correlation functional:
xc_check: GGA Perdew, Burke & Ernzerhof 1996
V l=0 = -2*Zval/r beyond r=  1.2889
V l=1 = -2*Zval/r beyond r=  1.2889
V l=2 = -2*Zval/r beyond r=  3.4178
V l=3 = -2*Zval/r beyond r=  2.4084
All V_l potentials equal beyond r=  3.3753
This should be close to max(r_c) in ps generation
All pots = -2*Zval/r beyond r=  3.4178

VLOCAL1: 99.0% of the norm of Vloc inside      3.810 Ry
VLOCAL1: 99.9% of the norm of Vloc inside      8.683 Ry
atom: Maximum radius for 4*pi*r*r*local-pseudopot. charge    4.02088
atom: Maximum radius for r*vlocal+2*Zval:    3.54838
GHOST: No ghost state for L =  0
GHOST: No ghost state for L =  1
GHOST: No ghost state for L =  2
GHOST: No ghost state for L =  3

KBgen: Kleinman-Bylander projectors: 
   l= 0   rc=  3.417763   el= -1.365098   Ekb= -4.433130   kbcos= -0.707855
   l= 1   rc=  3.375302   el= -0.521201   Ekb=-13.264039   kbcos= -0.535594
   l= 2   rc=  3.872880   el=  0.001991   Ekb= -0.641094   kbcos= -0.062456
   l= 3   rc=  3.970931   el=  0.003093   Ekb= -0.474517   kbcos= -0.018236

KBgen: Total number of Kleinman-Bylander projectors:   16
atom: -------------------------------------------------------------------------

atom: SANKEY-TYPE ORBITALS:
atom: Selected multiple-zeta basis: split     

SPLIT: Orbitals with angular momentum L= 0

SPLIT: Basis orbitals for state 2s

SPLIT: PAO cut-off radius determined from an
SPLIT: energy shift=  0.002000 Ry

   izeta = 1
                 lambda =    1.000000
                     rc =    4.730425
                 energy =   -1.363399
                kinetic =    1.245246
    potential(screened) =   -2.608645
       potential(ionic) =   -8.121105

   izeta = 2
                 rmatch =    2.531849
              splitnorm =    0.280000
                 energy =   -0.959908
                kinetic =    2.409435
    potential(screened) =   -3.369343
       potential(ionic) =   -9.427975

SPLIT: Orbitals with angular momentum L= 1

SPLIT: Basis orbitals for state 2p

SPLIT: PAO cut-off radius determined from an
SPLIT: energy shift=  0.002000 Ry

   izeta = 1
                 lambda =    1.000000
                     rc =    5.924108
                 energy =   -0.519262
                kinetic =    3.672940
    potential(screened) =   -4.192202
       potential(ionic) =   -9.518354

   izeta = 2
                 rmatch =    2.531849
              splitnorm =    0.280000
                 energy =   -0.104258
                kinetic =    6.807538
    potential(screened) =   -6.911796
       potential(ionic) =  -13.149920

POLgen: Perturbative polarization orbital with L=  2

POLgen: Polarization orbital for state 2p

   izeta = 1
                     rc =    5.924108
                 energy =    1.427508
                kinetic =    2.872379
    potential(screened) =   -1.444871
       potential(ionic) =   -5.563644
atom: Total number of Sankey-type orbitals: 13

atm_pop: Valence configuration (for local Pseudopot. screening):
 2s( 2.00)                                                            
 2p( 3.00)                                                            
Vna: chval, zval:    5.00000   5.00000

Vna:  Cut-off radius for the neutral-atom potential:   5.924108

atom: _________________________________________________________________________

<basis_specs>
===============================================================================
Si                   Z=  14    Mass=  28.090        Charge= 0.17977+309
Lmxo=1 Lmxkb= 3    BasisType=split      Semic=F
L=0  Nsemic=0  Cnfigmx=3
          i=1  nzeta=2  polorb=0  (3s)
            splnorm:   0.28000    
               vcte:    0.0000    
               rinn:    0.0000    
               qcoe:    0.0000    
               qyuk:    0.0000    
               qwid:   0.10000E-01
                rcs:    0.0000      0.0000    
            lambdas:    1.0000      1.0000    
L=1  Nsemic=0  Cnfigmx=3
          i=1  nzeta=2  polorb=1  (3p)
            splnorm:   0.28000    
               vcte:    0.0000    
               rinn:    0.0000    
               qcoe:    0.0000    
               qyuk:    0.0000    
               qwid:   0.10000E-01
                rcs:    0.0000      0.0000    
            lambdas:    1.0000      1.0000    
-------------------------------------------------------------------------------
L=0  Nkbl=1  erefs: 0.17977+309
L=1  Nkbl=1  erefs: 0.17977+309
L=2  Nkbl=1  erefs: 0.17977+309
L=3  Nkbl=1  erefs: 0.17977+309
===============================================================================
</basis_specs>

atom: Called for Si                    (Z =  14)

read_vps: Pseudopotential generation method:
read_vps: ATM4.2.7  Troullier-Martins                       
Valence charge for ps generation:    4.00000

xc_check: Exchange-correlation functional:
xc_check: GGA Perdew, Burke & Ernzerhof 1996
V l=0 = -2*Zval/r beyond r=  2.7826
V l=1 = -2*Zval/r beyond r=  2.7826
V l=2 = -2*Zval/r beyond r=  2.9253
V l=3 = -2*Zval/r beyond r=  2.7826
All V_l potentials equal beyond r=  2.8530
This should be close to max(r_c) in ps generation
All pots = -2*Zval/r beyond r=  2.9253

VLOCAL1: 99.0% of the norm of Vloc inside      5.333 Ry
VLOCAL1: 99.9% of the norm of Vloc inside     12.154 Ry
atom: Maximum radius for 4*pi*r*r*local-pseudopot. charge    3.39869
atom: Maximum radius for r*vlocal+2*Zval:    2.96205
GHOST: No ghost state for L =  0
GHOST: No ghost state for L =  1
GHOST: No ghost state for L =  2
GHOST: No ghost state for L =  3

KBgen: Kleinman-Bylander projectors: 
   l= 0   rc=  3.075247   el= -0.794092   Ekb=  5.879390   kbcos=  0.167461
   l= 1   rc=  3.153101   el= -0.300068   Ekb=  2.642817   kbcos=  0.058301
   l= 2   rc=  3.273594   el=  0.001958   Ekb= -1.185135   kbcos= -0.104411
   l= 3   rc=  3.232927   el=  0.003046   Ekb= -0.497174   kbcos= -0.015889

KBgen: Total number of Kleinman-Bylander projectors:   16
atom: -------------------------------------------------------------------------

atom: SANKEY-TYPE ORBITALS:
atom: Selected multiple-zeta basis: split     

SPLIT: Orbitals with angular momentum L= 0

SPLIT: Basis orbitals for state 3s

SPLIT: PAO cut-off radius determined from an
SPLIT: energy shift=  0.002000 Ry

   izeta = 1
                 lambda =    1.000000
                     rc =    6.429618
                 energy =   -0.792283
                kinetic =    0.525293
    potential(screened) =   -1.317576
       potential(ionic) =   -3.744923

   izeta = 2
                 rmatch =    3.998416
              splitnorm =    0.280000
                 energy =   -0.583081
                kinetic =    1.069570
    potential(screened) =   -1.652651
       potential(ionic) =   -4.235185

SPLIT: Orbitals with angular momentum L= 1

SPLIT: Basis orbitals for state 3p

SPLIT: PAO cut-off radius determined from an
SPLIT: energy shift=  0.002000 Ry

   izeta = 1
                 lambda =    1.000000
                     rc =    8.464845
                 energy =   -0.298236
                kinetic =    0.785360
    potential(screened) =   -1.083596
       potential(ionic) =   -3.273779

   izeta = 2
                 rmatch =    4.587816
              splitnorm =    0.280000
                 energy =   -0.131871
                kinetic =    1.403687
    potential(screened) =   -1.535557
       potential(ionic) =   -4.015310

POLgen: Perturbative polarization orbital with L=  2

POLgen: Polarization orbital for state 3p

   izeta = 1
                     rc =    8.464845
                 energy =    0.321949
                kinetic =    1.055677
    potential(screened) =   -0.733728
       potential(ionic) =   -2.672950
atom: Total number of Sankey-type orbitals: 13

atm_pop: Valence configuration (for local Pseudopot. screening):
 3s( 2.00)                                                            
 3p( 2.00)                                                            
Vna: chval, zval:    4.00000   4.00000

Vna:  Cut-off radius for the neutral-atom potential:   8.464845

atom: _________________________________________________________________________

<basis_specs>
===============================================================================
O                    Z=   8    Mass=  16.000        Charge= 0.17977+309
Lmxo=1 Lmxkb= 3    BasisType=split      Semic=F
L=0  Nsemic=0  Cnfigmx=2
          i=1  nzeta=2  polorb=0  (2s)
            splnorm:   0.28000    
               vcte:    0.0000    
               rinn:    0.0000    
               qcoe:    0.0000    
               qyuk:    0.0000    
               qwid:   0.10000E-01
                rcs:    0.0000      0.0000    
            lambdas:    1.0000      1.0000    
L=1  Nsemic=0  Cnfigmx=2
          i=1  nzeta=2  polorb=1  (2p)
            splnorm:   0.28000    
               vcte:    0.0000    
               rinn:    0.0000    
               qcoe:    0.0000    
               qyuk:    0.0000    
               qwid:   0.10000E-01
                rcs:    0.0000      0.0000    
            lambdas:    1.0000      1.0000    
-------------------------------------------------------------------------------
L=0  Nkbl=1  erefs: 0.17977+309
L=1  Nkbl=1  erefs: 0.17977+309
L=2  Nkbl=1  erefs: 0.17977+309
L=3  Nkbl=1  erefs: 0.17977+309
===============================================================================
</basis_specs>

atom: Called for O                     (Z =   8)

read_vps: Pseudopotential generation method:
read_vps: ATM4.2.7  Troullier-Martins                       
Valence charge for ps generation:    6.00000

xc_check: Exchange-correlation functional:
xc_check: GGA Perdew, Burke & Ernzerhof 1996
V l=0 = -2*Zval/r beyond r=  1.1000
V l=1 = -2*Zval/r beyond r=  1.1000
V l=2 = -2*Zval/r beyond r=  2.2154
V l=3 = -2*Zval/r beyond r=  1.1000
All V_l potentials equal beyond r=  2.2154
This should be close to max(r_c) in ps generation
All pots = -2*Zval/r beyond r=  2.2154

VLOCAL1: 99.0% of the norm of Vloc inside      8.845 Ry
VLOCAL1: 99.9% of the norm of Vloc inside     20.157 Ry
atom: Maximum radius for 4*pi*r*r*local-pseudopot. charge    2.67231
atom: Maximum radius for r*vlocal+2*Zval:    2.32897
GHOST: No ghost state for L =  0
GHOST: No ghost state for L =  1
GHOST: No ghost state for L =  2
GHOST: No ghost state for L =  3

KBgen: Kleinman-Bylander projectors: 
   l= 0   rc=  2.243238   el= -1.759686   Ekb=**********   kbcos= -0.171774
   l= 1   rc=  2.328968   el= -0.663873   Ekb=-14.506792   kbcos= -0.519897
   l= 2   rc=  2.573941   el=  0.002031   Ekb= -1.137373   kbcos= -0.019581
   l= 3   rc=  2.606321   el=  0.003153   Ekb= -1.013546   kbcos= -0.003122

KBgen: Total number of Kleinman-Bylander projectors:   16
atom: -------------------------------------------------------------------------

atom: SANKEY-TYPE ORBITALS:
atom: Selected multiple-zeta basis: split     

SPLIT: Orbitals with angular momentum L= 0

SPLIT: Basis orbitals for state 2s

SPLIT: PAO cut-off radius determined from an
SPLIT: energy shift=  0.002000 Ry

   izeta = 1
                 lambda =    1.000000
                     rc =    4.243912
                 energy =   -1.758270
                kinetic =    3.286084
    potential(screened) =   -5.044353
       potential(ionic) =  -12.921184

   izeta = 2
                 rmatch =    2.187845
              splitnorm =    0.280000
                 energy =   -0.885018
                kinetic =    8.134434
    potential(screened) =   -9.019452
       potential(ionic) =  -17.710645

SPLIT: Orbitals with angular momentum L= 1

SPLIT: Basis orbitals for state 2p

SPLIT: PAO cut-off radius determined from an
SPLIT: energy shift=  0.002000 Ry

   izeta = 1
                 lambda =    1.000000
                     rc =    5.314825
                 energy =   -0.661986
                kinetic =    4.917472
    potential(screened) =   -5.579458
       potential(ionic) =  -13.236259

   izeta = 2
                 rmatch =    2.160663
              splitnorm =    0.280000
                 energy =   -0.068760
                kinetic =    9.183374
    potential(screened) =   -9.252135
       potential(ionic) =  -18.274251

POLgen: Perturbative polarization orbital with L=  2

POLgen: Polarization orbital for state 2p

   izeta = 1
                     rc =    5.314825
                 energy =    1.970580
                kinetic =    3.886128
    potential(screened) =   -1.915547
       potential(ionic) =   -7.749584
atom: Total number of Sankey-type orbitals: 13

atm_pop: Valence configuration (for local Pseudopot. screening):
 2s( 2.00)                                                            
 2p( 4.00)                                                            
Vna: chval, zval:    6.00000   6.00000

Vna:  Cut-off radius for the neutral-atom potential:   5.314825

atom: _________________________________________________________________________

prinput: Basis input ----------------------------------------------------------

PAO.BasisType split     

%block ChemicalSpeciesLabel
    1    1 H                       # Species index, atomic number, species label
    2    7 N                       # Species index, atomic number, species label
    3   14 Si                      # Species index, atomic number, species label
    4    8 O                       # Species index, atomic number, species label
%endblock ChemicalSpeciesLabel

%block PAO.Basis                 # Define Basis set
H                     1                    # Species label, number of l-shells
 n=1   0   2 P   1                   # n, l, Nzeta, Polarization, NzetaPol
   6.518      2.141   
   1.000      1.000   
N                     2                    # Species label, number of l-shells
 n=2   0   2                         # n, l, Nzeta 
   4.730      2.532   
   1.000      1.000   
 n=2   1   2 P   1                   # n, l, Nzeta, Polarization, NzetaPol
   5.924      2.532   
   1.000      1.000   
Si                    2                    # Species label, number of l-shells
 n=3   0   2                         # n, l, Nzeta 
   6.430      3.998   
   1.000      1.000   
 n=3   1   2 P   1                   # n, l, Nzeta, Polarization, NzetaPol
   8.465      4.588   
   1.000      1.000   
O                     2                    # Species label, number of l-shells
 n=2   0   2                         # n, l, Nzeta 
   4.244      2.188   
   1.000      1.000   
 n=2   1   2 P   1                   # n, l, Nzeta, Polarization, NzetaPol
   5.315      2.161   
   1.000      1.000   
%endblock PAO.Basis

prinput: ----------------------------------------------------------------------

Dumping basis to NetCDF file H.ion.nc
Dumping basis to NetCDF file N.ion.nc
Dumping basis to NetCDF file Si.ion.nc
Dumping basis to NetCDF file O.ion.nc
coor:   Atomic-coordinates input format  =     Cartesian coordinates
coor:                                          (in Angstroms)

siesta: Atomic coordinates (Bohr) and species
siesta:     -1.53345  11.98975   0.00000  1        1
siesta:     -2.86852  10.49680   0.00000  2        2
siesta:     -6.13829  11.33085   0.00000  3        3
siesta:     -6.43267  14.14653   0.00000  1        4
siesta:     -9.01695   8.38494   0.00000  3        5
siesta:    -11.81977   8.84383   0.00000  1        6
siesta:     -6.75232   4.76937   0.00000  3        7
siesta:     -8.19990   1.87296   0.00000  2        8
siesta:     -7.08449   0.06409   0.00000  1        9
siesta:    -10.18718   1.72091   0.00000  1       10
siesta:     -3.50917   4.87364   0.00000  2       11
siesta:     -1.47767   7.38762   0.00000  3       12
siesta:      1.56228   7.35207   0.00000  4       13
siesta:     10.61355 -14.07759   0.00000  1       14
siesta:      8.65886 -13.66658   0.00000  2       15
siesta:      6.22979 -16.04876   0.00000  3       16
siesta:      7.18318 -18.71532  -0.00000  1       17
siesta:      3.13570 -15.14356   0.00000  2       18
siesta:      3.17659 -11.72506  -0.00000  3       19
siesta:      1.03072  -8.10005   0.00000  3       20
siesta:     -1.95457  -7.45403   0.00000  4       21
siesta:      3.27352  -5.43711   0.00000  2       22
siesta:      2.28576  -3.64645  -0.00000  1       23
siesta:      6.63017  -5.24735   0.00000  3       24
siesta:      7.81751  -2.22872   0.00000  2       25
siesta:      6.69523  -0.49602   0.00000  1       26
siesta:      9.79567  -1.98858  -0.00000  1       27
siesta:      8.75489  -7.70105  -0.00000  2       28
siesta:      7.16982 -10.55666   0.00000  3       29

siesta: Automatic unit cell vectors (Ang):
siesta:   20.646902    0.000000    0.000000
siesta:    0.000000   26.717295    0.000000
siesta:    0.000000    0.000000    9.854683

siesta: System type = molecule  

initatomlists: Number of atoms, orbitals, and projectors:     29   297   394

siesta: ******************** Simulation parameters ****************************
siesta:
siesta: The following are some of the parameters of the simulation.
siesta: A complete list of the parameters used, including default values,
siesta: can be found in file out.fdf
siesta:
redata: Spin configuration                          = spin-orbit
redata: Number of spin components                   = 8
redata: Time-Reversal Symmetry                      = F
redata: Spin spiral                                 = F
############################################################
This spin-orbit implementation uses a local approximation.
From 4.2 and onwards the full non-local approximation is implemented
You are strongly advised to use >=4.2 versions!
############################################################
redata: Long output                                 =   F
redata: Number of Atomic Species                    =        4
redata: Charge density info will appear in .RHO file
redata: Write Mulliken Pop.                         = NO
redata: Matel table size (NRTAB)                    =     1024
redata: Mesh Cutoff                                 =   340.0000 Ry
redata: Net charge of the system                    =     0.0000 |e|
redata: Min. number of SCF Iter                     =        1
redata: Max. number of SCF Iter                     =      600
redata: SCF convergence failure will abort job
redata: SCF mix quantity                            = Hamiltonian
redata: Mix DM or H after convergence               =   F
redata: Recompute H after scf cycle                 =   F
redata: Mix DM in first SCF step                    =   T
redata: Write Pulay info on disk                    =   F
redata: New DM Occupancy tolerance                  = 0.000000000001
redata: No kicks to SCF
redata: DM Mixing Weight for Kicks                  =     0.5000
redata: Require Harris convergence for SCF          =   F
redata: Harris energy tolerance for SCF             =     0.000100 eV
redata: Require DM convergence for SCF              =   T
redata: DM tolerance for SCF                        =     0.000008
redata: Require EDM convergence for SCF             =   F
redata: EDM tolerance for SCF                       =     0.001000 eV
redata: Require H convergence for SCF               =   T
redata: Hamiltonian tolerance for SCF               =     0.000001 eV
redata: Require (free) Energy convergence for SCF   =   F
redata: (free) Energy tolerance for SCF             =     0.000100 eV
redata: Using Saved Data (generic)                  =   F
redata: Use continuation files for DM               =   T
redata: Neglect nonoverlap interactions             =   F
redata: Method of Calculation                       = Diagonalization
redata: Electronic Temperature                      =   299.9978 K
redata: Fix the spin of the system                  =   F
redata: Dynamics option                             = Single-point calculation
mix.SCF: Pulay mixing                            = Pulay
mix.SCF:    Variant                              = stable
mix.SCF:    History steps                        = 6
mix.SCF:    Linear mixing weight                 =     0.250000
mix.SCF:    Mixing weight                        =     0.250000
mix.SCF:    SVD condition                        = 0.1000E-07
mix.SCF:    Restart steps                        = 24
mix.SCF:    Restart save steps                   = 3
mix.SCF: Spin-component mixing                   all
redata: Save all siesta data in one NC              =   F
redata: ***********************************************************************

%block SCF.Mixers
  Pulay
%endblock SCF.Mixers

%block SCF.Mixer.Pulay
  # Mixing method
  method pulay
  variant stable

  # Mixing options
  weight 0.2500
  weight.linear 0.2500
  history 6
  restart 24
  restart.save 3
%endblock SCF.Mixer.Pulay

DM_history_depth set to one: no extrapolation allowed by default for geometry relaxation
Size of DM history Fstack: 1
Total number of electrons:    98.000000
Total ionic charge:    98.000000

* ProcessorY, Blocksize:    2  24


* Orbital distribution balance (max,min):    57    48


Time-reversal symmetry not used.

siesta: k-grid: Number of k-points =     1
siesta: k-grid: Cutoff (effective) =     4.927 Ang
siesta: k-grid: Supercell and displacements
siesta: k-grid:    1   0   0      0.000
siesta: k-grid:    0   1   0      0.000
siesta: k-grid:    0   0   1      0.000

diag: Algorithm                                     = ELPA-1stage
diag: Parallel over k                               =   F
diag: Use parallel 2D distribution                  =   T
diag: Parallel block-size                           = 24
diag: Parallel distribution                         =     2 x     3
diag: Used triangular part                          = Lower
diag: Absolute tolerance                            =  0.100E-15
diag: Orthogonalization factor                      =  0.100E-05
diag: Memory factor                                 =  1.0000


ts: **************************************************************
ts: Save H and S matrices                           =    F
ts: Save DM and EDM matrices                        =    F
ts: Only save the overlap matrix S                  =    F
ts: **************************************************************

************************ Begin: TS CHECKS AND WARNINGS ************************
************************ End: TS CHECKS AND WARNINGS **************************


                     ====================================
                        Single-point calculation
                     ====================================

outcoor: Atomic coordinates (Ang):                          
   -0.81146777    6.34469916    0.00000000   1       1  H
   -1.51795450    5.55466298    0.00000000   2       2  N
   -3.24824141    5.99602689    0.00000000   3       3  Si
   -3.40402109    7.48601915    0.00000000   1       4  H
   -4.77156303    4.43711937    0.00000000   3       5  Si
   -6.25475066    4.67994973    0.00000000   1       6  H
   -3.57317217    2.52384321    0.00000000   3       7  Si
   -4.33919763    0.99112647    0.00000000   2       8  N
   -3.74895108    0.03391344    0.00000000   1       9  H
   -5.39081995    0.91066624    0.00000000   1      10  H
   -1.85697211    2.57901752    0.00000000   2      11  N
   -0.78194949    3.90935636    0.00000000   3      12  Si
    0.82672383    3.89054610    0.00000000   4      13  O
    5.61644830   -7.44953905    0.00000000   1      14  H
    4.58206954   -7.23203760    0.00000000   2      15  N
    3.29666389   -8.49263600    0.00000000   3      16  Si
    3.80117524   -9.90371886    0.00000000   1      17  H
    1.65934232   -8.01362137    0.00000000   2      18  N
    1.68097912   -6.20463398    0.00000000   3      19  Si
    0.54543521   -4.28636135    0.00000000   3      20  Si
   -1.03431493   -3.94450034    0.00000000   4      21  O
    1.73226934   -2.87719605    0.00000000   2      22  N
    1.20957366   -1.92961761    0.00000000   1      23  H
    3.50853448   -2.77677601    0.00000000   3      24  Si
    4.13684451   -1.17938608    0.00000000   2      25  N
    3.54296161   -0.26248101    0.00000000   1      26  H
    5.18364407   -1.05231197    0.00000000   1      27  H
    4.63288658   -4.07521596    0.00000000   2      28  N
    3.79410501   -5.58634043    0.00000000   3      29  Si

outcell: Unit cell vectors (Ang):
       20.646902    0.000000    0.000000
        0.000000   26.717295    0.000000
        0.000000    0.000000    9.854683

outcell: Cell vector modules (Ang)   :   20.646902   26.717295    9.854683
outcell: Cell angles (23,13,12) (deg):     90.0000     90.0000     90.0000
outcell: Cell volume (Ang**3)        :   5436.1326
<dSpData1D:S at geom step 0
  <sparsity:sparsity for geom step 0
    nrows_g=297 nrows=57 sparsity=.0963 nnzs=8493, refcount: 8>
  <dData1D:(new from dSpData1D) n=8493, refcount: 1>
refcount: 1>
new_DM -- step:     1
Initializing Density Matrix...

Attempting to read DM from file... Failed...
DM filled with atomic data:
<dSpData2D:DM initialized from atoms
  <sparsity:sparsity for geom step 0
    nrows_g=297 nrows=57 sparsity=.0963 nnzs=8493, refcount: 9>
  <dData2D:DM n=8493 m=8, refcount: 1>
refcount: 1>
     spin moment: S , {S} =   56.00000   0.00000   0.00000  56.00000
No. of atoms with KB's overlaping orbs in proc 0. Max # of overlaps:      28     142

Initializing spin-orbit part of the Hamiltonian
  Adding spin-orbit effects for H 
  Adding spin-orbit effects for N 
  Adding spin-orbit effects for Si
  Adding spin-orbit effects for O 


New grid distribution:   1
           1       1:  120    1:   75    1:   20
           2       1:  120    1:   75   21:   40
           3       1:  120    1:   75   41:   60
           4       1:  120   76:  150    1:   20
           5       1:  120   76:  150   21:   40
           6       1:  120   76:  150   41:   60

InitMesh: MESH =   240 x   300 x   120 =     8640000
InitMesh: (bp) =   120 x   150 x    60 =     1080000
InitMesh: Mesh cutoff (required, used) =   340.000   348.465 Ry
ExtMesh (bp) on 0 =   228 x   179 x   132 =     5387184
New grid distribution:   2
           1       1:   87    1:  106    1:   60
           2      88:  120    1:   23    1:   60
           3       1:   15  107:  150    1:   60
           4      16:  120  126:  150    1:   60
           5      88:  120   24:  106    1:   60
           6      16:  120  107:  125    1:   60
New grid distribution:   3
           1       1:   67    1:   90    1:   60
           2      68:  120   27:   90    1:   60
           3      68:  120    1:   26    1:   60
           4       1:   21   91:  150    1:   60
           5      22:  120   91:  125    1:   60
           6      22:  120  126:  150    1:   60
Setting up quadratic distribution...
ExtMesh (bp) on 0 =   195 x   210 x   172 =     7043400
PhiOnMesh: Number of (b)points on node 0 =               553320
PhiOnMesh: nlist on node 0 =              2456430

stepf: Fermi-Dirac step function

siesta: Program's energy decomposition (eV):
siesta: Ebs     =      -622.243020
siesta: Eions   =      3585.165840
siesta: Ena     =       381.828394
siesta: Ekin    =      3368.815415
siesta: Enl     =     -3297.178883
siesta: Eso     =        -0.003410
siesta: Edftu   =         0.000000
siesta: DEna    =       153.518127
siesta: DUscf   =        81.761738
siesta: DUext   =         0.000000
siesta: Exc     =     -1204.011804
siesta: eta*DQ  =         0.000000
siesta: Emadel  =         0.000000
siesta: Emeta   =         0.000000
siesta: Emolmec =         0.000000
siesta: Ekinion =         0.000000
siesta: Eharris =     -4020.878281
siesta: Etot    =     -4100.436263
siesta: FreeEng =     -4100.437297

        iscf     Eharris(eV)        E_KS(eV)     FreeEng(eV)     dDmax    Ef(eV) dHmax(eV)
   scf:    1    -4020.878281    -4100.436263    -4100.437297  0.965718 -4.903707 21.937086
     spin moment: S , {S} =    2.00581  -0.00000  -0.00000   2.00581
timer: Routine,Calls,Time,% = IterSCF        1       6.233  24.20
   scf:    2    -4147.102511    -4135.847929    -4135.850121  0.451475 -4.215488 11.270934
     spin moment: S , {S} =    1.98772  -0.00000   0.00000   1.98772
   scf:    3    -4108.013043    -4133.509022    -4133.518329  0.423039 -4.337057 11.922732
     spin moment: S , {S} =    2.06424  -0.00000  -0.00000   2.06424
   scf:    4    -4149.498751    -4144.898187    -4144.898188  0.323408 -3.910294  7.394002
     spin moment: S , {S} =    0.00010  -0.00000  -0.00000   0.00010
   scf:    5    -4146.225563    -4145.666065    -4145.666065  0.035788 -3.707598  4.717190
     spin moment: S , {S} =    0.00006  -0.00000  -0.00000   0.00006
   scf:    6    -4146.455832    -4146.070615    -4146.070615  0.024446 -3.571724  2.272600
     spin moment: S , {S} =    0.00003   0.00000  -0.00000   0.00003
   scf:    7    -4146.425540    -4146.244563    -4146.244563  0.021192 -3.783800  0.887217
     spin moment: S , {S} =    0.00001   0.00000  -0.00000   0.00001
   scf:    8    -4146.364493    -4146.302608    -4146.302608  0.012260 -3.714805  0.497431
     spin moment: S , {S} =    0.00000   0.00000   0.00000   0.00000
   scf:    9    -4146.341099    -4146.321188    -4146.321188  0.006509 -3.671526  0.372932
     spin moment: S , {S} =    0.00000   0.00000  -0.00000   0.00000
   scf:   10    -4146.372114    -4146.340669    -4146.340669  0.021143 -3.784171  0.222750
     spin moment: S , {S} =    0.00000   0.00000  -0.00000  -0.00000
   scf:   11    -4146.344421    -4146.342523    -4146.342523  0.005778 -3.773602  0.060830
     spin moment: S , {S} =    0.00000   0.00000  -0.00000  -0.00000
   scf:   12    -4146.343592    -4146.343070    -4146.343070  0.000949 -3.768797  0.026212
     spin moment: S , {S} =    0.00000   0.00000  -0.00000   0.00000
   scf:   13    -4146.343522    -4146.343293    -4146.343293  0.001270 -3.766150  0.016854
     spin moment: S , {S} =    0.00000   0.00000  -0.00000  -0.00000
   scf:   14    -4146.343545    -4146.343412    -4146.343412  0.001101 -3.765790  0.011174
     spin moment: S , {S} =    0.00000   0.00000  -0.00000  -0.00000
   scf:   15    -4146.343509    -4146.343457    -4146.343457  0.000862 -3.764859  0.008323
     spin moment: S , {S} =    0.00000   0.00000  -0.00000   0.00000
   scf:   16    -4146.343529    -4146.343489    -4146.343489  0.000969 -3.764293  0.005685
     spin moment: S , {S} =    0.00000   0.00000  -0.00000   0.00000
   scf:   17    -4146.343506    -4146.343496    -4146.343496  0.000425 -3.764304  0.004273
     spin moment: S , {S} =    0.00000  -0.00000  -0.00000   0.00000
   scf:   18    -4146.343506    -4146.343501    -4146.343501  0.000360 -3.764507  0.002560
     spin moment: S , {S} =    0.00000  -0.00000  -0.00000   0.00000
   scf:   19    -4146.343506    -4146.343503    -4146.343503  0.000257 -3.764652  0.001667
     spin moment: S , {S} =    0.00000  -0.00000  -0.00000   0.00000
   scf:   20    -4146.343505    -4146.343504    -4146.343504  0.000180 -3.764657  0.001001
     spin moment: S , {S} =    0.00000  -0.00000  -0.00000   0.00000
   scf:   21    -4146.343505    -4146.343504    -4146.343504  0.000168 -3.764625  0.000402
     spin moment: S , {S} =    0.00000  -0.00000  -0.00000   0.00000
   scf:   22    -4146.343505    -4146.343504    -4146.343504  0.000080 -3.764591  0.000206
     spin moment: S , {S} =    0.00000  -0.00000  -0.00000   0.00000
   scf:   23    -4146.343504    -4146.343504    -4146.343504  0.000018 -3.764590  0.000155
     spin moment: S , {S} =    0.00000  -0.00000  -0.00000   0.00000
   scf:   24    -4146.343504    -4146.343504    -4146.343504  0.000008 -3.764596  0.000075
     spin moment: S , {S} =    0.00000  -0.00000  -0.00000   0.00000
mix: Pulay -- resetting history
   scf:   25    -4146.343504    -4146.343504    -4146.343504  0.000004 -3.764599  0.000035
     spin moment: S , {S} =    0.00000  -0.00000  -0.00000   0.00000
   scf:   26    -4146.343504    -4146.343504    -4146.343504  0.000003 -3.764599  0.000027
     spin moment: S , {S} =    0.00000  -0.00000  -0.00000   0.00000
   scf:   27    -4146.343504    -4146.343504    -4146.343504  0.000001 -3.764597  0.000018
     spin moment: S , {S} =    0.00000  -0.00000  -0.00000   0.00000
   scf:   28    -4146.343504    -4146.343504    -4146.343504  0.000001 -3.764595  0.000011
     spin moment: S , {S} =    0.00000  -0.00000  -0.00000  -0.00000
   scf:   29    -4146.343504    -4146.343504    -4146.343504  0.000001 -3.764595  0.000007
     spin moment: S , {S} =    0.00000  -0.00000  -0.00000  -0.00000
   scf:   30    -4146.343504    -4146.343504    -4146.343504  0.000001 -3.764595  0.000004
     spin moment: S , {S} =    0.00000  -0.00000  -0.00000  -0.00000
   scf:   31    -4146.343504    -4146.343504    -4146.343504  0.000001 -3.764595  0.000002
     spin moment: S , {S} =    0.00000  -0.00000  -0.00000  -0.00000
   scf:   32    -4146.343504    -4146.343504    -4146.343504  0.000000 -3.764595  0.000001
     spin moment: S , {S} =    0.00000  -0.00000  -0.00000  -0.00000
   scf:   33    -4146.343504    -4146.343504    -4146.343504  0.000000 -3.764595  0.000001
     spin moment: S , {S} =    0.00000  -0.00000  -0.00000  -0.00000

SCF Convergence by DM+H criterion
max |DM_out - DM_in|         :     0.0000001415
max |H_out - H_in|      (eV) :     0.0000005254
SCF cycle converged after 33 iterations

Using DM_out to compute the final energy and forces
No. of atoms with KB's overlaping orbs in proc 0. Max # of overlaps:      28     142

siesta: E_KS(eV) =            -4146.3435

siesta: E_KS - E_eggbox =     -4146.3435
     spin moment: S , {S} =    0.00000  -0.00000  -0.00000  -0.00000

siesta: Atomic forces (eV/Ang):
     1    0.058787   -0.056611   -0.000000
     2   -0.519327    0.290943   -0.000000
     3    0.421271   -0.023204    0.000000
     4   -0.123474    0.100285   -0.000000
     5   -0.206660   -0.218701   -0.000000
     6   -0.010836    0.064798    0.000000
     7    1.186158    1.034724   -0.000000
     8    0.795469   -2.299851    0.000000
     9   -1.301172    1.795828    0.000000
    10    0.094465   -0.323597   -0.000000
    11   -1.017082   -0.328911   -0.000000
    12    1.216133   -0.233201   -0.000000
    13    1.720258    3.807600    0.000000
    14   -0.017685   -0.032227    0.000000
    15    0.112585    0.031348   -0.000000
    16    0.022932   -0.015720    0.000000
    17   -0.106057    0.109308    0.000000
    18   -0.009282    0.046983   -0.000000
    19    0.258413    0.030141   -0.000000
    20   -1.359867   -0.186167    0.000000
    21    1.552411    2.635419   -0.000000
    22    0.368842    0.757868   -0.000000
    23    0.196375   -0.662459   -0.000000
    24   -0.332680   -0.964920    0.000000
    25   -0.475643    1.548549    0.000000
    26    0.727108   -1.220343    0.000000
    27   -0.169603    0.098497   -0.000000
    28    0.038370    0.731522    0.000000
    29   -0.305539   -0.414628   -0.000000
----------------------------------------
   Tot    2.814671    6.103273    0.000000
----------------------------------------
   Max    3.807600
   Res    0.782598    sqrt( Sum f_i^2 / 3N )
----------------------------------------
   Max    3.807600    constrained

Stress tensor Voigt[x,y,z,yz,xz,xy] (kbar):        1.22        0.52       -0.09        0.00       -0.00       -1.22
(Free)E + p*V (eV/cell)    -4148.2129
Target enthalpy (eV/cell)    -4146.3435

siesta: Eigenvalues (eV):
ik =     1
  -21.9029  -21.9029  -21.7879  -21.7879  -21.5857  -21.5857  -21.5622  -21.5622  -21.2391  -21.2391
  -21.0211  -21.0211  -20.8579  -20.8579  -19.8337  -19.8337  -19.3728  -19.3728  -19.3684  -19.3684
  -14.7416  -14.7416  -13.9086  -13.9086  -13.3288  -13.3288  -13.1996  -13.1996  -13.0776  -13.0776
  -12.8946  -12.8946  -12.8710  -12.8710  -12.4975  -12.4975  -12.4187  -12.4187  -12.0266  -12.0266
  -11.4471  -11.4471  -10.8005  -10.8005  -10.7753  -10.7753  -10.7529  -10.7529  -10.0706  -10.0706
   -9.5458   -9.5458   -9.2807   -9.2807   -8.8593   -8.8593   -8.7078   -8.7078   -8.6661   -8.6661
   -8.6578   -8.6578   -8.3961   -8.3961   -8.1948   -8.1948   -7.8375   -7.8375   -7.6299   -7.6299
   -7.5861   -7.5861   -7.3426   -7.3426   -7.2872   -7.2872   -6.9047   -6.9047   -6.7379   -6.7379
   -6.5229   -6.5229   -6.4739   -6.4739   -6.1220   -6.1220   -6.1061   -6.1061   -6.0914   -6.0914
   -5.7245   -5.7245   -5.6170   -5.6170   -5.4458   -5.4458   -4.3129   -4.3129   -3.2168   -3.2168
   -2.3222   -2.3222   -2.3030   -2.3030   -2.2890   -2.2890   -1.9254   -1.9254   -1.8602   -1.8602
   -1.8380   -1.8380   -1.7804   -1.7804   -1.5790   -1.5790   -1.5780   -1.5780   -0.9605   -0.9605
   -0.9429   -0.9429   -0.8148   -0.8148   -0.4214   -0.4214   -0.1502   -0.1502    0.0344    0.0344
    0.3150    0.3150    0.4006    0.4006    0.5456    0.5456    0.7072    0.7072    0.7806    0.7806
    0.9631    0.9631    1.2280    1.2280    1.3259    1.3259    1.3744    1.3744    1.4486    1.4486
    1.7113    1.7113    1.8305    1.8305    1.9230    1.9230    2.3028    2.3028    2.7208    2.7208
    2.7272    2.7272    2.8218    2.8218    2.9734    2.9734    3.1541    3.1541    3.3380    3.3380
    3.3718    3.3718    3.7233    3.7233    3.8022    3.8022    4.1175    4.1175    4.2429    4.2429
    4.4344    4.4344    4.4441    4.4441    4.5792    4.5792    4.5926    4.5926    4.7789    4.7789
    4.9368    4.9368    4.9583    4.9583    5.2230    5.2230    5.5207    5.5207    5.6694    5.6694
    5.7471    5.7471    5.7739    5.7739    5.8552    5.8552    5.9264    5.9264    5.9632    5.9632
    6.1862    6.1862    6.3472    6.3472    6.6359    6.6359    6.6706    6.6706    6.8497    6.8497
    7.0428    7.0428    7.1598    7.1598    7.4075    7.4075    7.5000    7.5000    7.7427    7.7427
    7.8079    7.8079    7.9686    7.9686    8.1101    8.1101    8.2483    8.2483    8.2951    8.2951
    8.4803    8.4803    8.6951    8.6951    8.8392    8.8392    8.9202    8.9202    9.1557    9.1557
    9.1776    9.1776    9.2031    9.2031    9.7352    9.7352    9.8230    9.8230    9.8401    9.8401
   10.0349   10.0349   10.1838   10.1838   10.4286   10.4286   10.7438   10.7438   10.7911   10.7911
   10.9377   10.9377   10.9541   10.9541   11.1914   11.1914   11.6703   11.6703   11.7040   11.7040
   11.8338   11.8338   11.8608   11.8608   12.0470   12.0470   12.3568   12.3568   12.7301   12.7301
   12.7427   12.7427   12.7783   12.7783   13.2568   13.2568   13.4743   13.4743   13.6205   13.6205
   13.8146   13.8146   14.1259   14.1259   14.2448   14.2448   14.6047   14.6047   14.7275   14.7275
   14.8826   14.8826   15.3641   15.3641   15.9861   15.9861   16.4381   16.4381   16.7307   16.7307
   16.9021   16.9021   17.3407   17.3407   17.6116   17.6116   18.1437   18.1437   18.3915   18.3915
   18.5882   18.5882   19.2242   19.2242   19.3347   19.3347   19.8687   19.8687   20.2981   20.2981
   20.9878   20.9878   21.2588   21.2588   21.9154   21.9154   22.2709   22.2709   22.3161   22.3161
   22.9032   22.9032   23.2038   23.2038   23.6755   23.6755   23.8136   23.8136   23.8824   23.8824
   24.8526   24.8526   25.3110   25.3110   25.9890   25.9890   26.6804   26.6804   27.4059   27.4059
   28.1726   28.1726   28.9217   28.9217   29.1660   29.1660   29.3669   29.3669   29.6509   29.6509
   29.9433   29.9433   30.0580   30.0580   30.2107   30.2107   30.6774   30.6774   30.8114   30.8114
   30.9864   30.9864   31.2101   31.2101   31.5226   31.5226   31.6488   31.6488   32.0739   32.0739
   32.5768   32.5768   33.7793   33.7793   34.5906   34.5906   34.6570   34.6570   34.9444   34.9444
   35.0025   35.0025   35.0821   35.0821   35.4929   35.4929   35.5935   35.5935   35.9185   35.9185
   36.6990   36.6990   36.8004   36.8004   37.0299   37.0299   37.2342   37.2342   37.4924   37.4924
   38.2245   38.2245   38.3121   38.3121   39.3058   39.3058   39.3817   39.3817   39.7310   39.7310
   40.3933   40.3933   40.4953   40.4953   40.5782   40.5782   40.6273   40.6273   40.8891   40.8891
   40.9029   40.9029   41.2289   41.2289   42.4773   42.4773   42.8167   42.8167   42.8878   42.8878
   43.3048   43.3048   43.7803   43.7803   43.8719   43.8719   43.9678   43.9678   44.3349   44.3349
   44.6332   44.6332   44.7116   44.7116   45.0306   45.0306   45.3862   45.3862   46.0487   46.0487
   46.2102   46.2102   46.9659   46.9659   47.3043   47.3043   48.8443   48.8443   49.0302   49.0302
   49.4116   49.4116   50.2990   50.2990   50.4652   50.4652   51.0046   51.0046   51.0254   51.0254
   51.6063   51.6063   51.6444   51.6444   52.6847   52.6847   52.7267   52.7267   54.1958   54.1958
   54.2675   54.2675   54.4823   54.4823   54.6183   54.6183   55.6508   55.6508   55.7229   55.7229
   55.7918   55.7918   55.9641   55.9641   56.4014   56.4014   58.0194   58.0194   58.3120   58.3120
   58.5699   58.5699   60.0956   60.0956   60.2201   60.2201   60.4618   60.4618   61.0711   61.0711
   61.8436   61.8436   61.9104   61.9104   62.0920   62.0920   64.6982   64.6982   66.5642   66.5642
   66.7451   66.7451   67.1232   67.1232   68.0785   68.0785   68.4552   68.4552   70.8320   70.8320
   73.7356   73.7356   80.1739   80.1739   91.0366   91.0366   92.0535   92.0535   93.1829   93.1829
   98.2148   98.2148   98.5344   98.5344   99.5873   99.5873  102.9603  102.9603  103.5714  103.5714
  110.0228  110.0228  111.5460  111.5460  124.0058  124.0058  126.2536  126.2536  129.0878  129.0878
  135.1183  135.1183  138.1916  138.1916
siesta: Fermi energy =      -3.764595 eV

siesta: Program's energy decomposition (eV):
siesta: Ebs     =     -1134.786495
siesta: Eions   =      3585.165840
siesta: Ena     =       381.828394
siesta: Ekin    =      2902.690474
siesta: Enl     =     -2787.315854
siesta: Eso     =        -0.004277
siesta: Edftu   =         0.000000
siesta: DEna    =        46.891495
siesta: DUscf   =        14.343681
siesta: DUext   =         0.000000
siesta: Exc     =     -1119.611578
siesta: eta*DQ  =         0.000000
siesta: Emadel  =         0.000000
siesta: Emeta   =         0.000000
siesta: Emolmec =         0.000000
siesta: Ekinion =         0.000000
siesta: Eharris =     -4146.343504
siesta: Etot    =     -4146.343504
siesta: FreeEng =     -4146.343504

siesta: Final energy (eV):
siesta:  Band Struct. =   -1134.786495
siesta:       Kinetic =    2902.690474
siesta:       Hartree =    8142.516266
siesta:       Edftu   =       0.000000
siesta:       Eso     =      -0.004277
siesta:    Ext. field =       0.000000
siesta:   Exch.-corr. =   -1119.611578
siesta:  Ion-electron =  -18869.127887
siesta:       Ion-ion =    4797.193497
siesta:       Ekinion =       0.000000
siesta:         Total =   -4146.343504
siesta:         Fermi =      -3.764595

siesta: Atomic forces (eV/Ang):
siesta:      1    0.058787   -0.056611   -0.000000
siesta:      2   -0.519327    0.290943   -0.000000
siesta:      3    0.421271   -0.023204    0.000000
siesta:      4   -0.123474    0.100285   -0.000000
siesta:      5   -0.206660   -0.218701   -0.000000
siesta:      6   -0.010836    0.064798    0.000000
siesta:      7    1.186158    1.034724   -0.000000
siesta:      8    0.795469   -2.299851    0.000000
siesta:      9   -1.301172    1.795828    0.000000
siesta:     10    0.094465   -0.323597   -0.000000
siesta:     11   -1.017082   -0.328911   -0.000000
siesta:     12    1.216133   -0.233201   -0.000000
siesta:     13    1.720258    3.807600    0.000000
siesta:     14   -0.017685   -0.032227    0.000000
siesta:     15    0.112585    0.031348   -0.000000
siesta:     16    0.022932   -0.015720    0.000000
siesta:     17   -0.106057    0.109308    0.000000
siesta:     18   -0.009282    0.046983   -0.000000
siesta:     19    0.258413    0.030141   -0.000000
siesta:     20   -1.359867   -0.186167    0.000000
siesta:     21    1.552411    2.635419   -0.000000
siesta:     22    0.368842    0.757868   -0.000000
siesta:     23    0.196375   -0.662459   -0.000000
siesta:     24   -0.332680   -0.964920    0.000000
siesta:     25   -0.475643    1.548549    0.000000
siesta:     26    0.727108   -1.220343    0.000000
siesta:     27   -0.169603    0.098497   -0.000000
siesta:     28    0.038370    0.731522    0.000000
siesta:     29   -0.305539   -0.414628   -0.000000
siesta: ----------------------------------------
siesta:    Tot    2.814671    6.103273    0.000000

siesta: Stress tensor (static) (eV/Ang**3):
siesta:     0.000759   -0.000759   -0.000000
siesta:    -0.000759    0.000328    0.000000
siesta:    -0.000000    0.000000   -0.000055

siesta: Cell volume =       5436.132574 Ang**3

siesta: Pressure (static):
siesta:                Solid            Molecule  Units
siesta:          -0.00000375         -0.00000631  Ry/Bohr**3
siesta:          -0.00034388         -0.00057959  eV/Ang**3
siesta:          -0.55097029         -0.92861052  kBar
(Free)E+ p_basis*V_orbitals  =       -4126.493087
(Free)Eharris+ p_basis*V_orbitals  =       -4126.493087
     spin moment: S , {S} =    0.00000  -0.00000  -0.00000  -0.00000

siesta: Electric dipole (a.u.)  =    0.029257    1.526273    0.000000
siesta: Electric dipole (Debye) =    0.074364    3.879402    0.000000

cite: Please see "GC.bib" for an exhaustive BiBTeX file.
cite: Please clearly indicate Siesta version in published work: v4.1.5-1-g384057250
cite: This calculation has made use of the following articles
cite: which are encouraged to be cited in a published work.
        Primary SIESTA paper
          DOI: www.doi.org/10.1088/0953-8984/14/11/302
        Spin-orbit coupling (on-site approximation)
          DOI: www.doi.org/10.1088/0953-8984/19/19/489001


WARNING: alloc-realloc-dealloc name mismatch
         Name: atomlist isa
         Size:              -116. Bytes
         Node:     0
         Subsequent mismatches will not be reported
>> End of run:  16-OCT-2023  19:05:11
Job completed
