Siesta Version  : v4.1.5-1-g384057250
Architecture    : gcc
Compiler version: GNU Fortran (Ubuntu 11.4.0-1ubuntu1~22.04) 11.4.0
Compiler flags  : mpifort -O2 -fPIC -ftree-vectorize -fallow-argument-mismatch
PP flags        : -DFC_HAVE_ABORT -DMPI -DSIESTA__FLOOK -DSIESTA__METIS -DSIESTA__MUMPS -DCDF -DNCDF -DNCDF_4 -DNCDF_PARALLEL -DSIESTA__MRRR -DSIESTA__ELPA
Libraries       : libncdf.a libfdict.a  -lflookall -ldl -lnetcdff -lnetcdf -lhdf5_hl -lhdf5 -lhdf5_fortran -lz -lscalapack-openmpi -lopenblas -lmetis -lzmumps -lcmumps -ldmumps -lmumps_common -lpord -lsmumps -lesmumps -lscotch -lscotcherr -fopenmp -lelpa
PARALLEL version
NetCDF support
NetCDF-4 support
NetCDF-4 MPI-IO support
METIS ordering support
Lua support

* Running on 8 nodes in parallel
>> Start of run:   1-FEB-2024  23:04:28

                           ***********************       
                           *  WELCOME TO SIESTA  *       
                           ***********************       

reinit: Reading from standard input
reinit: Dumped input in INPUT_TMP.38865
************************** Dump of input data file ****************************
# mpirun -np 4 siesta-4.1.5 < GC.fdf > GC.out &
SystemLabel      GC
NumberOfAtoms    29
NumberOfSpecies  4
%block ChemicalSpeciesLabel
    1    1  H
    2    7  N
    3   14  Si
    4    8  O
%endblock ChemicalSpeciesLabel
############################################
# This overrides Defaults.fdf configuration
############################################
MD.TypeOfRun                Verlet # CG, Verlet
MD.Steps                    0
MaxSCFIterations            200
SCF.MustConverge            F
AtomicCoordinatesFormat NotScaledCartesianAng
%block AtomicCoordinatesAndAtomicSpecies
    -0.8229079412008695 6.361725558645103 0.0  1  1  H
    -1.5293946712008695 5.571689378645104 0.0  2  2  N
    -3.2596815812008693 6.013053288645104 0.0  3  3  Si
    -3.4154612612008695 7.503045548645103 0.0  1  4  H
    -4.78300320120087 4.454145768645104 0.0  3  5  Si
    -6.26619083120087 4.696976128645103 0.0  1  6  H
    -3.5846123412008692 2.540869608645103 0.0  3  7  Si
    -4.35063780120087 1.0081528686451031 0.0  2  8  N
    -3.7603912512008693 0.05093983864510321 0.0  1  9  H
    -5.40226012120087 0.9276926386451032 0.0  1  10  H
    -1.8684122812008694 2.596043918645103 0.0  2  11  N
    -0.7933896612008695 3.9263827586451034 0.0  3  12  Si
    0.8152836587991303 3.907572498645103 0.0  4  13  O
    5.6164483 -7.44953905 0.0  1  14  H
    4.58206954 -7.2320376 0.0  2  15  N
    3.29666389 -8.492636 0.0  3  16  Si
    3.80117524 -9.90371886 -0.0  1  17  H
    1.65934232 -8.01362137 0.0  2  18  N
    1.68097912 -6.20463398 -0.0  3  19  Si
    0.54543521 -4.28636135 0.0  3  20  Si
    -1.03431493 -3.94450034 0.0  4  21  O
    1.73226934 -2.87719605 0.0  2  22  N
    1.20957366 -1.92961761 -0.0  1  23  H
    3.50853448 -2.77677601 0.0  3  24  Si
    4.13684451 -1.17938608 0.0  2  25  N
    3.54296161 -0.26248101 0.0  1  26  H
    5.18364407 -1.05231197 -0.0  1  27  H
    4.63288658 -4.07521596 -0.0  2  28  N
    3.79410501 -5.58634043 0.0  3  29  Si
%endblock AtomicCoordinatesAndAtomicSpecies
#############
# Unit Cell
#############
LatticeConstant 1.0 Ang
%block LatticeVectors
    30.00000    0.000000    0.000000
    0.000000    45.00000    0.000000
    0.000000    0.000000    10.00000
%endblock LatticeVectors
%include ../../../../Defaults.fdf
************************** End of input data file *****************************

reinit: -----------------------------------------------------------------------
reinit: System Name: 
reinit: -----------------------------------------------------------------------
reinit: System Label: GC
reinit: -----------------------------------------------------------------------

initatom: Reading input for the pseudopotentials and atomic orbitals ----------
Species number:   1 Atomic number:    1 Label: H
Species number:   2 Atomic number:    7 Label: N
Species number:   3 Atomic number:   14 Label: Si
Species number:   4 Atomic number:    8 Label: O

Ground state valence configuration:   1s01
Reading pseudopotential information in formatted form from H.psf

Pseudopotential generated from a relativistic atomic calculation

Valence configuration for pseudopotential generation:
1s( 1.00) rc: 0.01
2p( 0.00) rc: 0.60
3d( 0.00) rc: 1.99
4f( 0.00) rc: 2.49
Ground state valence configuration:   2s02  2p03
Reading pseudopotential information in formatted form from N.psf

Pseudopotential generated from a relativistic atomic calculation

Valence configuration for pseudopotential generation:
2s( 2.00) rc: 0.94
2p( 3.00) rc: 0.59
3d( 0.00) rc: 3.46
4f( 0.00) rc: 2.47
Ground state valence configuration:   3s02  3p02
Reading pseudopotential information in formatted form from Si.psf

Pseudopotential generated from a relativistic atomic calculation

Valence configuration for pseudopotential generation:
3s( 2.00) rc: 1.67
3p( 2.00) rc: 2.04
3d( 0.00) rc: 2.89
4f( 0.00) rc: 2.49
Ground state valence configuration:   2s02  2p04
Reading pseudopotential information in formatted form from O.psf

Pseudopotential generated from a relativistic atomic calculation

Valence configuration for pseudopotential generation:
2s( 2.00) rc: 0.45
2p( 4.00) rc: 0.92
3d( 0.00) rc: 2.24
4f( 0.00) rc: 0.25
For H, standard SIESTA heuristics set lmxkb to 2
 (one more than the basis l, including polarization orbitals).
Use PS.lmax or PS.KBprojectors blocks to override.
For N, standard SIESTA heuristics set lmxkb to 3
 (one more than the basis l, including polarization orbitals).
Use PS.lmax or PS.KBprojectors blocks to override.
For Si, standard SIESTA heuristics set lmxkb to 3
 (one more than the basis l, including polarization orbitals).
Use PS.lmax or PS.KBprojectors blocks to override.
For O, standard SIESTA heuristics set lmxkb to 3
 (one more than the basis l, including polarization orbitals).
Use PS.lmax or PS.KBprojectors blocks to override.

<basis_specs>
===============================================================================
H                    Z=   1    Mass=  1.0100        Charge= 0.17977+309
Lmxo=0 Lmxkb= 2    BasisType=split      Semic=F
L=0  Nsemic=0  Cnfigmx=1
          i=1  nzeta=2  polorb=1  (1s)
            splnorm:   0.62000    
               vcte:    0.0000    
               rinn:    0.0000    
               qcoe:    0.0000    
               qyuk:    0.0000    
               qwid:   0.10000E-01
                rcs:    0.0000      0.0000    
            lambdas:    1.0000      1.0000    
-------------------------------------------------------------------------------
L=0  Nkbl=1  erefs: 0.17977+309
L=1  Nkbl=1  erefs: 0.17977+309
L=2  Nkbl=1  erefs: 0.17977+309
===============================================================================
</basis_specs>

atom: Called for H                     (Z =   1)

read_vps: Pseudopotential generation method:
read_vps: ATM4.2.7  Troullier-Martins                       
Valence charge for ps generation:    1.00000

xc_check: Exchange-correlation functional:
xc_check: GGA Perdew, Burke & Ernzerhof 1996
V l=0 = -2*Zval/r beyond r=  0.0098
V l=1 = -2*Zval/r beyond r=  0.5817
V l=2 = -2*Zval/r beyond r=  1.9372
All V_l potentials equal beyond r=  1.9372
This should be close to max(r_c) in ps generation
All pots = -2*Zval/r beyond r=  1.9372

VLOCAL1: 99.0% of the norm of Vloc inside     11.567 Ry
VLOCAL1: 99.9% of the norm of Vloc inside     26.362 Ry
atom: Maximum radius for 4*pi*r*r*local-pseudopot. charge    2.25106
atom: Maximum radius for r*vlocal+2*Zval:    1.91306
GHOST: No ghost state for L =  0
GHOST: No ghost state for L =  1
GHOST: No ghost state for L =  2

KBgen: Kleinman-Bylander projectors: 
   l= 0   rc=  2.036604   el= -0.477180   Ekb= -6.081590   kbcos= -0.277285
   l= 1   rc=  2.195416   el=  0.001076   Ekb= -0.926943   kbcos= -0.034643
   l= 2   rc=  2.251056   el=  0.002010   Ekb= -0.130941   kbcos= -0.009788

KBgen: Total number of Kleinman-Bylander projectors:    9
atom: -------------------------------------------------------------------------

atom: SANKEY-TYPE ORBITALS:
atom: Selected multiple-zeta basis: split     

SPLIT: Orbitals with angular momentum L= 0

SPLIT: Basis orbitals for state 1s

SPLIT: PAO cut-off radius determined from an
SPLIT: energy shift=  0.002000 Ry

   izeta = 1
                 lambda =    1.000000
                     rc =    6.518340
                 energy =   -0.475305
                kinetic =    0.912139
    potential(screened) =   -1.387444
       potential(ionic) =   -1.907295

   izeta = 2
                 rmatch =    2.141150
              splitnorm =    0.620000
                 energy =    0.566467
                kinetic =    3.772856
    potential(screened) =   -3.206389
       potential(ionic) =   -3.759093

POLgen: Perturbative polarization orbital with L=  1

POLgen: Polarization orbital for state 1s

   izeta = 1
                     rc =    6.518340
                 energy =    0.533861
                kinetic =    1.121086
    potential(screened) =   -0.587225
       potential(ionic) =   -1.053027
atom: Total number of Sankey-type orbitals:  5

atm_pop: Valence configuration (for local Pseudopot. screening):
 1s( 1.00)                                                            
Vna: chval, zval:    1.00000   1.00000

Vna:  Cut-off radius for the neutral-atom potential:   6.518340

atom: _________________________________________________________________________

<basis_specs>
===============================================================================
N                    Z=   7    Mass=  14.010        Charge= 0.17977+309
Lmxo=1 Lmxkb= 3    BasisType=split      Semic=F
L=0  Nsemic=0  Cnfigmx=2
          i=1  nzeta=2  polorb=0  (2s)
            splnorm:   0.28000    
               vcte:    0.0000    
               rinn:    0.0000    
               qcoe:    0.0000    
               qyuk:    0.0000    
               qwid:   0.10000E-01
                rcs:    0.0000      0.0000    
            lambdas:    1.0000      1.0000    
L=1  Nsemic=0  Cnfigmx=2
          i=1  nzeta=2  polorb=1  (2p)
            splnorm:   0.28000    
               vcte:    0.0000    
               rinn:    0.0000    
               qcoe:    0.0000    
               qyuk:    0.0000    
               qwid:   0.10000E-01
                rcs:    0.0000      0.0000    
            lambdas:    1.0000      1.0000    
-------------------------------------------------------------------------------
L=0  Nkbl=1  erefs: 0.17977+309
L=1  Nkbl=1  erefs: 0.17977+309
L=2  Nkbl=1  erefs: 0.17977+309
L=3  Nkbl=1  erefs: 0.17977+309
===============================================================================
</basis_specs>

atom: Called for N                     (Z =   7)

read_vps: Pseudopotential generation method:
read_vps: ATM4.2.7  Troullier-Martins                       
Valence charge for ps generation:    5.00000

xc_check: Exchange-correlation functional:
xc_check: GGA Perdew, Burke & Ernzerhof 1996
V l=0 = -2*Zval/r beyond r=  1.2889
V l=1 = -2*Zval/r beyond r=  1.2889
V l=2 = -2*Zval/r beyond r=  3.4178
V l=3 = -2*Zval/r beyond r=  2.4084
All V_l potentials equal beyond r=  3.3753
This should be close to max(r_c) in ps generation
All pots = -2*Zval/r beyond r=  3.4178

VLOCAL1: 99.0% of the norm of Vloc inside      3.810 Ry
VLOCAL1: 99.9% of the norm of Vloc inside      8.683 Ry
atom: Maximum radius for 4*pi*r*r*local-pseudopot. charge    4.02088
atom: Maximum radius for r*vlocal+2*Zval:    3.54838
GHOST: No ghost state for L =  0
GHOST: No ghost state for L =  1
GHOST: No ghost state for L =  2
GHOST: No ghost state for L =  3

KBgen: Kleinman-Bylander projectors: 
   l= 0   rc=  3.417763   el= -1.365098   Ekb= -4.433130   kbcos= -0.707855
   l= 1   rc=  3.375302   el= -0.521201   Ekb=-13.264039   kbcos= -0.535594
   l= 2   rc=  3.872880   el=  0.001991   Ekb= -0.641094   kbcos= -0.062456
   l= 3   rc=  3.970931   el=  0.003093   Ekb= -0.474517   kbcos= -0.018236

KBgen: Total number of Kleinman-Bylander projectors:   16
atom: -------------------------------------------------------------------------

atom: SANKEY-TYPE ORBITALS:
atom: Selected multiple-zeta basis: split     

SPLIT: Orbitals with angular momentum L= 0

SPLIT: Basis orbitals for state 2s

SPLIT: PAO cut-off radius determined from an
SPLIT: energy shift=  0.002000 Ry

   izeta = 1
                 lambda =    1.000000
                     rc =    4.730425
                 energy =   -1.363399
                kinetic =    1.245246
    potential(screened) =   -2.608645
       potential(ionic) =   -8.121105

   izeta = 2
                 rmatch =    2.531849
              splitnorm =    0.280000
                 energy =   -0.959908
                kinetic =    2.409435
    potential(screened) =   -3.369343
       potential(ionic) =   -9.427975

SPLIT: Orbitals with angular momentum L= 1

SPLIT: Basis orbitals for state 2p

SPLIT: PAO cut-off radius determined from an
SPLIT: energy shift=  0.002000 Ry

   izeta = 1
                 lambda =    1.000000
                     rc =    5.924108
                 energy =   -0.519262
                kinetic =    3.672940
    potential(screened) =   -4.192202
       potential(ionic) =   -9.518354

   izeta = 2
                 rmatch =    2.531849
              splitnorm =    0.280000
                 energy =   -0.104258
                kinetic =    6.807538
    potential(screened) =   -6.911796
       potential(ionic) =  -13.149920

POLgen: Perturbative polarization orbital with L=  2

POLgen: Polarization orbital for state 2p

   izeta = 1
                     rc =    5.924108
                 energy =    1.427508
                kinetic =    2.872379
    potential(screened) =   -1.444871
       potential(ionic) =   -5.563644
atom: Total number of Sankey-type orbitals: 13

atm_pop: Valence configuration (for local Pseudopot. screening):
 2s( 2.00)                                                            
 2p( 3.00)                                                            
Vna: chval, zval:    5.00000   5.00000

Vna:  Cut-off radius for the neutral-atom potential:   5.924108

atom: _________________________________________________________________________

<basis_specs>
===============================================================================
Si                   Z=  14    Mass=  28.090        Charge= 0.17977+309
Lmxo=1 Lmxkb= 3    BasisType=split      Semic=F
L=0  Nsemic=0  Cnfigmx=3
          i=1  nzeta=2  polorb=0  (3s)
            splnorm:   0.28000    
               vcte:    0.0000    
               rinn:    0.0000    
               qcoe:    0.0000    
               qyuk:    0.0000    
               qwid:   0.10000E-01
                rcs:    0.0000      0.0000    
            lambdas:    1.0000      1.0000    
L=1  Nsemic=0  Cnfigmx=3
          i=1  nzeta=2  polorb=1  (3p)
            splnorm:   0.28000    
               vcte:    0.0000    
               rinn:    0.0000    
               qcoe:    0.0000    
               qyuk:    0.0000    
               qwid:   0.10000E-01
                rcs:    0.0000      0.0000    
            lambdas:    1.0000      1.0000    
-------------------------------------------------------------------------------
L=0  Nkbl=1  erefs: 0.17977+309
L=1  Nkbl=1  erefs: 0.17977+309
L=2  Nkbl=1  erefs: 0.17977+309
L=3  Nkbl=1  erefs: 0.17977+309
===============================================================================
</basis_specs>

atom: Called for Si                    (Z =  14)

read_vps: Pseudopotential generation method:
read_vps: ATM4.2.7  Troullier-Martins                       
Valence charge for ps generation:    4.00000

xc_check: Exchange-correlation functional:
xc_check: GGA Perdew, Burke & Ernzerhof 1996
V l=0 = -2*Zval/r beyond r=  2.7826
V l=1 = -2*Zval/r beyond r=  2.7826
V l=2 = -2*Zval/r beyond r=  2.9253
V l=3 = -2*Zval/r beyond r=  2.7826
All V_l potentials equal beyond r=  2.8530
This should be close to max(r_c) in ps generation
All pots = -2*Zval/r beyond r=  2.9253

VLOCAL1: 99.0% of the norm of Vloc inside      5.333 Ry
VLOCAL1: 99.9% of the norm of Vloc inside     12.154 Ry
atom: Maximum radius for 4*pi*r*r*local-pseudopot. charge    3.39869
atom: Maximum radius for r*vlocal+2*Zval:    2.96205
GHOST: No ghost state for L =  0
GHOST: No ghost state for L =  1
GHOST: No ghost state for L =  2
GHOST: No ghost state for L =  3

KBgen: Kleinman-Bylander projectors: 
   l= 0   rc=  3.075247   el= -0.794092   Ekb=  5.879390   kbcos=  0.167461
   l= 1   rc=  3.153101   el= -0.300068   Ekb=  2.642817   kbcos=  0.058301
   l= 2   rc=  3.273594   el=  0.001958   Ekb= -1.185135   kbcos= -0.104411
   l= 3   rc=  3.232927   el=  0.003046   Ekb= -0.497174   kbcos= -0.015889

KBgen: Total number of Kleinman-Bylander projectors:   16
atom: -------------------------------------------------------------------------

atom: SANKEY-TYPE ORBITALS:
atom: Selected multiple-zeta basis: split     

SPLIT: Orbitals with angular momentum L= 0

SPLIT: Basis orbitals for state 3s

SPLIT: PAO cut-off radius determined from an
SPLIT: energy shift=  0.002000 Ry

   izeta = 1
                 lambda =    1.000000
                     rc =    6.429618
                 energy =   -0.792283
                kinetic =    0.525293
    potential(screened) =   -1.317576
       potential(ionic) =   -3.744923

   izeta = 2
                 rmatch =    3.998416
              splitnorm =    0.280000
                 energy =   -0.583081
                kinetic =    1.069570
    potential(screened) =   -1.652651
       potential(ionic) =   -4.235185

SPLIT: Orbitals with angular momentum L= 1

SPLIT: Basis orbitals for state 3p

SPLIT: PAO cut-off radius determined from an
SPLIT: energy shift=  0.002000 Ry

   izeta = 1
                 lambda =    1.000000
                     rc =    8.464845
                 energy =   -0.298236
                kinetic =    0.785360
    potential(screened) =   -1.083596
       potential(ionic) =   -3.273779

   izeta = 2
                 rmatch =    4.587816
              splitnorm =    0.280000
                 energy =   -0.131871
                kinetic =    1.403687
    potential(screened) =   -1.535557
       potential(ionic) =   -4.015310

POLgen: Perturbative polarization orbital with L=  2

POLgen: Polarization orbital for state 3p

   izeta = 1
                     rc =    8.464845
                 energy =    0.321949
                kinetic =    1.055677
    potential(screened) =   -0.733728
       potential(ionic) =   -2.672950
atom: Total number of Sankey-type orbitals: 13

atm_pop: Valence configuration (for local Pseudopot. screening):
 3s( 2.00)                                                            
 3p( 2.00)                                                            
Vna: chval, zval:    4.00000   4.00000

Vna:  Cut-off radius for the neutral-atom potential:   8.464845

atom: _________________________________________________________________________

<basis_specs>
===============================================================================
O                    Z=   8    Mass=  16.000        Charge= 0.17977+309
Lmxo=1 Lmxkb= 3    BasisType=split      Semic=F
L=0  Nsemic=0  Cnfigmx=2
          i=1  nzeta=2  polorb=0  (2s)
            splnorm:   0.28000    
               vcte:    0.0000    
               rinn:    0.0000    
               qcoe:    0.0000    
               qyuk:    0.0000    
               qwid:   0.10000E-01
                rcs:    0.0000      0.0000    
            lambdas:    1.0000      1.0000    
L=1  Nsemic=0  Cnfigmx=2
          i=1  nzeta=2  polorb=1  (2p)
            splnorm:   0.28000    
               vcte:    0.0000    
               rinn:    0.0000    
               qcoe:    0.0000    
               qyuk:    0.0000    
               qwid:   0.10000E-01
                rcs:    0.0000      0.0000    
            lambdas:    1.0000      1.0000    
-------------------------------------------------------------------------------
L=0  Nkbl=1  erefs: 0.17977+309
L=1  Nkbl=1  erefs: 0.17977+309
L=2  Nkbl=1  erefs: 0.17977+309
L=3  Nkbl=1  erefs: 0.17977+309
===============================================================================
</basis_specs>

atom: Called for O                     (Z =   8)

read_vps: Pseudopotential generation method:
read_vps: ATM4.2.7  Troullier-Martins                       
Valence charge for ps generation:    6.00000

xc_check: Exchange-correlation functional:
xc_check: GGA Perdew, Burke & Ernzerhof 1996
V l=0 = -2*Zval/r beyond r=  1.1000
V l=1 = -2*Zval/r beyond r=  1.1000
V l=2 = -2*Zval/r beyond r=  2.2154
V l=3 = -2*Zval/r beyond r=  1.1000
All V_l potentials equal beyond r=  2.2154
This should be close to max(r_c) in ps generation
All pots = -2*Zval/r beyond r=  2.2154

VLOCAL1: 99.0% of the norm of Vloc inside      8.845 Ry
VLOCAL1: 99.9% of the norm of Vloc inside     20.157 Ry
atom: Maximum radius for 4*pi*r*r*local-pseudopot. charge    2.67231
atom: Maximum radius for r*vlocal+2*Zval:    2.32897
GHOST: No ghost state for L =  0
GHOST: No ghost state for L =  1
GHOST: No ghost state for L =  2
GHOST: No ghost state for L =  3

KBgen: Kleinman-Bylander projectors: 
   l= 0   rc=  2.243238   el= -1.759686   Ekb=**********   kbcos= -0.171774
   l= 1   rc=  2.328968   el= -0.663873   Ekb=-14.506792   kbcos= -0.519897
   l= 2   rc=  2.573941   el=  0.002031   Ekb= -1.137373   kbcos= -0.019581
   l= 3   rc=  2.606321   el=  0.003153   Ekb= -1.013546   kbcos= -0.003122

KBgen: Total number of Kleinman-Bylander projectors:   16
atom: -------------------------------------------------------------------------

atom: SANKEY-TYPE ORBITALS:
atom: Selected multiple-zeta basis: split     

SPLIT: Orbitals with angular momentum L= 0

SPLIT: Basis orbitals for state 2s

SPLIT: PAO cut-off radius determined from an
SPLIT: energy shift=  0.002000 Ry

   izeta = 1
                 lambda =    1.000000
                     rc =    4.243912
                 energy =   -1.758270
                kinetic =    3.286084
    potential(screened) =   -5.044353
       potential(ionic) =  -12.921184

   izeta = 2
                 rmatch =    2.187845
              splitnorm =    0.280000
                 energy =   -0.885018
                kinetic =    8.134434
    potential(screened) =   -9.019452
       potential(ionic) =  -17.710645

SPLIT: Orbitals with angular momentum L= 1

SPLIT: Basis orbitals for state 2p

SPLIT: PAO cut-off radius determined from an
SPLIT: energy shift=  0.002000 Ry

   izeta = 1
                 lambda =    1.000000
                     rc =    5.314825
                 energy =   -0.661986
                kinetic =    4.917472
    potential(screened) =   -5.579458
       potential(ionic) =  -13.236259

   izeta = 2
                 rmatch =    2.160663
              splitnorm =    0.280000
                 energy =   -0.068760
                kinetic =    9.183374
    potential(screened) =   -9.252135
       potential(ionic) =  -18.274251

POLgen: Perturbative polarization orbital with L=  2

POLgen: Polarization orbital for state 2p

   izeta = 1
                     rc =    5.314825
                 energy =    1.970580
                kinetic =    3.886128
    potential(screened) =   -1.915547
       potential(ionic) =   -7.749584
atom: Total number of Sankey-type orbitals: 13

atm_pop: Valence configuration (for local Pseudopot. screening):
 2s( 2.00)                                                            
 2p( 4.00)                                                            
Vna: chval, zval:    6.00000   6.00000

Vna:  Cut-off radius for the neutral-atom potential:   5.314825

atom: _________________________________________________________________________

prinput: Basis input ----------------------------------------------------------

PAO.BasisType split     

%block ChemicalSpeciesLabel
    1    1 H                       # Species index, atomic number, species label
    2    7 N                       # Species index, atomic number, species label
    3   14 Si                      # Species index, atomic number, species label
    4    8 O                       # Species index, atomic number, species label
%endblock ChemicalSpeciesLabel

%block PAO.Basis                 # Define Basis set
H                     1                    # Species label, number of l-shells
 n=1   0   2 P   1                   # n, l, Nzeta, Polarization, NzetaPol
   6.518      2.141   
   1.000      1.000   
N                     2                    # Species label, number of l-shells
 n=2   0   2                         # n, l, Nzeta 
   4.730      2.532   
   1.000      1.000   
 n=2   1   2 P   1                   # n, l, Nzeta, Polarization, NzetaPol
   5.924      2.532   
   1.000      1.000   
Si                    2                    # Species label, number of l-shells
 n=3   0   2                         # n, l, Nzeta 
   6.430      3.998   
   1.000      1.000   
 n=3   1   2 P   1                   # n, l, Nzeta, Polarization, NzetaPol
   8.465      4.588   
   1.000      1.000   
O                     2                    # Species label, number of l-shells
 n=2   0   2                         # n, l, Nzeta 
   4.244      2.188   
   1.000      1.000   
 n=2   1   2 P   1                   # n, l, Nzeta, Polarization, NzetaPol
   5.315      2.161   
   1.000      1.000   
%endblock PAO.Basis

prinput: ----------------------------------------------------------------------

Dumping basis to NetCDF file H.ion.nc
Dumping basis to NetCDF file N.ion.nc
Dumping basis to NetCDF file Si.ion.nc
Dumping basis to NetCDF file O.ion.nc
coor:   Atomic-coordinates input format  =     Cartesian coordinates
coor:                                          (in Angstroms)

siesta: Atomic coordinates (Bohr) and species
siesta:     -1.55507  12.02192   0.00000  1        1
siesta:     -2.89014  10.52897   0.00000  2        2
siesta:     -6.15991  11.36303   0.00000  3        3
siesta:     -6.45429  14.17871   0.00000  1        4
siesta:     -9.03857   8.41712   0.00000  3        5
siesta:    -11.84139   8.87600   0.00000  1        6
siesta:     -6.77394   4.80155   0.00000  3        7
siesta:     -8.22152   1.90513   0.00000  2        8
siesta:     -7.10611   0.09626   0.00000  1        9
siesta:    -10.20880   1.75309   0.00000  1       10
siesta:     -3.53079   4.90581   0.00000  2       11
siesta:     -1.49929   7.41979   0.00000  3       12
siesta:      1.54066   7.38424   0.00000  4       13
siesta:     10.61355 -14.07759   0.00000  1       14
siesta:      8.65886 -13.66658   0.00000  2       15
siesta:      6.22979 -16.04876   0.00000  3       16
siesta:      7.18318 -18.71532  -0.00000  1       17
siesta:      3.13570 -15.14356   0.00000  2       18
siesta:      3.17659 -11.72506  -0.00000  3       19
siesta:      1.03072  -8.10005   0.00000  3       20
siesta:     -1.95457  -7.45403   0.00000  4       21
siesta:      3.27352  -5.43711   0.00000  2       22
siesta:      2.28576  -3.64645  -0.00000  1       23
siesta:      6.63017  -5.24735   0.00000  3       24
siesta:      7.81751  -2.22872   0.00000  2       25
siesta:      6.69523  -0.49602   0.00000  1       26
siesta:      9.79567  -1.98858  -0.00000  1       27
siesta:      8.75489  -7.70105  -0.00000  2       28
siesta:      7.16982 -10.55666   0.00000  3       29

siesta: System type = molecule  

initatomlists: Number of atoms, orbitals, and projectors:     29   297   394

siesta: ******************** Simulation parameters ****************************
siesta:
siesta: The following are some of the parameters of the simulation.
siesta: A complete list of the parameters used, including default values,
siesta: can be found in file out.fdf
siesta:
redata: Spin configuration                          = spin-orbit
redata: Number of spin components                   = 8
redata: Time-Reversal Symmetry                      = F
redata: Spin spiral                                 = F
############################################################
This spin-orbit implementation uses a local approximation.
From 4.2 and onwards the full non-local approximation is implemented
You are strongly advised to use >=4.2 versions!
############################################################
redata: Long output                                 =   F
redata: Number of Atomic Species                    =        4
redata: Charge density info will appear in .RHO file
redata: Write Mulliken Pop.                         = NO
redata: Matel table size (NRTAB)                    =     1024
redata: Mesh Cutoff                                 =   340.0000 Ry
redata: Net charge of the system                    =     0.0000 |e|
redata: Min. number of SCF Iter                     =        1
redata: Max. number of SCF Iter                     =      200
redata: SCF mix quantity                            = Hamiltonian
redata: Mix DM or H after convergence               =   F
redata: Recompute H after scf cycle                 =   F
redata: Mix DM in first SCF step                    =   T
redata: Write Pulay info on disk                    =   F
redata: New DM Occupancy tolerance                  = 0.000000000001
redata: No kicks to SCF
redata: DM Mixing Weight for Kicks                  =     0.5000
redata: Require Harris convergence for SCF          =   F
redata: Harris energy tolerance for SCF             =     0.000100 eV
redata: Require DM convergence for SCF              =   T
redata: DM tolerance for SCF                        =     0.000008
redata: Require EDM convergence for SCF             =   F
redata: EDM tolerance for SCF                       =     0.001000 eV
redata: Require H convergence for SCF               =   T
redata: Hamiltonian tolerance for SCF               =     0.000001 eV
redata: Require (free) Energy convergence for SCF   =   F
redata: (free) Energy tolerance for SCF             =     0.000100 eV
redata: Using Saved Data (generic)                  =   F
redata: Use continuation files for DM               =   T
redata: Neglect nonoverlap interactions             =   F
redata: Method of Calculation                       = Diagonalization
redata: Electronic Temperature                      =   299.9978 K
redata: Fix the spin of the system                  =   F
redata: Dynamics option                             = Verlet MD run
redata: Initial MD time step                        =        1
redata:   Final MD time step                        =        1
redata: Length of MD time step                      =     0.5000 fs
redata: Initial Temperature of MD run               =     0.0000 K
redata: Perform a MD quench                         =   F
mix.SCF: Pulay mixing                            = Pulay
mix.SCF:    Variant                              = stable
mix.SCF:    History steps                        = 6
mix.SCF:    Linear mixing weight                 =     0.250000
mix.SCF:    Mixing weight                        =     0.250000
mix.SCF:    SVD condition                        = 0.1000E-07
mix.SCF:    Restart steps                        = 24
mix.SCF:    Restart save steps                   = 3
mix.SCF: Spin-component mixing                   all
redata: Save all siesta data in one NC              =   F
redata: ***********************************************************************

%block SCF.Mixers
  Pulay
%endblock SCF.Mixers

%block SCF.Mixer.Pulay
  # Mixing method
  method pulay
  variant stable

  # Mixing options
  weight 0.2500
  weight.linear 0.2500
  history 6
  restart 24
  restart.save 3
%endblock SCF.Mixer.Pulay

Size of DM history Fstack: 3
Total number of electrons:    98.000000
Total ionic charge:    98.000000

* ProcessorY, Blocksize:    2  24


* Orbital distribution balance (max,min):    48    24


Time-reversal symmetry not used.

siesta: k-grid: Number of k-points =     1
siesta: k-grid: Cutoff (effective) =     5.000 Ang
siesta: k-grid: Supercell and displacements
siesta: k-grid:    1   0   0      0.000
siesta: k-grid:    0   1   0      0.000
siesta: k-grid:    0   0   1      0.000

diag: Algorithm                                     = ELPA-1stage
diag: Parallel over k                               =   F
diag: Use parallel 2D distribution                  =   T
diag: Parallel block-size                           = 24
diag: Parallel distribution                         =     2 x     4
diag: Used triangular part                          = Lower
diag: Absolute tolerance                            =  0.100E-15
diag: Orthogonalization factor                      =  0.100E-05
diag: Memory factor                                 =  1.0000


ts: **************************************************************
ts: Save H and S matrices                           =    F
ts: Save DM and EDM matrices                        =    F
ts: Only save the overlap matrix S                  =    F
ts: **************************************************************

************************ Begin: TS CHECKS AND WARNINGS ************************
************************ End: TS CHECKS AND WARNINGS **************************


                     ====================================
                        Begin MD step =      1
                     ====================================

outcoor: Atomic coordinates (Ang):                          
   -0.82290794    6.36172556    0.00000000   1       1  H
   -1.52939467    5.57168938    0.00000000   2       2  N
   -3.25968158    6.01305329    0.00000000   3       3  Si
   -3.41546126    7.50304555    0.00000000   1       4  H
   -4.78300320    4.45414577    0.00000000   3       5  Si
   -6.26619083    4.69697613    0.00000000   1       6  H
   -3.58461234    2.54086961    0.00000000   3       7  Si
   -4.35063780    1.00815287    0.00000000   2       8  N
   -3.76039125    0.05093984    0.00000000   1       9  H
   -5.40226012    0.92769264    0.00000000   1      10  H
   -1.86841228    2.59604392    0.00000000   2      11  N
   -0.79338966    3.92638276    0.00000000   3      12  Si
    0.81528366    3.90757250    0.00000000   4      13  O
    5.61644830   -7.44953905    0.00000000   1      14  H
    4.58206954   -7.23203760    0.00000000   2      15  N
    3.29666389   -8.49263600    0.00000000   3      16  Si
    3.80117524   -9.90371886    0.00000000   1      17  H
    1.65934232   -8.01362137    0.00000000   2      18  N
    1.68097912   -6.20463398    0.00000000   3      19  Si
    0.54543521   -4.28636135    0.00000000   3      20  Si
   -1.03431493   -3.94450034    0.00000000   4      21  O
    1.73226934   -2.87719605    0.00000000   2      22  N
    1.20957366   -1.92961761    0.00000000   1      23  H
    3.50853448   -2.77677601    0.00000000   3      24  Si
    4.13684451   -1.17938608    0.00000000   2      25  N
    3.54296161   -0.26248101    0.00000000   1      26  H
    5.18364407   -1.05231197    0.00000000   1      27  H
    4.63288658   -4.07521596    0.00000000   2      28  N
    3.79410501   -5.58634043    0.00000000   3      29  Si

outcell: Unit cell vectors (Ang):
       30.000000    0.000000    0.000000
        0.000000   45.000000    0.000000
        0.000000    0.000000   10.000000

outcell: Cell vector modules (Ang)   :   30.000000   45.000000   10.000000
outcell: Cell angles (23,13,12) (deg):     90.0000     90.0000     90.0000
outcell: Cell volume (Ang**3)        :  13500.0000
<dSpData1D:S at geom step 1
  <sparsity:sparsity for geom step 1
    nrows_g=297 nrows=48 sparsity=.0849 nnzs=7491, refcount: 8>
  <dData1D:(new from dSpData1D) n=7491, refcount: 1>
refcount: 1>
new_DM -- step:     1
Initializing Density Matrix...

Attempting to read DM from file... Failed...
DM filled with atomic data:
<dSpData2D:DM initialized from atoms
  <sparsity:sparsity for geom step 1
    nrows_g=297 nrows=48 sparsity=.0849 nnzs=7491, refcount: 9>
  <dData2D:DM n=7491 m=8, refcount: 1>
refcount: 1>
     spin moment: S , {S} =   56.00000   0.00000   0.00000  56.00000
No. of atoms with KB's overlaping orbs in proc 0. Max # of overlaps:      26     142

Initializing spin-orbit part of the Hamiltonian
  Adding spin-orbit effects for H 
  Adding spin-orbit effects for N 
  Adding spin-orbit effects for Si
  Adding spin-orbit effects for O 


New grid distribution:   1
           1       1:  180    1:  125    1:   15
           2       1:  180    1:  125   16:   30
           3       1:  180    1:  125   31:   45
           4       1:  180    1:  125   46:   60
           5       1:  180  126:  250    1:   15
           6       1:  180  126:  250   16:   30
           7       1:  180  126:  250   31:   45
           8       1:  180  126:  250   46:   60

InitMesh: MESH =   360 x   500 x   120 =    21600000
InitMesh: (bp) =   180 x   250 x    60 =     2700000
InitMesh: Mesh cutoff (required, used) =   340.000   341.206 Ry
ExtMesh (bp) on 0 =   288 x   225 x   123 =     7970400
New grid distribution:   2
           1       1:  157   29:  206    1:   60
           2     158:  180   25:  206    1:   60
           3     158:  180    1:   24    1:   60
           4       1:   21  207:  225    1:   60
           5       1:  157    1:   28    1:   60
           6      22:  180  227:  250    1:   60
           7      22:  180  207:  226    1:   60
           8       1:   21  226:  250    1:   60
New grid distribution:   3
           1       1:  145   25:  190    1:   60
           2       1:  145    1:   24    1:   60
           3     146:  180    1:   27    1:   60
           4       1:   31  221:  250    1:   60
           5     146:  180   28:  190    1:   60
           6      32:  180  191:  227    1:   60
           7      32:  180  228:  250    1:   60
           8       1:   31  191:  220    1:   60
Setting up quadratic distribution...
ExtMesh (bp) on 0 =   265 x   278 x   168 =    12376560
PhiOnMesh: Number of (b)points on node 0 =              1676760
PhiOnMesh: nlist on node 0 =              1755860

stepf: Fermi-Dirac step function

siesta: Program's energy decomposition (eV):
siesta: Ebs     =      -597.650140
siesta: Eions   =      3585.165840
siesta: Ena     =       381.828395
siesta: Ekin    =      3368.786301
siesta: Enl     =     -3297.157324
siesta: Eso     =        -0.003410
siesta: Edftu   =         0.000000
siesta: DEna    =       153.518366
siesta: DUscf   =        81.831998
siesta: DUext   =         0.000000
siesta: Exc     =     -1203.994402
siesta: eta*DQ  =         0.000000
siesta: Emadel  =         0.000000
siesta: Emeta   =         0.000000
siesta: Emolmec =         0.000000
siesta: Ekinion =         0.000000
siesta: Eharris =     -4020.644353
siesta: Etot    =     -4100.355917
siesta: FreeEng =     -4100.356951

        iscf     Eharris(eV)        E_KS(eV)     FreeEng(eV)     dDmax    Ef(eV) dHmax(eV)
   scf:    1    -4020.644353    -4100.355917    -4100.356951  0.965592 -4.903645 22.253422
     spin moment: S , {S} =    2.00582   0.00000   0.00000   2.00582
timer: Routine,Calls,Time,% = IterSCF        1      11.569  30.52
   scf:    2    -4145.331244    -4135.309853    -4135.310999  0.454305 -4.159786 12.095390
     spin moment: S , {S} =    1.99427  -0.00000  -0.00000   1.99427
   scf:    3    -4093.342800    -4129.390044    -4129.420782  0.428436 -4.314552 14.387975
     spin moment: S , {S} =    2.51259   0.00000  -0.00000   2.51259
   scf:    4    -4150.672190    -4144.802229    -4144.802230  0.327041 -3.846700  7.256484
     spin moment: S , {S} =    0.00010  -0.00000  -0.00000   0.00010
   scf:    5    -4146.277201    -4145.660310    -4145.660310  0.040189 -3.586715  4.802129
     spin moment: S , {S} =    0.00006   0.00000  -0.00000   0.00006
   scf:    6    -4146.418988    -4146.045684    -4146.045684  0.024378 -3.463283  2.474225
     spin moment: S , {S} =    0.00003   0.00000  -0.00000   0.00003
   scf:    7    -4146.421824    -4146.230329    -4146.230329  0.022726 -3.677856  0.917502
     spin moment: S , {S} =    0.00001  -0.00000   0.00000   0.00001
   scf:    8    -4146.342774    -4146.285095    -4146.285095  0.012199 -3.614081  0.568425
     spin moment: S , {S} =    0.00000   0.00000   0.00000   0.00000
   scf:    9    -4146.327060    -4146.305373    -4146.305373  0.007326 -3.569850  0.461593
     spin moment: S , {S} =    0.00000   0.00000  -0.00000   0.00000
   scf:   10    -4146.361080    -4146.324377    -4146.324377  0.024986 -3.695325  0.280691
     spin moment: S , {S} =    0.00000   0.00000  -0.00000  -0.00000
   scf:   11    -4146.329324    -4146.326929    -4146.326929  0.005829 -3.681517  0.090076
     spin moment: S , {S} =    0.00000   0.00000  -0.00000  -0.00000
   scf:   12    -4146.329510    -4146.328229    -4146.328229  0.001732 -3.674678  0.040515
     spin moment: S , {S} =    0.00000   0.00000  -0.00000  -0.00000
   scf:   13    -4146.329043    -4146.328632    -4146.328632  0.000963 -3.671486  0.026163
     spin moment: S , {S} =    0.00000   0.00000  -0.00000  -0.00000
   scf:   14    -4146.329080    -4146.328847    -4146.328847  0.000845 -3.669864  0.015766
     spin moment: S , {S} =    0.00000   0.00000  -0.00000  -0.00000
   scf:   15    -4146.329042    -4146.328938    -4146.328938  0.000637 -3.669195  0.009305
     spin moment: S , {S} =    0.00000   0.00000  -0.00000  -0.00000
   scf:   16    -4146.329015    -4146.328974    -4146.328974  0.000483 -3.669268  0.004231
     spin moment: S , {S} =    0.00000   0.00000  -0.00000  -0.00000
   scf:   17    -4146.328998    -4146.328985    -4146.328985  0.000314 -3.669325  0.003172
     spin moment: S , {S} =    0.00000  -0.00000  -0.00000   0.00000
   scf:   18    -4146.328992    -4146.328988    -4146.328988  0.000169 -3.669506  0.002100
     spin moment: S , {S} =    0.00000  -0.00000  -0.00000   0.00000
   scf:   19    -4146.328992    -4146.328990    -4146.328990  0.000143 -3.669722  0.001376
     spin moment: S , {S} =    0.00000  -0.00000  -0.00000   0.00000
   scf:   20    -4146.328991    -4146.328990    -4146.328990  0.000072 -3.669766  0.001037
     spin moment: S , {S} =    0.00000  -0.00000  -0.00000   0.00000
   scf:   21    -4146.328991    -4146.328990    -4146.328990  0.000086 -3.669791  0.000690
     spin moment: S , {S} =    0.00000  -0.00000  -0.00000   0.00000
   scf:   22    -4146.328991    -4146.328991    -4146.328991  0.000077 -3.669767  0.000344
     spin moment: S , {S} =    0.00000  -0.00000  -0.00000   0.00000
   scf:   23    -4146.328991    -4146.328991    -4146.328991  0.000048 -3.669750  0.000203
     spin moment: S , {S} =    0.00000  -0.00000  -0.00000   0.00000
   scf:   24    -4146.328991    -4146.328991    -4146.328991  0.000017 -3.669749  0.000125
     spin moment: S , {S} =    0.00000  -0.00000  -0.00000   0.00000
mix: Pulay -- resetting history
   scf:   25    -4146.328991    -4146.328991    -4146.328991  0.000016 -3.669749  0.000078
     spin moment: S , {S} =    0.00000  -0.00000  -0.00000   0.00000
   scf:   26    -4146.328991    -4146.328991    -4146.328991  0.000010 -3.669749  0.000045
     spin moment: S , {S} =    0.00000  -0.00000  -0.00000   0.00000
   scf:   27    -4146.328991    -4146.328991    -4146.328991  0.000008 -3.669748  0.000017
     spin moment: S , {S} =    0.00000  -0.00000  -0.00000   0.00000
   scf:   28    -4146.328991    -4146.328991    -4146.328991  0.000003 -3.669747  0.000012
     spin moment: S , {S} =    0.00000  -0.00000  -0.00000   0.00000
   scf:   29    -4146.328991    -4146.328991    -4146.328991  0.000001 -3.669747  0.000007
     spin moment: S , {S} =    0.00000  -0.00000  -0.00000   0.00000
   scf:   30    -4146.328991    -4146.328991    -4146.328991  0.000001 -3.669747  0.000003
     spin moment: S , {S} =    0.00000  -0.00000  -0.00000   0.00000
   scf:   31    -4146.328991    -4146.328991    -4146.328991  0.000000 -3.669748  0.000001
     spin moment: S , {S} =    0.00000  -0.00000  -0.00000   0.00000
   scf:   32    -4146.328991    -4146.328991    -4146.328991  0.000000 -3.669748  0.000001
     spin moment: S , {S} =    0.00000  -0.00000  -0.00000  -0.00000
   scf:   33    -4146.328991    -4146.328991    -4146.328991  0.000000 -3.669748  0.000001
     spin moment: S , {S} =    0.00000  -0.00000  -0.00000  -0.00000

SCF Convergence by DM+H criterion
max |DM_out - DM_in|         :     0.0000001020
max |H_out - H_in|      (eV) :     0.0000007203
SCF cycle converged after 33 iterations

Using DM_out to compute the final energy and forces
No. of atoms with KB's overlaping orbs in proc 0. Max # of overlaps:      26     142

siesta: E_KS(eV) =            -4146.3290

siesta: E_KS - E_eggbox =     -4146.3290
     spin moment: S , {S} =    0.00000  -0.00000  -0.00000  -0.00000

siesta: Atomic forces (eV/Ang):
     1    0.019157    0.030747   -0.000000
     2   -0.530509    0.297822   -0.000000
     3    0.422780   -0.034610    0.000000
     4   -0.101053    0.061351   -0.000000
     5   -0.208515   -0.213414   -0.000000
     6    0.072297   -0.015142    0.000000
     7    1.190553    1.012150   -0.000000
     8    0.789718   -2.285515   -0.000000
     9   -1.275152    1.834208   -0.000000
    10    0.101655   -0.344794    0.000000
    11   -1.017025   -0.320004   -0.000000
    12    1.219286   -0.236468    0.000000
    13    2.430281   -1.606489    0.000000
    14   -0.014627   -0.033873    0.000000
    15    0.114602    0.033383    0.000000
    16    0.012910   -0.020034    0.000000
    17   -0.001811    0.047480    0.000000
    18   -0.039473    0.047105   -0.000000
    19    0.258966    0.026131    0.000000
    20   -1.368076   -0.180591    0.000000
    21    1.251499   -3.862209    0.000000
    22    0.347012    0.772348    0.000000
    23    0.211535   -0.592737   -0.000000
    24   -0.331486   -0.963460   -0.000000
    25   -0.480701    1.557916    0.000000
    26    0.841920   -1.202652    0.000000
    27   -0.141047    0.099395    0.000000
    28    0.046598    0.715082   -0.000000
    29   -0.312180   -0.412866    0.000000
----------------------------------------
   Tot    3.509118   -5.789739    0.000000
----------------------------------------
   Max    3.862209
   Res    0.769294    sqrt( Sum f_i^2 / 3N )
----------------------------------------
   Max    3.862209    constrained

Stress tensor Voigt[x,y,z,yz,xz,xy] (kbar):        0.51        0.21       -0.04        0.00       -0.00       -0.49
(Free)E + p*V (eV/cell)    -4148.2242
Target enthalpy (eV/cell)    -4146.3290

siesta: Stress tensor (static) (eV/Ang**3):
         0.000318   -0.000307   -0.000000
        -0.000307    0.000128    0.000000
        -0.000000    0.000000   -0.000026

siesta: Pressure (static):         -0.22492214  kBar

siesta: Stress tensor (total) (eV/Ang**3):
         0.000318   -0.000307   -0.000000
        -0.000307    0.000128    0.000000
        -0.000000    0.000000   -0.000026

siesta: Pressure (total):         -0.22492214  kBar

siesta: Temp_ion =       0.000 K

siesta: Eigenvalues (eV):
ik =     1
  -21.7735  -21.7735  -21.7193  -21.7193  -21.5073  -21.5073  -21.4373  -21.4373  -21.1119  -21.1119
  -20.9579  -20.9579  -20.7296  -20.7296  -19.7048  -19.7048  -19.3035  -19.3035  -19.2344  -19.2344
  -14.6826  -14.6826  -13.7783  -13.7783  -13.2619  -13.2619  -13.0700  -13.0700  -12.9492  -12.9492
  -12.8012  -12.8012  -12.7644  -12.7644  -12.3677  -12.3677  -12.3491  -12.3491  -11.9629  -11.9629
  -11.3174  -11.3174  -10.7367  -10.7367  -10.6452  -10.6452  -10.6223  -10.6223  -10.0094  -10.0094
   -9.4849   -9.4849   -9.1509   -9.1509   -8.7273   -8.7273   -8.6077   -8.6077   -8.5748   -8.5748
   -8.5284   -8.5284   -8.3297   -8.3297   -8.0654   -8.0654   -7.7654   -7.7654   -7.5082   -7.5082
   -7.5004   -7.5004   -7.2123   -7.2123   -7.1560   -7.1560   -6.7740   -6.7740   -6.6675   -6.6675
   -6.4044   -6.4044   -6.3909   -6.3909   -6.0205   -6.0205   -5.9886   -5.9886   -5.9742   -5.9742
   -5.6513   -5.6513   -5.4770   -5.4770   -5.3832   -5.3832   -4.1808   -4.1808   -3.1585   -3.1585
   -2.2319   -2.2319   -2.1897   -2.1897   -2.1705   -2.1705   -1.7958   -1.7958   -1.7765   -1.7765
   -1.7293   -1.7293   -1.7151   -1.7151   -1.5195   -1.5195   -1.4493   -1.4493   -0.8946   -0.8946
   -0.8125   -0.8125   -0.6861   -0.6860   -0.2899   -0.2899   -0.0831   -0.0831    0.1074    0.1074
    0.4428    0.4428    0.5322    0.5322    0.6736    0.6736    0.7766    0.7766    0.9042    0.9042
    1.0285    1.0285    1.3585    1.3585    1.3907    1.3907    1.4995    1.4995    1.5023    1.5023
    1.8400    1.8400    1.8978    1.8978    1.9865    1.9865    2.4320    2.4320    2.8472    2.8472
    2.8588    2.8588    2.8847    2.8847    3.1007    3.1007    3.2244    3.2244    3.4051    3.4051
    3.5021    3.5021    3.8505    3.8505    3.9347    3.9347    4.1698    4.1698    4.3730    4.3730
    4.5033    4.5033    4.5064    4.5064    4.6550    4.6550    4.7102    4.7102    4.9116    4.9116
    4.9999    4.9999    5.0854    5.0854    5.3534    5.3534    5.5780    5.5780    5.7990    5.7990
    5.8429    5.8429    5.8786    5.8786    5.9761    5.9761    6.0199    6.0199    6.0977    6.0977
    6.2528    6.2528    6.4783    6.4783    6.7040    6.7040    6.8029    6.8029    6.9103    6.9103
    7.1129    7.1129    7.2905    7.2905    7.5389    7.5389    7.6314    7.6314    7.8580    7.8580
    7.8944    7.8944    8.0321    8.0321    8.1723    8.1723    8.3650    8.3650    8.3790    8.3790
    8.6125    8.6125    8.8293    8.8293    8.9713    8.9713    8.9884    8.9884    9.2524    9.2524
    9.3064    9.3064    9.3120    9.3120    9.8069    9.8069    9.9096    9.9096    9.9543    9.9543
   10.1673   10.1673   10.2421   10.2421   10.5592   10.5592   10.8542   10.8542   10.8839   10.8839
   11.0648   11.0648   11.0845   11.0845   11.2543   11.2543   11.7411   11.7411   11.8339   11.8339
   11.9220   11.9220   11.9638   11.9638   12.1734   12.1734   12.4817   12.4817   12.7940   12.7940
   12.8059   12.8059   12.9102   12.9102   13.3858   13.3858   13.5431   13.5431   13.7497   13.7497
   13.8789   13.8789   14.1858   14.1858   14.3760   14.3760   14.7339   14.7339   14.8590   14.8590
   14.9501   14.9501   15.4266   15.4266   16.1187   16.1187   16.5687   16.5687   16.7767   16.7767
   17.0308   17.0308   17.4014   17.4014   17.6799   17.6799   18.2742   18.2742   18.5230   18.5230
   18.7207   18.7207   19.2820   19.2820   19.4668   19.4668   19.9994   19.9994   20.3481   20.3481
   21.0483   21.0483   21.3210   21.3210   22.0464   22.0464   22.3218   22.3218   22.4435   22.4435
   22.9686   22.9686   23.3344   23.3344   23.8064   23.8064   23.9283   23.9283   23.9623   23.9623
   24.9208   24.9208   25.4436   25.4436   26.0554   26.0554   26.8107   26.8107   27.4810   27.4810
   28.2997   28.2997   29.0548   29.0548   29.2293   29.2293   29.4980   29.4980   29.7208   29.7208
   30.0701   30.0701   30.1858   30.1858   30.2831   30.2831   30.8033   30.8033   30.9421   30.9421
   31.1269   31.1269   31.2848   31.2848   31.5950   31.5950   31.7064   31.7064   32.2071   32.2071
   32.6444   32.6444   33.9086   33.9086   34.7200   34.7200   34.7294   34.7294   35.0159   35.0159
   35.1367   35.1367   35.1553   35.1553   35.6251   35.6251   35.7234   35.7234   35.9941   35.9941
   36.8340   36.8340   36.9290   36.9290   37.1095   37.1095   37.3625   37.3625   37.6212   37.6212
   38.3071   38.3071   38.4415   38.4415   39.4294   39.4294   39.4671   39.4671   39.8058   39.8058
   40.5151   40.5151   40.5998   40.5998   40.6836   40.6836   40.6986   40.6986   41.0185   41.0185
   41.0332   41.0332   41.3617   41.3617   42.5489   42.5489   42.9452   42.9452   42.9615   42.9615
   43.4347   43.4347   43.8533   43.8533   43.9942   43.9942   44.0974   44.0974   44.4067   44.4067
   44.7632   44.7632   44.7889   44.7889   45.1561   45.1561   45.5139   45.5139   46.1302   46.1302
   46.3275   46.3275   47.0947   47.0947   47.4379   47.4379   48.9577   48.9577   49.1113   49.1113
   49.5416   49.5416   50.4284   50.4284   50.5308   50.5308   51.0630   51.0630   51.1539   51.1539
   51.7151   51.7151   51.7288   51.7288   52.7814   52.7814   52.8169   52.8169   54.3087   54.3087
   54.3966   54.3966   54.5626   54.5626   54.7056   54.7056   55.7753   55.7753   55.8073   55.8073
   55.8585   55.8585   56.0849   56.0849   56.4691   56.4691   58.0917   58.0917   58.4402   58.4402
   58.7024   58.7024   60.2229   60.2229   60.3430   60.3430   60.5461   60.5461   61.1433   61.1433
   61.9176   61.9176   62.0362   62.0362   62.2223   62.2223   64.8312   64.8312   66.6310   66.6310
   66.8705   66.8705   67.2504   67.2504   68.1467   68.1467   68.5799   68.5799   70.9628   70.9628
   73.8647   73.8647   80.2438   80.2438   91.1655   91.1655   92.1176   92.1176   93.3196   93.3196
   98.3566   98.3566   98.5852   98.5852   99.6172   99.6172  103.1115  103.1115  103.7048  103.7048
  110.1543  110.1543  111.6192  111.6192  124.1302  124.1302  126.3151  126.3151  129.2204  129.2204
  135.1973  135.1973  138.3242  138.3242
siesta: Fermi energy =      -3.669748 eV

siesta: Program's energy decomposition (eV):
siesta: Ebs     =     -1124.643259
siesta: Eions   =      3585.165840
siesta: Ena     =       381.828395
siesta: Ekin    =      2902.636840
siesta: Enl     =     -2787.253238
siesta: Eso     =        -0.004277
siesta: Edftu   =         0.000000
siesta: DEna    =        46.879174
siesta: DUscf   =        14.338059
siesta: DUext   =         0.000000
siesta: Exc     =     -1119.588104
siesta: eta*DQ  =         0.000000
siesta: Emadel  =         0.000000
siesta: Emeta   =         0.000000
siesta: Emolmec =         0.000000
siesta: Ekinion =         0.000000
siesta: Eharris =     -4146.328991
siesta: Etot    =     -4146.328991
siesta: FreeEng =     -4146.328991

siesta: Final energy (eV):
siesta:  Band Struct. =   -1124.643259
siesta:       Kinetic =    2902.636840
siesta:       Hartree =   13399.674461
siesta:       Edftu   =       0.000000
siesta:       Eso     =      -0.004277
siesta:    Ext. field =       0.000000
siesta:   Exch.-corr. =   -1119.588104
siesta:  Ion-electron =  -29373.285611
siesta:       Ion-ion =   10044.237700
siesta:       Ekinion =       0.000000
siesta:         Total =   -4146.328991
siesta:         Fermi =      -3.669748

siesta: Atomic forces (eV/Ang):
siesta:      1    0.019157    0.030747   -0.000000
siesta:      2   -0.530509    0.297822   -0.000000
siesta:      3    0.422780   -0.034610    0.000000
siesta:      4   -0.101053    0.061351   -0.000000
siesta:      5   -0.208515   -0.213414   -0.000000
siesta:      6    0.072297   -0.015142    0.000000
siesta:      7    1.190553    1.012150   -0.000000
siesta:      8    0.789718   -2.285515   -0.000000
siesta:      9   -1.275152    1.834208   -0.000000
siesta:     10    0.101655   -0.344794    0.000000
siesta:     11   -1.017025   -0.320004   -0.000000
siesta:     12    1.219286   -0.236468    0.000000
siesta:     13    2.430281   -1.606489    0.000000
siesta:     14   -0.014627   -0.033873    0.000000
siesta:     15    0.114602    0.033383    0.000000
siesta:     16    0.012910   -0.020034    0.000000
siesta:     17   -0.001811    0.047480    0.000000
siesta:     18   -0.039473    0.047105   -0.000000
siesta:     19    0.258966    0.026131    0.000000
siesta:     20   -1.368076   -0.180591    0.000000
siesta:     21    1.251499   -3.862209    0.000000
siesta:     22    0.347012    0.772348    0.000000
siesta:     23    0.211535   -0.592737   -0.000000
siesta:     24   -0.331486   -0.963460   -0.000000
siesta:     25   -0.480701    1.557916    0.000000
siesta:     26    0.841920   -1.202652    0.000000
siesta:     27   -0.141047    0.099395    0.000000
siesta:     28    0.046598    0.715082   -0.000000
siesta:     29   -0.312180   -0.412866    0.000000
siesta: ----------------------------------------
siesta:    Tot    3.509118   -5.789739    0.000000

siesta: Stress tensor (static) (eV/Ang**3):
siesta:     0.000318   -0.000307   -0.000000
siesta:    -0.000307    0.000128    0.000000
siesta:    -0.000000    0.000000   -0.000026

siesta: Cell volume =      13500.000000 Ang**3

siesta: Pressure (static):
siesta:                Solid            Molecule  Units
siesta:          -0.00000153         -0.00000126  Ry/Bohr**3
siesta:          -0.00014038         -0.00011537  eV/Ang**3
siesta:          -0.22492214         -0.18484868  kBar
(Free)E+ p_basis*V_orbitals  =       -4126.478573
(Free)Eharris+ p_basis*V_orbitals  =       -4126.478573
     spin moment: S , {S} =    0.00000  -0.00000  -0.00000  -0.00000

siesta: Electric dipole (a.u.)  =    0.028983    1.464275    0.000000
siesta: Electric dipole (Debye) =    0.073667    3.721819    0.000000

cite: Please see "GC.bib" for an exhaustive BiBTeX file.
cite: Please clearly indicate Siesta version in published work: v4.1.5-1-g384057250
cite: This calculation has made use of the following articles
cite: which are encouraged to be cited in a published work.
        Primary SIESTA paper
          DOI: www.doi.org/10.1088/0953-8984/14/11/302
        Spin-orbit coupling (on-site approximation)
          DOI: www.doi.org/10.1088/0953-8984/19/19/489001


WARNING: alloc-realloc-dealloc name mismatch
         Name: atomlist isa
         Size:              -116. Bytes
         Node:     0
         Subsequent mismatches will not be reported
>> End of run:   1-FEB-2024  23:08:27
Job completed
