Executable      : siesta-5
Version         : 5.1-MaX-41-g6ad11e234
Architecture    : x86_64
Compiler version: GNU-12.2.0
Compiler flags  : -DSIESTA__METIS -fallow-argument-mismatch -O3 -march=native
Parallelisations: MPI, OpenMP
* OpenMP version: 201511
NetCDF support
NetCDF-4 support
NetCDF-4 MPI-IO support
METIS ordering support
Lua support
Native ELPA support
DFT-D3 support
Wannier90 wrapper support

Runtime information:
* Directory : /home/cdelv/Si_DNA2/Si/Bases/Guanine_VDW_OP
* Running on 32 nodes in parallel.
* Running 1 OpenMP threads.
* Running 32 processes.
* OpenMP NOT bound (please bind threads!)
* OpenMP runtime schedule DYNAMIC, chunks 1
** Changing chunk size:
** OpenMP runtime schedule DYNAMIC, chunks 32
** OpenMP (trying to FORCE nesting)
* OpenMP allows 255 nested levels.
>> Start of run:  11-OCT-2024  21:35:50

                           *********************** 
                           *  WELCOME TO SIESTA  * 
                           *********************** 

 NOTE: Siesta V5 introduces some new defaults for basis-set generation
 NOTE: which might lead to slightly different numerical results.
 NOTE: Please see the manual for full details and compatibility measures.


reinit: Reading from standard input
reinit: Dumping input in INPUT_TMP.80250
************************** Dump of input data file ****************************
# mpirun -np 8 siesta-5 < Guanine.fdf > Guanine.out
SystemLabel      Guanine
NumberOfAtoms    16
NumberOfSpecies  4
%block ChemicalSpeciesLabel
    1    1  H ../../../Pseudos/VW/H/H.psf
    2    7  N ../../../Pseudos/VW/N/N.psf
    3    14 Si ../../../Pseudos/VW/Si/Si.psf
    4    8  O ../../../Pseudos/VW/O/O.psf
%endblock ChemicalSpeciesLabel
############################################
# This overrides Defaults.fdf configuration
############################################
XC.Functional               VDW
XC.Authors                  DRSLL
MD.Steps                    1000
%block Geometry.Constraints
    atom all 0.0 0.0 1.0 # constrain along z Cartesian vector
    atom [6]
%endblock
AtomicCoordinatesFormat NotScaledCartesianAng
%block AtomicCoordinatesAndAtomicSpecies
    5.51499433   -6.73542603    0.00000000   1       1  H
    4.49668993   -6.49969802    0.00000000   2       2  N
    3.20696287   -7.73699471    0.00000000   3       3  Si
    3.70523112   -9.12632560    0.00000000   1       4  H
    1.58602673   -7.26864074    0.00000000   2       5  N
    1.60862386   -5.46691202    0.00000000   3       6  Si
    0.39664659   -3.60445475    0.00000000   3       7  Si
   -1.13326124   -3.19545819    0.00000000   4       8  O
    1.63964823   -2.18836936    0.00000000   2       9  N
    1.07273950   -1.29576183    0.00000000   1      10  H
    3.39197379   -2.08169151    0.00000000   3      11  Si
    4.08086968   -0.48706852    0.00000000   2      12  N
    3.54076212    0.40505808    0.00000000   1      13  H
    5.12537589   -0.39066969    0.00000000   1      14  H
    4.51824581   -3.33711575    0.00000000   2      15  N
    3.70506191   -4.86141287    0.00000000   3      16  Si
%endblock AtomicCoordinatesAndAtomicSpecies
#############
# Unit Cell
#############
LatticeConstant 1.0 Ang
%block LatticeVectors
       13.438530    0.000000    0.000000
        0.000000   17.285978    0.000000
        0.000000    0.000000    8.754136
%endblock LatticeVectors
%include ../../../Defaults.fdf
************************** End of input data file *****************************

reinit: -----------------------------------------------------------------------
reinit: System Name: 
reinit: -----------------------------------------------------------------------
reinit: System Label: Guanine
reinit: -----------------------------------------------------------------------

NOTE on units for spin output: 
{S} is the spin magnetic moment, in units of the Bohr magneton,
assuming a g-factor for the electron spin of exactly 2.
The spin magnetic moment is then numerically equal to the charge inbalance,
in units of electrons, between the spin-up and -down channels.


initatom: Reading input for the pseudopotentials and atomic orbitals ----------
Species number:   1 Atomic number:    1 Label: H
Species number:   2 Atomic number:    7 Label: N
Species number:   3 Atomic number:   14 Label: Si
Species number:   4 Atomic number:    8 Label: O

Ground state valence configuration (from tables):   1s01  2p00  3d00  4f00
Ground state valence configuration (from tables):   2s02  2p03  3d00  4f00
Ground state valence configuration (from tables):   3s02  3p02  3d00  4f00
Ground state valence configuration (from tables):   2s02  2p04  3d00  4f00

---- Processing specs for species: H
Reading pseudopotential information in formatted form from:
  ../../../Pseudos/VW/H/H.psf

---- Processing specs for species: N
Reading pseudopotential information in formatted form from:
  ../../../Pseudos/VW/N/N.psf

---- Processing specs for species: Si
Reading pseudopotential information in formatted form from:
  ../../../Pseudos/VW/Si/Si.psf

---- Processing specs for species: O
Reading pseudopotential information in formatted form from:
  ../../../Pseudos/VW/O/O.psf

---- Pseudopotential check for H 

Pseudopotential generated from a fully relativistic atomic calculation
There are spin-orbit semi-local pseudopotentials available

Pseudized shells:
1s( 1.00) rc: 0.04
Valence configuration for ps generation: (assumed as above)

---- Pseudopotential check for N 

Pseudopotential generated from a fully relativistic atomic calculation
There are spin-orbit semi-local pseudopotentials available

Pseudized shells:
2s( 2.00) rc: 1.00
2p( 3.00) rc: 1.04
3d( 0.00) rc: 2.87
Valence configuration for ps generation: (assumed as above)

---- Pseudopotential check for Si

Pseudopotential generated from a fully relativistic atomic calculation
There are spin-orbit semi-local pseudopotentials available

Pseudized shells:
3s( 2.00) rc: 1.67
3p( 2.00) rc: 1.99
3d( 0.00) rc: 2.04
Valence configuration for ps generation: (assumed as above)

---- Pseudopotential check for O 

Pseudopotential generated from a fully relativistic atomic calculation
There are spin-orbit semi-local pseudopotentials available

Pseudized shells:
2s( 2.00) rc: 0.89
2p( 4.00) rc: 1.03
3d( 0.00) rc: 1.64
Valence configuration for ps generation: (assumed as above)
For H, standard SIESTA heuristics set lmxkb to 2
 (one more than the basis l, including polarization orbitals).
Use PS.lmax or PS.KBprojectors blocks to override.
For N, standard SIESTA heuristics set lmxkb to 3
 (one more than the basis l, including polarization orbitals).
Use PS.lmax or PS.KBprojectors blocks to override.
For Si, standard SIESTA heuristics set lmxkb to 3
 (one more than the basis l, including polarization orbitals).
Use PS.lmax or PS.KBprojectors blocks to override.
For O, standard SIESTA heuristics set lmxkb to 3
 (one more than the basis l, including polarization orbitals).
Use PS.lmax or PS.KBprojectors blocks to override.
../../../Pseudos/VW/H/H.psf pseudopotential only contains V_ls up to l=0 -- lmxkb reset.
../../../Pseudos/VW/N/N.psf pseudopotential only contains V_ls up to l=2 -- lmxkb reset.
../../../Pseudos/VW/Si/Si.psf pseudopotential only contains V_ls up to l=2 -- lmxkb reset.
../../../Pseudos/VW/O/O.psf pseudopotential only contains V_ls up to l=2 -- lmxkb reset.

<basis_specs>
===============================================================================
H                    Z=   1    Mass=  1.0080        Charge= 0.17977+309
Lmxo=1 Lmxkb= 0    BasisType=split      Semic=F
L=0  Nsemic=0  Cnfigmx=1
          i=1  nzeta=2  polorb=1  (1s)  (to be polarized perturbatively)
            splnorm:   0.62000    
               vcte:    40.000    
               rinn:  -0.90000    
               qcoe:    0.0000    
               qyuk:    0.0000    
               qwid:   0.10000E-01
                rcs:    0.0000      0.0000    
            lambdas:    1.0000      1.0000    
L=1  Nsemic=0  Cnfigmx=2
          i=1  nzeta=0  polorb=0  (2p)  (perturbative polarization orbital) (from 1s)
===============================================================================
</basis_specs>

Filter: Requested cutoff:  290.000000 Ry
Using PAO.SplitTailNorm
atom: Called for H                     (Z =   1)
NOTE: H pseudopotential has channels up to l= 0
NOTE: PAOs with higher l will be generated with V_local
Maximum radius (at nrval) set to   50.00000 8518

read_vps: Pseudopotential generation method:
read_vps: ATM4.2.7  Troullier-Martins                       
Valence charge in pseudo generation:    1.00000

xc_check: Exchange-correlation functional:
xc_check: VDW Dion-Rydberg-Schroeder-Langreth-Lundqvist
V l=0 = -2*Zval/r beyond r=  0.0399
All V_l potentials equal beyond r=  0.0399
This should be close to max(r_c) in ps generation
All pots = -2*Zval/r beyond r=  0.0399
Using small-core scheme (local charge) for Vlocal

VLOCAL_FROM_CHLOCAL: 99.0% of the norm of Vloc inside  27227.515 Ry
VLOCAL_FROM_CHLOCAL: 99.9% of the norm of Vloc inside  62052.012 Ry
atom: Maximum radius for chlocal:    0.04942
atom: Maximum radius for r*vlocal+2*Zval:    0.04228

KBgen: Kleinman-Bylander projectors: 
GHOST: No ghost state for L =  0
KBproj: WARNING: Rc(0)=      0.3608
KBproj: WARNING: Cut off radius for the KB projector too small
   l= 0   rc=  0.360771   el= -0.503243   Ekb=-43.540856   kbcos= -0.003669

KBgen: Total number of Kleinman-Bylander projectors:   1
atom: -------------------------------------------------------------------------

atom: SANKEY-TYPE ORBITALS:
atom: Selected multiple-zeta basis: split     

SPLIT: Orbitals with angular momentum L= 0

SPLIT: Basis orbitals for state 1s

SPLIT: PAO cut-off radius determined from an
SPLIT: energy shift=  0.005000 Ry
Split based on tail norm

   izeta = 1
                 lambda =    1.000000
                     rc =    5.772464
                 energy =   -0.497573
                kinetic =    0.983085
    potential(screened) =   -1.480658
       potential(ionic) =   -1.978266
PAO Filter: Cutoff used:  142.10 Ry
PAO Filter: diagnostic kin energy tol:    0.003000 Ry
PAO Filter: Nominal cutoff (before filtering):  117.93 Ry
Filter:    Number of eigenfunctions  of the
           filtering kernel (total, used)= 55 20

   izeta = 2
                 rmatch =    1.631860
              splitnorm =    0.620000
                 energy =    1.774382
                kinetic =    6.071357
    potential(screened) =   -4.296974
       potential(ionic) =   -4.727849
PAO Filter: Cutoff used:  142.10 Ry
PAO Filter: diagnostic kin energy tol:    0.003000 Ry
PAO Filter: Nominal cutoff (before filtering):  901.83 Ry
Filter:    Number of eigenfunctions  of the
           filtering kernel (total, used)= 23  5
*Note: V_local used for l= 1

** Using vlocal for PAOs with L= 1

POLgen: Perturbative polarization orbital with L=  1

POLgen: Polarization orbital for state 1s
*Note: V_local used for lpol= 1

** Using vlocal for PAOs with L= 1
Split based on tail norm

   izeta = 1
                     rc =    5.772464
                 energy =    0.609532
                kinetic =    1.250628
    potential(screened) =   -0.641096
       potential(ionic) =   -1.109550
PAO Filter: diagnostic kin energy tol:    0.003000 Ry
PAO Filter: Nominal cutoff (before filtering):   54.19 Ry
Filter:    Number of eigenfunctions  of the
           filtering kernel (total, used)= 55 20
atom: Total number of Sankey-type orbitals:  5

atm_pop: Valence configuration (for local Pseudopot. screening):
 1s( 1.00)                                                            
 2p( 0.00)                                                            
Vna: chval, zval:    1.00000   1.00000

Vna:  Cut-off radius for the neutral-atom potential:   5.772464
VNA Filter: diagnostic kinetic energy tol:    0.003000 Ry
VNA Filter: Nominal cutoff (before filtering):31865.46 Ry
VNA Filter: Cutoff used:   290.00 Ry
Filter:    Number of eigenfunctions  of the
           filtering kernel (total, used)= 74 30

atom: _________________________________________________________________________

<basis_specs>
===============================================================================
N                    Z=   7    Mass=  14.007        Charge= 0.17977+309
Lmxo=2 Lmxkb= 2    BasisType=split      Semic=F
L=0  Nsemic=0  Cnfigmx=2
          i=1  nzeta=2  polorb=0  (2s)
            splnorm:   0.28000    
               vcte:    40.000    
               rinn:  -0.90000    
               qcoe:    0.0000    
               qyuk:    0.0000    
               qwid:   0.10000E-01
                rcs:    0.0000      0.0000    
            lambdas:    1.0000      1.0000    
L=1  Nsemic=0  Cnfigmx=2
          i=1  nzeta=2  polorb=1  (2p)  (to be polarized perturbatively)
            splnorm:   0.28000    
               vcte:    40.000    
               rinn:  -0.90000    
               qcoe:    0.0000    
               qyuk:    0.0000    
               qwid:   0.10000E-01
                rcs:    0.0000      0.0000    
            lambdas:    1.0000      1.0000    
L=2  Nsemic=0  Cnfigmx=3
          i=1  nzeta=0  polorb=0  (3d)  (perturbative polarization orbital) (from 2p)
-------------------------------------------------------------------------------
L=0  Nkbl=1  erefs: 0.17977+309
L=1  Nkbl=1  erefs: 0.17977+309
L=2  Nkbl=1  erefs: 0.17977+309
===============================================================================
</basis_specs>

Filter: Requested cutoff:  290.000000 Ry
Using PAO.SplitTailNorm
atom: Called for N                     (Z =   7)
Maximum radius (at nrval) set to   50.00000 8518

read_vps: Pseudopotential generation method:
read_vps: ATM4.2.7  Troullier-Martins                       
Valence charge in pseudo generation:    5.00000

xc_check: Exchange-correlation functional:
xc_check: VDW Dion-Rydberg-Schroeder-Langreth-Lundqvist
V l=0 = -2*Zval/r beyond r=  1.6351
V l=1 = -2*Zval/r beyond r=  1.6351
V l=2 = -2*Zval/r beyond r=  3.0728
All V_l potentials equal beyond r=  2.8817
This should be close to max(r_c) in ps generation
All pots = -2*Zval/r beyond r=  3.0728
Using small-core scheme (local charge) for Vlocal

VLOCAL_FROM_CHLOCAL: 99.0% of the norm of Vloc inside      5.227 Ry
VLOCAL_FROM_CHLOCAL: 99.9% of the norm of Vloc inside     11.913 Ry
atom: Maximum radius for chlocal:    3.41750
atom: Maximum radius for r*vlocal+2*Zval:    3.16984

KBgen: Kleinman-Bylander projectors: 
GHOST: No ghost state for L =  0
   l= 0   rc=  2.978674   el= -1.380579   Ekb= -3.918497   kbcos= -0.639583
GHOST: No ghost state for L =  1
j- l= 1   rc=  2.945979   el= -0.537631   Ekb=-10.726195   kbcos= -0.541225
GHOST: No ghost state for L =  1
j+ l= 1   rc=  2.945979   el= -0.536259   Ekb=-10.704119   kbcos= -0.540979
GHOST: No ghost state for L =  2
j- l= 2   rc=  3.869979   el=  0.013287   Ekb= -0.791795   kbcos= -0.046021
GHOST: No ghost state for L =  2
j+ l= 2   rc=  3.869979   el=  0.013287   Ekb= -0.790042   kbcos= -0.046052

KBgen: Total number of Kleinman-Bylander projectors:  17
atom: -------------------------------------------------------------------------

atom: SANKEY-TYPE ORBITALS:
atom: Selected multiple-zeta basis: split     

SPLIT: Orbitals with angular momentum L= 0

SPLIT: Basis orbitals for state 2s

SPLIT: PAO cut-off radius determined from an
SPLIT: energy shift=  0.005000 Ry
Split based on tail norm

   izeta = 1
                 lambda =    1.000000
                     rc =    4.265195
                 energy =   -1.374896
                kinetic =    1.265116
    potential(screened) =   -2.640012
       potential(ionic) =   -8.160676
PAO Filter: Cutoff used:  142.10 Ry
PAO Filter: diagnostic kin energy tol:    0.003000 Ry
PAO Filter: Nominal cutoff (before filtering):   71.53 Ry
Filter:    Number of eigenfunctions  of the
           filtering kernel (total, used)= 43 15

   izeta = 2
                 rmatch =    2.173283
              splitnorm =    0.280000
                 energy =   -0.503777
                kinetic =    3.173825
    potential(screened) =   -3.677602
       potential(ionic) =   -9.854287
PAO Filter: Cutoff used:  142.10 Ry
PAO Filter: diagnostic kin energy tol:    0.003000 Ry
PAO Filter: Nominal cutoff (before filtering):  129.00 Ry
Filter:    Number of eigenfunctions  of the
           filtering kernel (total, used)= 27  7

SPLIT: Orbitals with angular momentum L= 1

SPLIT: Basis orbitals for state 2p

SPLIT: PAO cut-off radius determined from an
SPLIT: energy shift=  0.005000 Ry
Split based on tail norm

   izeta = 1
                 lambda =    1.000000
                     rc =    5.317222
                 energy =   -0.531068
                kinetic =    3.641750
    potential(screened) =   -4.172818
       potential(ionic) =   -9.515546
PAO Filter: Cutoff used:  142.10 Ry
PAO Filter: diagnostic kin energy tol:    0.003000 Ry
PAO Filter: Nominal cutoff (before filtering):   83.42 Ry
Filter:    Number of eigenfunctions  of the
           filtering kernel (total, used)= 51 18

   izeta = 2
                 rmatch =    2.624859
              splitnorm =    0.280000
                 energy =   -0.159696
                kinetic =    6.395910
    potential(screened) =   -6.555607
       potential(ionic) =  -12.720241
PAO Filter: Cutoff used:  142.10 Ry
PAO Filter: diagnostic kin energy tol:    0.003000 Ry
PAO Filter: Nominal cutoff (before filtering):   94.45 Ry
Filter:    Number of eigenfunctions  of the
           filtering kernel (total, used)= 30  8

POLgen: Perturbative polarization orbital with L=  2

POLgen: Polarization orbital for state 2p
Split based on tail norm

   izeta = 1
                     rc =    5.317222
                 energy =    1.517402
                kinetic =    2.627978
    potential(screened) =   -1.110576
       potential(ionic) =   -5.200503
PAO Filter: diagnostic kin energy tol:    0.003000 Ry
PAO Filter: Nominal cutoff (before filtering):   71.63 Ry
Filter:    Number of eigenfunctions  of the
           filtering kernel (total, used)= 51 17
atom: Total number of Sankey-type orbitals: 13

atm_pop: Valence configuration (for local Pseudopot. screening):
 2s( 2.00)                                                            
 2p( 3.00)                                                            
 3d( 0.00)                                                            
Vna: chval, zval:    5.00000   5.00000

Vna:  Cut-off radius for the neutral-atom potential:   5.317222
VNA Filter: diagnostic kinetic energy tol:    0.003000 Ry
VNA Filter: Nominal cutoff (before filtering):   72.95 Ry
VNA Filter: Cutoff used:   290.00 Ry
Filter:    Number of eigenfunctions  of the
           filtering kernel (total, used)= 69 27

atom: _________________________________________________________________________

<basis_specs>
===============================================================================
Si                   Z=  14    Mass=  28.090        Charge= 0.17977+309
Lmxo=2 Lmxkb= 2    BasisType=split      Semic=F
L=0  Nsemic=0  Cnfigmx=3
          i=1  nzeta=2  polorb=0  (3s)
            splnorm:   0.28000    
               vcte:    40.000    
               rinn:  -0.90000    
               qcoe:    0.0000    
               qyuk:    0.0000    
               qwid:   0.10000E-01
                rcs:    0.0000      0.0000    
            lambdas:    1.0000      1.0000    
L=1  Nsemic=0  Cnfigmx=3
          i=1  nzeta=2  polorb=1  (3p)  (to be polarized perturbatively)
            splnorm:   0.28000    
               vcte:    40.000    
               rinn:  -0.90000    
               qcoe:    0.0000    
               qyuk:    0.0000    
               qwid:   0.10000E-01
                rcs:    0.0000      0.0000    
            lambdas:    1.0000      1.0000    
L=2  Nsemic=0  Cnfigmx=3
          i=1  nzeta=0  polorb=0  (3d)  (perturbative polarization orbital) (from 3p)
-------------------------------------------------------------------------------
L=0  Nkbl=1  erefs: 0.17977+309
L=1  Nkbl=1  erefs: 0.17977+309
L=2  Nkbl=1  erefs: 0.17977+309
===============================================================================
</basis_specs>

Filter: Requested cutoff:  290.000000 Ry
Using PAO.SplitTailNorm
atom: Called for Si                    (Z =  14)
Maximum radius (at nrval) set to   50.00000 8518

read_vps: Pseudopotential generation method:
read_vps: ATM4.2.7  Troullier-Martins                       
Valence charge in pseudo generation:    4.00000

read_vps: Pseudopotential includes a core correction:
read_vps: Pseudo-core for xc-correction

xc_check: Exchange-correlation functional:
xc_check: VDW Dion-Rydberg-Schroeder-Langreth-Lundqvist
V l=0 = -2*Zval/r beyond r=  2.9817
V l=1 = -2*Zval/r beyond r=  2.9817
V l=2 = -2*Zval/r beyond r=  2.9817
All V_l potentials equal beyond r=  2.0176
This should be close to max(r_c) in ps generation
All pots = -2*Zval/r beyond r=  2.9817
Using large-core scheme (fit) for Vlocal

atom: Estimated core radius    2.98166
Fit of Vlocal with continuous 2nd derivative
Fitting vlocal at       2.0236
Choosing vlocal chloc cutoff:  5827  3.380000
qtot up to nchloc:    3.99989445
atom: Maximum radius for chlocal:    3.38000
atom: Maximum radius for r*vlocal+2*Zval:    3.38000

KBgen: Kleinman-Bylander projectors: 
GHOST: No ghost state for L =  0
   l= 0   rc=  2.003410   el= -0.803423   Ekb=  5.870525   kbcos=  0.272667
GHOST: No ghost state for L =  1
j- l= 1   rc=  2.007441   el= -0.308801   Ekb=  2.177563   kbcos=  0.262902
GHOST: No ghost state for L =  1
j+ l= 1   rc=  2.007441   el= -0.306484   Ekb=  2.175431   kbcos=  0.263305
GHOST: No ghost state for L =  2
j- l= 2   rc=  2.052316   el=  0.012742   Ekb= -1.769752   kbcos= -0.063968
GHOST: No ghost state for L =  2
j+ l= 2   rc=  2.052316   el=  0.012742   Ekb= -1.765924   kbcos= -0.063963

KBgen: Total number of Kleinman-Bylander projectors:  17
atom: -------------------------------------------------------------------------

atom: SANKEY-TYPE ORBITALS:
atom: Selected multiple-zeta basis: split     

SPLIT: Orbitals with angular momentum L= 0

SPLIT: Basis orbitals for state 3s

SPLIT: PAO cut-off radius determined from an
SPLIT: energy shift=  0.005000 Ry
Split based on tail norm

   izeta = 1
                 lambda =    1.000000
                     rc =    5.818909
                 energy =   -0.797519
                kinetic =    0.548821
    potential(screened) =   -1.346340
       potential(ionic) =   -3.719935
PAO Filter: Cutoff used:  142.10 Ry
PAO Filter: diagnostic kin energy tol:    0.003000 Ry
PAO Filter: Nominal cutoff (before filtering):   16.64 Ry
Filter:    Number of eigenfunctions  of the
           filtering kernel (total, used)= 55 20

   izeta = 2
                 rmatch =    3.322857
              splitnorm =    0.280000
                 energy =   -0.092731
                kinetic =    1.786480
    potential(screened) =   -1.879211
       potential(ionic) =   -4.463576
PAO Filter: Cutoff used:  142.10 Ry
PAO Filter: diagnostic kin energy tol:    0.003000 Ry
PAO Filter: Nominal cutoff (before filtering):   37.41 Ry
Filter:    Number of eigenfunctions  of the
           filtering kernel (total, used)= 36 11

SPLIT: Orbitals with angular momentum L= 1

SPLIT: Basis orbitals for state 3p

SPLIT: PAO cut-off radius determined from an
SPLIT: energy shift=  0.005000 Ry
Split based on tail norm

   izeta = 1
                 lambda =    1.000000
                     rc =    7.640950
                 energy =   -0.301391
                kinetic =    0.815831
    potential(screened) =   -1.117222
       potential(ionic) =   -3.295768
PAO Filter: Cutoff used:  142.10 Ry
PAO Filter: diagnostic kin energy tol:    0.003000 Ry
PAO Filter: Nominal cutoff (before filtering):    6.39 Ry
Filter:    Number of eigenfunctions  of the
           filtering kernel (total, used)= 69 27

   izeta = 2
                 rmatch =    4.390991
              splitnorm =    0.280000
                 energy =   -0.103037
                kinetic =    1.493033
    potential(screened) =   -1.596069
       potential(ionic) =   -4.032629
PAO Filter: Cutoff used:  142.10 Ry
PAO Filter: diagnostic kin energy tol:    0.003000 Ry
PAO Filter: Nominal cutoff (before filtering):   13.44 Ry
Filter:    Number of eigenfunctions  of the
           filtering kernel (total, used)= 44 14

POLgen: Perturbative polarization orbital with L=  2

POLgen: Polarization orbital for state 3p
Split based on tail norm

   izeta = 1
                     rc =    7.640950
                 energy =    0.295111
                kinetic =    1.410872
    potential(screened) =   -1.115761
       potential(ionic) =   -3.163821
PAO Filter: diagnostic kin energy tol:    0.003000 Ry
PAO Filter: Nominal cutoff (before filtering):   23.60 Ry
Filter:    Number of eigenfunctions  of the
           filtering kernel (total, used)= 69 26
atom: Total number of Sankey-type orbitals: 13

atm_pop: Valence configuration (for local Pseudopot. screening):
 3s( 2.00)                                                            
 3p( 2.00)                                                            
 3d( 0.00)                                                            
Vna: chval, zval:    4.00000   4.00000

Vna:  Cut-off radius for the neutral-atom potential:   7.640950
VNA Filter: diagnostic kinetic energy tol:    0.003000 Ry
VNA Filter: Nominal cutoff (before filtering):   11.08 Ry
VNA Filter: Cutoff used:   290.00 Ry
Filter:    Number of eigenfunctions  of the
           filtering kernel (total, used)= 95 40
comcore: Pseudo-core radius Rcore=  2.984657
PCC Filter: diagnostic kin energy tol:    0.003000 Ry
PCC Filter: Nominal cutoff (before filtering):  103.93 Ry
PCC Filter: Cutoff used:   290.00 Ry
Filter:    Number of eigenfunctions  of the
           filtering kernel (total, used)= 43 15

atom: _________________________________________________________________________

<basis_specs>
===============================================================================
O                    Z=   8    Mass=  15.999        Charge= 0.17977+309
Lmxo=2 Lmxkb= 2    BasisType=split      Semic=F
L=0  Nsemic=0  Cnfigmx=2
          i=1  nzeta=2  polorb=0  (2s)
            splnorm:   0.28000    
               vcte:    40.000    
               rinn:  -0.90000    
               qcoe:    0.0000    
               qyuk:    0.0000    
               qwid:   0.10000E-01
                rcs:    0.0000      0.0000    
            lambdas:    1.0000      1.0000    
L=1  Nsemic=0  Cnfigmx=2
          i=1  nzeta=2  polorb=1  (2p)  (to be polarized perturbatively)
            splnorm:   0.28000    
               vcte:    40.000    
               rinn:  -0.90000    
               qcoe:    0.0000    
               qyuk:    0.0000    
               qwid:   0.10000E-01
                rcs:    0.0000      0.0000    
            lambdas:    1.0000      1.0000    
L=2  Nsemic=0  Cnfigmx=3
          i=1  nzeta=0  polorb=0  (3d)  (perturbative polarization orbital) (from 2p)
-------------------------------------------------------------------------------
L=0  Nkbl=1  erefs: 0.17977+309
L=1  Nkbl=1  erefs: 0.17977+309
L=2  Nkbl=1  erefs: 0.17977+309
===============================================================================
</basis_specs>

Filter: Requested cutoff:  290.000000 Ry
Using PAO.SplitTailNorm
atom: Called for O                     (Z =   8)
Maximum radius (at nrval) set to   50.00000 8518

read_vps: Pseudopotential generation method:
read_vps: ATM4.2.7  Troullier-Martins                       
Valence charge in pseudo generation:    6.00000

xc_check: Exchange-correlation functional:
xc_check: VDW Dion-Rydberg-Schroeder-Langreth-Lundqvist
V l=0 = -2*Zval/r beyond r=  1.3024
V l=1 = -2*Zval/r beyond r=  1.3024
V l=2 = -2*Zval/r beyond r=  1.7668
All V_l potentials equal beyond r=  1.6269
This should be close to max(r_c) in ps generation
All pots = -2*Zval/r beyond r=  1.7668
Using small-core scheme (local charge) for Vlocal

VLOCAL_FROM_CHLOCAL: 99.0% of the norm of Vloc inside     16.399 Ry
VLOCAL_FROM_CHLOCAL: 99.9% of the norm of Vloc inside     37.374 Ry
atom: Maximum radius for chlocal:    1.95370
atom: Maximum radius for r*vlocal+2*Zval:    1.79729

KBgen: Kleinman-Bylander projectors: 
GHOST: No ghost state for L =  0
   l= 0   rc=  1.770385   el= -1.777146   Ekb=-20.483406   kbcos= -0.111991
GHOST: No ghost state for L =  1
j- l= 1   rc=  1.745634   el= -0.683129   Ekb=-12.195034   kbcos= -0.452315
GHOST: No ghost state for L =  1
j+ l= 1   rc=  1.745634   el= -0.680470   Ekb=-12.162909   kbcos= -0.451770
GHOST: No ghost state for L =  2
j- l= 2   rc=  2.784994   el=  0.013305   Ekb= -1.481537   kbcos= -0.010110
GHOST: No ghost state for L =  2
j+ l= 2   rc=  2.784994   el=  0.013305   Ekb= -1.467492   kbcos= -0.010143

KBgen: Total number of Kleinman-Bylander projectors:  17
atom: -------------------------------------------------------------------------

atom: SANKEY-TYPE ORBITALS:
atom: Selected multiple-zeta basis: split     

SPLIT: Orbitals with angular momentum L= 0

SPLIT: Basis orbitals for state 2s

SPLIT: PAO cut-off radius determined from an
SPLIT: energy shift=  0.005000 Ry
Split based on tail norm

   izeta = 1
                 lambda =    1.000000
                     rc =    3.812214
                 energy =   -1.771504
                kinetic =    1.675963
    potential(screened) =   -3.447467
       potential(ionic) =  -11.343845
PAO Filter: Cutoff used:  142.10 Ry
PAO Filter: diagnostic kin energy tol:    0.003000 Ry
PAO Filter: Nominal cutoff (before filtering):  117.95 Ry
Filter:    Number of eigenfunctions  of the
           filtering kernel (total, used)= 40 13

   izeta = 2
                 rmatch =    1.891855
              splitnorm =    0.280000
                 energy =   -0.658411
                kinetic =    4.147017
    potential(screened) =   -4.805428
       potential(ionic) =  -13.682672
PAO Filter: Cutoff used:  142.10 Ry
PAO Filter: diagnostic kin energy tol:    0.003000 Ry
PAO Filter: Nominal cutoff (before filtering):  173.72 Ry
Filter:    Number of eigenfunctions  of the
           filtering kernel (total, used)= 25  6

SPLIT: Orbitals with angular momentum L= 1

SPLIT: Basis orbitals for state 2p

SPLIT: PAO cut-off radius determined from an
SPLIT: energy shift=  0.005000 Ry
Split based on tail norm

   izeta = 1
                 lambda =    1.000000
                     rc =    4.762307
                 energy =   -0.675736
                kinetic =    4.938110
    potential(screened) =   -5.613846
       potential(ionic) =  -13.284802
PAO Filter: Cutoff used:  142.10 Ry
PAO Filter: diagnostic kin energy tol:    0.003000 Ry
PAO Filter: Nominal cutoff (before filtering):   95.70 Ry
Filter:    Number of eigenfunctions  of the
           filtering kernel (total, used)= 47 16

   izeta = 2
                 rmatch =    2.271492
              splitnorm =    0.280000
                 energy =   -0.195975
                kinetic =    8.556899
    potential(screened) =   -8.752874
       potential(ionic) =  -17.616199
PAO Filter: Cutoff used:  142.10 Ry
PAO Filter: diagnostic kin energy tol:    0.003000 Ry
PAO Filter: Nominal cutoff (before filtering):  102.30 Ry
Filter:    Number of eigenfunctions  of the
           filtering kernel (total, used)= 28  7

POLgen: Perturbative polarization orbital with L=  2

POLgen: Polarization orbital for state 2p
Split based on tail norm

   izeta = 1
                     rc =    4.762307
                 energy =    2.062551
                kinetic =    3.839367
    potential(screened) =   -1.776815
       potential(ionic) =   -7.691384
PAO Filter: diagnostic kin energy tol:    0.003000 Ry
PAO Filter: Nominal cutoff (before filtering):   97.50 Ry
Filter:    Number of eigenfunctions  of the
           filtering kernel (total, used)= 47 15
atom: Total number of Sankey-type orbitals: 13

atm_pop: Valence configuration (for local Pseudopot. screening):
 2s( 2.00)                                                            
 2p( 4.00)                                                            
 3d( 0.00)                                                            
Vna: chval, zval:    6.00000   6.00000

Vna:  Cut-off radius for the neutral-atom potential:   4.762307
VNA Filter: diagnostic kinetic energy tol:    0.003000 Ry
VNA Filter: Nominal cutoff (before filtering):   68.40 Ry
VNA Filter: Cutoff used:   290.00 Ry
Filter:    Number of eigenfunctions  of the
           filtering kernel (total, used)= 63 24

atom: _________________________________________________________________________

prinput: Basis input 

PAO.BasisType split     

%block ChemicalSpeciesLabel
    1    1 H                       # Species index, atomic number, species label
    2    7 N                       # Species index, atomic number, species label
    3   14 Si                      # Species index, atomic number, species label
    4    8 O                       # Species index, atomic number, species label
%endblock ChemicalSpeciesLabel

%block PAO.Basis                 # Define Basis set
# WARNING: This information might be incomplete!
H                     1                    # Species label, number of l-shells
 n=1   0   2 P   1                   # n, l, Nzeta, Polarization, NzetaPol
   5.772      1.632   
   1.000      1.000   
N                     2                    # Species label, number of l-shells
 n=2   0   2                         # n, l, Nzeta 
   4.265      2.173   
   1.000      1.000   
 n=2   1   2 P   1                   # n, l, Nzeta, Polarization, NzetaPol
   5.317      2.625   
   1.000      1.000   
Si                    2                    # Species label, number of l-shells
 n=3   0   2                         # n, l, Nzeta 
   5.819      3.323   
   1.000      1.000   
 n=3   1   2 P   1                   # n, l, Nzeta, Polarization, NzetaPol
   7.641      4.391   
   1.000      1.000   
O                     2                    # Species label, number of l-shells
 n=2   0   2                         # n, l, Nzeta 
   3.812      1.892   
   1.000      1.000   
 n=2   1   2 P   1                   # n, l, Nzeta, Polarization, NzetaPol
   4.762      2.271   
   1.000      1.000   
%endblock PAO.Basis

prinput: ----------------------------------------------------------------------

Dumping basis to NetCDF file H.ion.nc
Dumping basis to NetCDF file N.ion.nc
Dumping basis to NetCDF file Si.ion.nc
Dumping basis to NetCDF file O.ion.nc
coor:   Atomic-coordinates input format  =     Cartesian coordinates
coor:                                          (in Angstroms)

siesta: Atomic coordinates (Bohr) and species
siesta:     10.42183 -12.72811   0.00000  1        1
siesta:      8.49751 -12.28265   0.00000  2        2
siesta:      6.06028 -14.62080   0.00000  3        3
siesta:      7.00187 -17.24626   0.00000  1        4
siesta:      2.99716 -13.73574   0.00000  2        5
siesta:      3.03986 -10.33097   0.00000  3        6
siesta:      0.74955  -6.81143   0.00000  3        7
siesta:     -2.14155  -6.03854   0.00000  4        8
siesta:      3.09849  -4.13542   0.00000  2        9
siesta:      2.02718  -2.44863   0.00000  1       10
siesta:      6.40990  -3.93383   0.00000  3       11
siesta:      7.71173  -0.92043   0.00000  2       12
siesta:      6.69107   0.76545   0.00000  1       13
siesta:      9.68556  -0.73826   0.00000  1       14
siesta:      8.53825  -6.30623   0.00000  2       15
siesta:      7.00155  -9.18674   0.00000  3       16

siesta: System type = molecule  

initatomlists: Number of atoms, orbitals, and projectors:     16   168   192

siesta: ******************** Simulation parameters ****************************
siesta:
siesta: The following are some of the parameters of the simulation.
siesta: A complete list of the parameters used, including default values,
siesta: can be found in file out.fdf
siesta:
redata: Spin configuration                          = spin-orbit+offsite
redata: Number of spin components                   = 8
redata: Time-Reversal Symmetry                      = F
redata: Spin spiral                                 = F
redata: Long output                                 =   F
redata: Number of Atomic Species                    =        4
redata: Charge density info will appear in .RHO file
redata: Write Mulliken Pop.                         = NO
redata: Matel table size (NRTAB)                    =     1024
redata: Mesh Cutoff                                 =   300.0000 Ry
redata: Net charge of the system                    =     0.0000 |e|
redata: Min. number of SCF Iter                     =        1
redata: Max. number of SCF Iter                     =      200
redata: SCF convergence failure will abort job
redata: SCF mix quantity                            = Hamiltonian
redata: Mix DM or H after convergence               =   F
redata: Recompute H after scf cycle                 =   F
redata: Mix DM in first SCF step                    =   T
redata: Write Pulay info on disk                    =   F
redata: New DM Occupancy tolerance                  = 0.000000000001
redata: No kicks to SCF
redata: DM Mixing Weight for Kicks                  =     0.5000
redata: Require Harris convergence for SCF          =   F
redata: Harris energy tolerance for SCF             =     0.000100 eV
redata: Require DM convergence for SCF              =   T
redata: DM tolerance for SCF                        =     0.000008
redata: Require EDM convergence for SCF             =   F
redata: EDM tolerance for SCF                       =     0.001000 eV
redata: Require H convergence for SCF               =   T
redata: Hamiltonian tolerance for SCF               =     0.000001 eV
redata: Require (free) Energy convergence for SCF   =   F
redata: (free) Energy tolerance for SCF             =     0.000100 eV
redata: Using DFT-D3 dispersion                     =   F
redata: Using Saved Data (generic)                  =   F
redata: Use continuation files for DM               =   T
redata: Neglect nonoverlap interactions             =   F
redata: Method of Calculation                       = Diagonalization
redata: Electronic Temperature                      =     1.0000 K
redata: Fix the spin of the system                  =   F
redata: Split SR and SO contributions               =   F
redata: Max. number of TDED Iter                    =        1
redata: Number of TDED substeps                     =        3
redata: Dynamics option                             = Broyden coord. optimization
redata: Variable cell                               =   F
redata: Maximum number of optimization moves        =     1000
redata: Force tolerance                             =     0.0080 eV/Ang
mix.SCF: Pulay mixing                            = Pulay
mix.SCF:    Variant                              = stable
mix.SCF:    History steps                        = 6
mix.SCF:    Linear mixing weight                 =     0.250000
mix.SCF:    Mixing weight                        =     0.250000
mix.SCF:    SVD condition                        = 0.1000E-07
mix.SCF:    Restart steps                        = 24
mix.SCF:    Restart save steps                   = 3
mix.SCF: Spin-component mixing                   all
redata: Save all siesta data in one NC              =   F
redata: ***********************************************************************

%block SCF.Mixers
  Pulay
%endblock SCF.Mixers

%block SCF.Mixer.Pulay
  # Mixing method
  method pulay
  variant stable

  # Mixing options
  weight 0.2500
  weight.linear 0.2500
  history 6
  restart 24
  restart.save 3
%endblock SCF.Mixer.Pulay

DM_history_depth set to one: no extrapolation allowed by default for geometry relaxation
Size of DM history Fstack: 1
Total number of electrons:    56.000000
Total ionic charge:    56.000000

* ProcessorY, Blocksize:    8   5


* Orbital distribution balance (max,min):    10     5


siesta: k-grid: Number of k-points = 1
siesta: k-point is Gamma-only

diag: Algorithm                                     = ELPA-2stage
diag: ELPA GPU string key                           = nvidia-gpu
diag: Parallel over k                               =   F
diag: Use parallel 2D distribution                  =   T
diag: Parallel block-size                           = 5
diag: Parallel distribution                         =     4 x     8
diag: Used triangular part                          = Lower
diag: Absolute tolerance                            =  0.100E-15
diag: Orthogonalization factor                      =  0.100E-05
diag: Memory factor                                 =  1.0000

siesta: Constraints applied in the following order:
siesta: Constraint v=[  0.00000,  0.00000,  1.00000] (16): pos-dir
  [ 1 -- 16 ]
siesta: Constraint (1): pos
  [ 6 ]


ts: **************************************************************
ts: Save H and S matrices                           =    F
ts: Save DM and EDM matrices                        =    F
ts: Only save the overlap matrix S                  =    F
ts: **************************************************************

************************ Begin: TS CHECKS AND WARNINGS ************************
************************ End: TS CHECKS AND WARNINGS **************************


                     ====================================
                        Begin Broyden opt. move =      0
                     ====================================

outcoor: Atomic coordinates (Ang):                          
    5.51499433   -6.73542603    0.00000000   1       1  H
    4.49668993   -6.49969802    0.00000000   2       2  N
    3.20696287   -7.73699471    0.00000000   3       3  Si
    3.70523112   -9.12632560    0.00000000   1       4  H
    1.58602673   -7.26864074    0.00000000   2       5  N
    1.60862386   -5.46691202    0.00000000   3       6  Si
    0.39664659   -3.60445475    0.00000000   3       7  Si
   -1.13326124   -3.19545819    0.00000000   4       8  O
    1.63964823   -2.18836936    0.00000000   2       9  N
    1.07273950   -1.29576183    0.00000000   1      10  H
    3.39197379   -2.08169151    0.00000000   3      11  Si
    4.08086968   -0.48706852    0.00000000   2      12  N
    3.54076212    0.40505808    0.00000000   1      13  H
    5.12537589   -0.39066969    0.00000000   1      14  H
    4.51824581   -3.33711575    0.00000000   2      15  N
    3.70506191   -4.86141287    0.00000000   3      16  Si

outcell: Unit cell vectors (Ang):
       13.438530    0.000000    0.000000
        0.000000   17.285978    0.000000
        0.000000    0.000000    8.754136

outcell: Cell vector modules (Ang)   :   13.438530   17.285978    8.754136
outcell: Cell angles (23,13,12) (deg):     90.0000     90.0000     90.0000
outcell: Cell volume (Ang**3)        :   2033.5695
<dSpData1D:S at geom step 0
  <sparsity:sparsity for geom step 0
    nrows_g=168 nrows=10 sparsity=.0560 nnzs=1580, refcount: 8>
  <dData1D:(new from dSpData1D) n=1580, refcount: 1>
refcount: 1>
new_DM -- step:     1
Initializing Density Matrix...

Attempting to read DM from file... Failed...
DM filled with atomic data:
<dSpData2D:DM initialized from atoms
  <sparsity:sparsity for geom step 0
    nrows_g=168 nrows=10 sparsity=.0560 nnzs=1580, refcount: 9>
  <dData2D:DM n=1580 m=8, refcount: 1>
refcount: 1>
     spin moment: {S} , |S| = {    0.00000    0.00000   32.00000 }    32.00000

InitMesh: MESH = 144 x 192 x 96 = 2654208
InitMesh: Mesh cutoff (required, used) =   300.000   317.339 Ry
New grid distribution [1]: sub = 2
New grid distribution [2]: sub = 2
New grid distribution [3]: sub = 2
Setting up quadratic distribution...

stepf: Fermi-Dirac step function

siesta: Program's energy decomposition (eV):
siesta: Ebs     =      -438.733498
siesta: Eions   =      5529.398135
siesta: Ena     =       945.554955
siesta: Ekin    =      1840.057004
siesta: Enl(+so)=     -1330.760060
siesta: Eso(nil)=         0.000000
siesta: Edftu   =         0.000000
siesta: DEna    =        39.397519
siesta: DUscf   =        37.171877
siesta: DUext   =         0.000000
siesta: Ex      =     -1324.950519
siesta: Ec      =      -118.163664
siesta: Exc     =     -1443.114184
siesta: EbV     =         0.000000
siesta: eta*DQ  =         0.000000
siesta: Emadel  =         0.000000
siesta: Emeta   =         0.000000
siesta: Emolmec =         0.000000
siesta: Ekinion =         0.000000
siesta: Eharris =     -5403.049872
siesta: Etot    =     -5441.091023
siesta: FreeEng =     -5441.091023

        iscf     Eharris(eV)        E_KS(eV)     FreeEng(eV)     dDmax    Ef(eV) dHmax(eV)
   scf:    1    -5403.049872    -5441.091023    -5441.091023  0.894279 -4.396660 18.751194
     spin moment: {S} , |S| = {   -0.05516   -0.05516    1.99858 }     2.00010
timer: Routine,Calls,Time,% = IterSCF        1       2.687   9.27
   scf:    2    -5470.815622    -5461.150809    -5461.150809  0.314180 -3.862477  5.574634
     spin moment: {S} , |S| = {   -0.00585   -0.00585    0.00037 }     0.00828
   scf:    3    -5463.245006    -5462.379495    -5462.379495  0.031364 -3.756382  4.171424
     spin moment: {S} , |S| = {   -0.00386   -0.00386    0.00016 }     0.00547
   scf:    4    -5463.142926    -5462.777002    -5462.777002  0.031099 -3.413422  2.408180
     spin moment: {S} , |S| = {   -0.00236   -0.00236    0.00007 }     0.00334
   scf:    5    -5463.217757    -5462.991996    -5462.991996  0.035758 -4.173163  0.894629
     spin moment: {S} , |S| = {   -0.00119   -0.00119    0.00002 }     0.00168
   scf:    6    -5463.141371    -5463.063401    -5463.063401  0.020969 -4.031095  0.379634
     spin moment: {S} , |S| = {   -0.00064   -0.00064    0.00000 }     0.00090
   scf:    7    -5463.107767    -5463.084666    -5463.084666  0.009697 -3.975463  0.148005
     spin moment: {S} , |S| = {   -0.00036   -0.00036   -0.00000 }     0.00052
   scf:    8    -5463.101814    -5463.092812    -5463.092812  0.005787 -3.955015  0.104981
     spin moment: {S} , |S| = {   -0.00022   -0.00022   -0.00000 }     0.00031
   scf:    9    -5463.104071    -5463.098003    -5463.098003  0.006192 -3.944255  0.068808
     spin moment: {S} , |S| = {   -0.00011   -0.00011   -0.00000 }     0.00015
   scf:   10    -5463.103106    -5463.100308    -5463.100308  0.004801 -3.941577  0.042329
     spin moment: {S} , |S| = {   -0.00005   -0.00005   -0.00000 }     0.00007
   scf:   11    -5463.102849    -5463.101368    -5463.101368  0.004967 -3.943385  0.026096
     spin moment: {S} , |S| = {   -0.00001   -0.00001   -0.00000 }     0.00002
   scf:   12    -5463.101762    -5463.101537    -5463.101537  0.002242 -3.946028  0.012286
     spin moment: {S} , |S| = {   -0.00001   -0.00001   -0.00000 }     0.00001
   scf:   13    -5463.101624    -5463.101576    -5463.101576  0.000997 -3.946416  0.008037
     spin moment: {S} , |S| = {   -0.00000   -0.00000   -0.00000 }     0.00000
   scf:   14    -5463.101618    -5463.101596    -5463.101596  0.000676 -3.946557  0.006151
     spin moment: {S} , |S| = {   -0.00000   -0.00000   -0.00000 }     0.00000
   scf:   15    -5463.101625    -5463.101608    -5463.101608  0.000739 -3.946419  0.002689
     spin moment: {S} , |S| = {   -0.00000   -0.00000   -0.00000 }     0.00000
   scf:   16    -5463.101615    -5463.101611    -5463.101611  0.000306 -3.946323  0.001440
     spin moment: {S} , |S| = {   -0.00000   -0.00000   -0.00000 }     0.00000
   scf:   17    -5463.101612    -5463.101612    -5463.101612  0.000120 -3.946395  0.000825
     spin moment: {S} , |S| = {   -0.00000   -0.00000   -0.00000 }     0.00000
   scf:   18    -5463.101612    -5463.101612    -5463.101612  0.000060 -3.946396  0.000531
     spin moment: {S} , |S| = {   -0.00000   -0.00000   -0.00000 }     0.00000
   scf:   19    -5463.101612    -5463.101612    -5463.101612  0.000039 -3.946386  0.000277
     spin moment: {S} , |S| = {   -0.00000   -0.00000    0.00000 }     0.00000
   scf:   20    -5463.101611    -5463.101611    -5463.101611  0.000017 -3.946360  0.000086
     spin moment: {S} , |S| = {   -0.00000   -0.00000    0.00000 }     0.00000
   scf:   21    -5463.101611    -5463.101611    -5463.101611  0.000002 -3.946359  0.000055
     spin moment: {S} , |S| = {   -0.00000   -0.00000    0.00000 }     0.00000
   scf:   22    -5463.101611    -5463.101611    -5463.101611  0.000003 -3.946362  0.000031
     spin moment: {S} , |S| = {   -0.00000   -0.00000    0.00000 }     0.00000
   scf:   23    -5463.101611    -5463.101611    -5463.101611  0.000003 -3.946366  0.000013
     spin moment: {S} , |S| = {   -0.00000   -0.00000    0.00000 }     0.00000
   scf:   24    -5463.101611    -5463.101611    -5463.101611  0.000001 -3.946366  0.000009
     spin moment: {S} , |S| = {   -0.00000   -0.00000    0.00000 }     0.00000
mix: Pulay -- resetting history
   scf:   25    -5463.101611    -5463.101611    -5463.101611  0.000001 -3.946365  0.000005
     spin moment: {S} , |S| = {   -0.00000   -0.00000    0.00000 }     0.00000
   scf:   26    -5463.101611    -5463.101611    -5463.101611  0.000000 -3.946365  0.000004
     spin moment: {S} , |S| = {   -0.00000   -0.00000    0.00000 }     0.00000
   scf:   27    -5463.101611    -5463.101611    -5463.101611  0.000000 -3.946365  0.000002
     spin moment: {S} , |S| = {   -0.00000   -0.00000    0.00000 }     0.00000
   scf:   28    -5463.101611    -5463.101611    -5463.101611  0.000000 -3.946366  0.000001
     spin moment: {S} , |S| = {   -0.00000   -0.00000    0.00000 }     0.00000

SCF Convergence by DM+H criterion
max |DM_out - DM_in|         :     0.0000001945
max |H_out - H_in|      (eV) :     0.0000007133
SCF cycle converged after 28 iterations

Using DM_out to compute the final energy and forces

siesta: E_KS(eV) =            -5463.1016

siesta: E_KS - E_eggbox =     -5463.1016
     spin moment: {S} , |S| = {   -0.00000   -0.00000    0.00000 }     0.00000

siesta: Atomic forces (eV/Ang):
     1   -0.128071    0.032086    0.000000
     2   -0.370931    0.049058    0.000000
     3   -0.228918    0.229075   -0.000000
     4    0.027555    0.011446    0.000000
     5    0.606290    0.467629    0.000000
     6   -0.140313   -0.570604    0.000000
     7   -0.735661    0.484807   -0.000000
     8    0.849229   -0.119580    0.000000
     9   -0.036054    0.060077    0.000000
    10    0.156721   -0.363705    0.000000
    11    0.077010    0.015862   -0.000000
    12   -0.027039   -0.192600   -0.000000
    13    0.135150   -0.129366    0.000000
    14   -0.223298    0.024071    0.000000
    15   -0.579165   -0.097050    0.000000
    16    0.601629    0.093418   -0.000000
----------------------------------------
   Tot   -0.015864   -0.005374   -0.000000
----------------------------------------
   Max    0.849229
   Res    0.278134    sqrt( Sum f_i^2 / 3N )
----------------------------------------
   Max    0.849229    constrained

Stress tensor Voigt[x,y,z,yz,xz,xy] (kbar):        3.70        3.00        0.00       -0.00       -0.00       -0.02
(Free)E + p*V (eV/cell)    -5465.9364
Target enthalpy (eV/cell)    -5463.1016

Broyden_optim: max_history for broyden:   5
Broyden_optim: cycle on maxit: T
Broyden_optim: initial inverse jacobian:   1.0000

Broyden_optim: No of elements:     48

                     ====================================
                        Begin Broyden opt. move =      1
                     ====================================

outcoor: Atomic coordinates (Ang):                          
    5.51235841   -6.73476564    0.00000000   1       1  H
    4.48905553   -6.49868832    0.00000000   2       2  N
    3.20225135   -7.73227995    0.00000000   3       3  Si
    3.70579825   -9.12609001    0.00000000   1       4  H
    1.59850522   -7.25901612    0.00000000   2       5  N
    1.60862386   -5.46691202    0.00000000   3       6  Si
    0.38150543   -3.59447658    0.00000000   3       7  Si
   -1.11578264   -3.19791935    0.00000000   4       8  O
    1.63890617   -2.18713288    0.00000000   2       9  N
    1.07596509   -1.30324750    0.00000000   1      10  H
    3.39355879   -2.08136505    0.00000000   3      11  Si
    4.08031317   -0.49103255    0.00000000   2      12  N
    3.54354375    0.40239550    0.00000000   1      13  H
    5.12078004   -0.39017427    0.00000000   1      14  H
    4.50632561   -3.33911320    0.00000000   2      15  N
    3.71744448   -4.85949016    0.00000000   3      16  Si

outcell: Unit cell vectors (Ang):
       13.438530    0.000000    0.000000
        0.000000   17.285978    0.000000
        0.000000    0.000000    8.754136

outcell: Cell vector modules (Ang)   :   13.438530   17.285978    8.754136
outcell: Cell angles (23,13,12) (deg):     90.0000     90.0000     90.0000
outcell: Cell volume (Ang**3)        :   2033.5695
<dSpData1D:S at geom step 1
  <sparsity:sparsity for geom step 1
    nrows_g=168 nrows=10 sparsity=.0560 nnzs=1580, refcount: 8>
  <dData1D:(new from dSpData1D) n=1580, refcount: 1>
refcount: 1>
new_DM -- step:     2
Re-using DM from previous geometries...
Number of DMs in history: 1
 DM extrapolation coefficients: 
1   1.00000
New DM after history re-use:
<dSpData2D:SpM extrapolated using coords
  <sparsity:sparsity for geom step 1
    nrows_g=168 nrows=10 sparsity=.0560 nnzs=1580, refcount: 10>
  <dData2D:(temp array for extrapolation) n=1580 m=8, refcount: 1>
refcount: 1>
     spin moment: {S} , |S| = {    0.00005    0.00005   -0.00000 }     0.00007

InitMesh: MESH = 144 x 192 x 96 = 2654208
InitMesh: Mesh cutoff (required, used) =   300.000   317.339 Ry
New grid distribution [1]: sub = 2
New grid distribution [2]: sub = 2
New grid distribution [3]: sub = 2
Setting up quadratic distribution...

        iscf     Eharris(eV)        E_KS(eV)     FreeEng(eV)     dDmax    Ef(eV) dHmax(eV)
   scf:    1    -5462.864921    -5463.109832    -5463.109832  0.014919 -3.974456  0.379202
     spin moment: {S} , |S| = {   -0.00000   -0.00000    0.00000 }     0.00000
   scf:    2    -5462.828726    -5463.031352    -5463.031352  0.022376 -4.180129  1.254163
     spin moment: {S} , |S| = {   -0.00000   -0.00000    0.00000 }     0.00000
   scf:    3    -5463.143232    -5463.123089    -5463.123089  0.016998 -3.988107  0.064969
     spin moment: {S} , |S| = {   -0.00000   -0.00000    0.00000 }     0.00000
   scf:    4    -5463.123507    -5463.123340    -5463.123340  0.000863 -3.994596  0.023478
     spin moment: {S} , |S| = {   -0.00000   -0.00000    0.00000 }     0.00000
   scf:    5    -5463.123402    -5463.123376    -5463.123376  0.000488 -3.997832  0.009740
     spin moment: {S} , |S| = {   -0.00000   -0.00000    0.00000 }     0.00000
   scf:    6    -5463.123384    -5463.123381    -5463.123381  0.000209 -3.998822  0.004558
     spin moment: {S} , |S| = {   -0.00000   -0.00000    0.00000 }     0.00000
   scf:    7    -5463.123383    -5463.123382    -5463.123382  0.000153 -3.999310  0.001388
     spin moment: {S} , |S| = {   -0.00000   -0.00000    0.00000 }     0.00000
   scf:    8    -5463.123382    -5463.123382    -5463.123382  0.000071 -3.999412  0.000314
     spin moment: {S} , |S| = {   -0.00000   -0.00000    0.00000 }     0.00000
   scf:    9    -5463.123382    -5463.123382    -5463.123382  0.000019 -3.999443  0.000158
     spin moment: {S} , |S| = {   -0.00000   -0.00000    0.00000 }     0.00000
   scf:   10    -5463.123382    -5463.123382    -5463.123382  0.000006 -3.999434  0.000056
     spin moment: {S} , |S| = {   -0.00000   -0.00000    0.00000 }     0.00000
   scf:   11    -5463.123382    -5463.123382    -5463.123382  0.000004 -3.999443  0.000029
     spin moment: {S} , |S| = {   -0.00000   -0.00000    0.00000 }     0.00000
   scf:   12    -5463.123382    -5463.123382    -5463.123382  0.000001 -3.999441  0.000012
     spin moment: {S} , |S| = {   -0.00000   -0.00000    0.00000 }     0.00000
   scf:   13    -5463.123382    -5463.123382    -5463.123382  0.000000 -3.999441  0.000006
     spin moment: {S} , |S| = {   -0.00000   -0.00000    0.00000 }     0.00000
   scf:   14    -5463.123382    -5463.123382    -5463.123382  0.000000 -3.999441  0.000002
     spin moment: {S} , |S| = {   -0.00000   -0.00000    0.00000 }     0.00000
   scf:   15    -5463.123382    -5463.123382    -5463.123382  0.000000 -3.999440  0.000001
     spin moment: {S} , |S| = {   -0.00000   -0.00000    0.00000 }     0.00000
   scf:   16    -5463.123382    -5463.123382    -5463.123382  0.000000 -3.999440  0.000001
     spin moment: {S} , |S| = {   -0.00000   -0.00000    0.00000 }     0.00000

SCF Convergence by DM+H criterion
max |DM_out - DM_in|         :     0.0000000442
max |H_out - H_in|      (eV) :     0.0000007322
SCF cycle converged after 16 iterations

Using DM_out to compute the final energy and forces

siesta: E_KS(eV) =            -5463.1234
     spin moment: {S} , |S| = {   -0.00000   -0.00000    0.00000 }     0.00000

siesta: Atomic forces (eV/Ang):
     1   -0.312688    0.173362    0.000000
     2    0.126797   -0.022854    0.000000
     3    0.091208   -0.044769   -0.000000
     4   -0.090249   -0.003681    0.000000
     5    0.211338    0.402922    0.000000
     6   -0.076149   -0.199733    0.000000
     7    1.017184   -0.158637   -0.000000
     8   -0.674177    0.330590    0.000000
     9    0.163577   -0.272951    0.000000
    10    0.129031    0.116905    0.000000
    11   -0.149935   -0.007572   -0.000000
    12   -0.135643   -0.092189   -0.000000
    13   -0.869310    0.166317    0.000000
    14    0.790797   -0.380318    0.000000
    15   -0.238615    0.068930    0.000000
    16    0.073392   -0.131446   -0.000000
----------------------------------------
   Tot    0.056558   -0.055123    0.000000
----------------------------------------
   Max    1.017184
   Res    0.283504    sqrt( Sum f_i^2 / 3N )
----------------------------------------
   Max    1.017184    constrained

Stress tensor Voigt[x,y,z,yz,xz,xy] (kbar):        0.61        1.73        0.00       -0.00       -0.00        1.04
(Free)E + p*V (eV/cell)    -5464.1125
Target enthalpy (eV/cell)    -5463.1234

                     ====================================
                        Begin Broyden opt. move =      2
                     ====================================

outcoor: Atomic coordinates (Ang):                          
    5.50928488   -6.73306159    0.00000000   1       1  H
    4.49030186   -6.49891295    0.00000000   2       2  N
    3.20314788   -7.73272000    0.00000000   3       3  Si
    3.70491115   -9.12612620    0.00000000   1       4  H
    1.60058255   -7.25505564    0.00000000   2       5  N
    1.60862386   -5.46691202    0.00000000   3       6  Si
    0.39150374   -3.59603589    0.00000000   3       7  Si
   -1.12240940   -3.19466985    0.00000000   4       8  O
    1.64051403   -2.18981582    0.00000000   2       9  N
    1.07723339   -1.30209839    0.00000000   1      10  H
    3.39208502   -2.08143948    0.00000000   3      11  Si
    4.07897988   -0.49193871    0.00000000   2      12  N
    3.53499895    0.40403029    0.00000000   1      13  H
    5.12855310   -0.39391257    0.00000000   1      14  H
    4.50398016   -3.33843566    0.00000000   2      15  N
    3.71816588   -4.86078220    0.00000000   3      16  Si

outcell: Unit cell vectors (Ang):
       13.438530    0.000000    0.000000
        0.000000   17.285978    0.000000
        0.000000    0.000000    8.754136

outcell: Cell vector modules (Ang)   :   13.438530   17.285978    8.754136
outcell: Cell angles (23,13,12) (deg):     90.0000     90.0000     90.0000
outcell: Cell volume (Ang**3)        :   2033.5695
<dSpData1D:S at geom step 2
  <sparsity:sparsity for geom step 2
    nrows_g=168 nrows=10 sparsity=.0560 nnzs=1580, refcount: 8>
  <dData1D:(new from dSpData1D) n=1580, refcount: 1>
refcount: 1>
new_DM -- step:     3
Re-using DM from previous geometries...
Number of DMs in history: 1
 DM extrapolation coefficients: 
1   1.00000
New DM after history re-use:
<dSpData2D:SpM extrapolated using coords
  <sparsity:sparsity for geom step 2
    nrows_g=168 nrows=10 sparsity=.0560 nnzs=1580, refcount: 10>
  <dData2D:(temp array for extrapolation) n=1580 m=8, refcount: 1>
refcount: 1>
     spin moment: {S} , |S| = {   -0.00002   -0.00002   -0.00000 }     0.00003

InitMesh: MESH = 144 x 192 x 96 = 2654208
InitMesh: Mesh cutoff (required, used) =   300.000   317.339 Ry
New grid distribution [1]: sub = 2
New grid distribution [2]: sub = 2
New grid distribution [3]: sub = 2
Setting up quadratic distribution...

        iscf     Eharris(eV)        E_KS(eV)     FreeEng(eV)     dDmax    Ef(eV) dHmax(eV)
   scf:    1    -5463.132089    -5463.123114    -5463.123114  0.009937 -4.018455  0.372278
     spin moment: {S} , |S| = {   -0.00000   -0.00000    0.00000 }     0.00000
   scf:    2    -5462.932984    -5463.068186    -5463.068186  0.019976 -3.964263  1.403496
     spin moment: {S} , |S| = {   -0.00000   -0.00000   -0.00000 }     0.00000
   scf:    3    -5463.142187    -5463.129596    -5463.129596  0.015260 -3.993651  0.034821
     spin moment: {S} , |S| = {   -0.00000   -0.00000   -0.00000 }     0.00000
   scf:    4    -5463.129720    -5463.129669    -5463.129669  0.000552 -3.991827  0.016470
     spin moment: {S} , |S| = {   -0.00000   -0.00000   -0.00000 }     0.00000
   scf:    5    -5463.129696    -5463.129685    -5463.129685  0.000330 -3.990472  0.005568
     spin moment: {S} , |S| = {   -0.00000   -0.00000   -0.00000 }     0.00000
   scf:    6    -5463.129689    -5463.129687    -5463.129687  0.000183 -3.989721  0.001940
     spin moment: {S} , |S| = {   -0.00000   -0.00000   -0.00000 }     0.00000
   scf:    7    -5463.129688    -5463.129687    -5463.129687  0.000063 -3.989531  0.000812
     spin moment: {S} , |S| = {   -0.00000   -0.00000   -0.00000 }     0.00000
   scf:    8    -5463.129687    -5463.129687    -5463.129687  0.000025 -3.989494  0.000375
     spin moment: {S} , |S| = {   -0.00000   -0.00000   -0.00000 }     0.00000
   scf:    9    -5463.129687    -5463.129687    -5463.129687  0.000017 -3.989476  0.000087
     spin moment: {S} , |S| = {   -0.00000   -0.00000   -0.00000 }     0.00000
   scf:   10    -5463.129687    -5463.129687    -5463.129687  0.000003 -3.989480  0.000051
     spin moment: {S} , |S| = {   -0.00000   -0.00000   -0.00000 }     0.00000
   scf:   11    -5463.129687    -5463.129687    -5463.129687  0.000003 -3.989477  0.000027
     spin moment: {S} , |S| = {   -0.00000   -0.00000   -0.00000 }     0.00000
   scf:   12    -5463.129687    -5463.129687    -5463.129687  0.000001 -3.989477  0.000012
     spin moment: {S} , |S| = {   -0.00000   -0.00000   -0.00000 }     0.00000
   scf:   13    -5463.129687    -5463.129687    -5463.129687  0.000001 -3.989478  0.000005
     spin moment: {S} , |S| = {   -0.00000   -0.00000   -0.00000 }     0.00000
   scf:   14    -5463.129687    -5463.129687    -5463.129687  0.000000 -3.989478  0.000003
     spin moment: {S} , |S| = {   -0.00000   -0.00000   -0.00000 }     0.00000
   scf:   15    -5463.129687    -5463.129687    -5463.129687  0.000000 -3.989479  0.000001
     spin moment: {S} , |S| = {   -0.00000   -0.00000   -0.00000 }     0.00000

SCF Convergence by DM+H criterion
max |DM_out - DM_in|         :     0.0000001123
max |H_out - H_in|      (eV) :     0.0000005561
SCF cycle converged after 15 iterations

Using DM_out to compute the final energy and forces

siesta: E_KS(eV) =            -5463.1297
     spin moment: {S} , |S| = {   -0.00000   -0.00000   -0.00000 }     0.00000

siesta: Atomic forces (eV/Ang):
     1   -0.067339    0.107659    0.000000
     2   -0.117403    0.028413    0.000000
     3    0.078272   -0.015814   -0.000000
     4   -0.083888   -0.008895    0.000000
     5    0.207482    0.324498    0.000000
     6   -0.011717   -0.210938    0.000000
     7    0.081941    0.082539   -0.000000
     8    0.118879    0.099507    0.000000
     9    0.065912   -0.060610    0.000000
    10   -0.335058   -0.430900    0.000000
    11   -0.091032   -0.017954   -0.000000
    12    0.119252    0.187085   -0.000000
    13    1.577035   -0.551544    0.000000
    14   -1.373649    0.458560    0.000000
    15   -0.208944    0.023129    0.000000
    16    0.075547   -0.095478   -0.000000
----------------------------------------
   Tot    0.035292   -0.080744    0.000000
----------------------------------------
   Max    1.577035
   Res    0.341137    sqrt( Sum f_i^2 / 3N )
----------------------------------------
   Max    1.577035    constrained

Stress tensor Voigt[x,y,z,yz,xz,xy] (kbar):        2.70        1.85       -0.00       -0.00       -0.00       -1.09
(Free)E + p*V (eV/cell)    -5465.0552
Target enthalpy (eV/cell)    -5463.1297

                     ====================================
                        Begin Broyden opt. move =      3
                     ====================================

outcoor: Atomic coordinates (Ang):                          
    5.50828947   -6.73212926    0.00000000   1       1  H
    4.48992262   -6.49880536    0.00000000   2       2  N
    3.20375542   -7.73289591    0.00000000   3       3  Si
    3.70427517   -9.12618175    0.00000000   1       4  H
    1.60213158   -7.25248687    0.00000000   2       5  N
    1.60862386   -5.46691202    0.00000000   3       6  Si
    0.39400003   -3.59590953    0.00000000   3       7  Si
   -1.12312696   -3.19346428    0.00000000   4       8  O
    1.64120077   -2.19069462    0.00000000   2       9  N
    1.07568113   -1.30419363    0.00000000   1      10  H
    3.39128992   -2.08155189    0.00000000   3      11  Si
    4.07935127   -0.49111264    0.00000000   2      12  N
    3.54177626    0.40138209    0.00000000   1      13  H
    5.12271766   -0.39219934    0.00000000   1      14  H
    4.50236817   -3.33817141    0.00000000   2      15  N
    3.71872272   -4.86156404    0.00000000   3      16  Si

outcell: Unit cell vectors (Ang):
       13.438530    0.000000    0.000000
        0.000000   17.285978    0.000000
        0.000000    0.000000    8.754136

outcell: Cell vector modules (Ang)   :   13.438530   17.285978    8.754136
outcell: Cell angles (23,13,12) (deg):     90.0000     90.0000     90.0000
outcell: Cell volume (Ang**3)        :   2033.5695
<dSpData1D:S at geom step 3
  <sparsity:sparsity for geom step 3
    nrows_g=168 nrows=10 sparsity=.0560 nnzs=1580, refcount: 8>
  <dData1D:(new from dSpData1D) n=1580, refcount: 1>
refcount: 1>
new_DM -- step:     4
Re-using DM from previous geometries...
Number of DMs in history: 1
 DM extrapolation coefficients: 
1   1.00000
New DM after history re-use:
<dSpData2D:SpM extrapolated using coords
  <sparsity:sparsity for geom step 3
    nrows_g=168 nrows=10 sparsity=.0560 nnzs=1580, refcount: 10>
  <dData2D:(temp array for extrapolation) n=1580 m=8, refcount: 1>
refcount: 1>
     spin moment: {S} , |S| = {    0.00000    0.00000   -0.00000 }     0.00000

InitMesh: MESH = 144 x 192 x 96 = 2654208
InitMesh: Mesh cutoff (required, used) =   300.000   317.339 Ry
New grid distribution [1]: sub = 2
New grid distribution [2]: sub = 2
New grid distribution [3]: sub = 2
Setting up quadratic distribution...

        iscf     Eharris(eV)        E_KS(eV)     FreeEng(eV)     dDmax    Ef(eV) dHmax(eV)
   scf:    1    -5463.081750    -5463.139782    -5463.139782  0.003113 -3.960469  0.158256
     spin moment: {S} , |S| = {   -0.00000   -0.00000   -0.00000 }     0.00000
   scf:    2    -5463.119397    -5463.133836    -5463.133836  0.006551 -3.973627  0.522858
     spin moment: {S} , |S| = {   -0.00000   -0.00000   -0.00000 }     0.00000
   scf:    3    -5463.141668    -5463.140416    -5463.140416  0.005065 -3.963577  0.022356
     spin moment: {S} , |S| = {   -0.00000   -0.00000   -0.00000 }     0.00000
   scf:    4    -5463.140438    -5463.140429    -5463.140429  0.000227 -3.965702  0.008083
     spin moment: {S} , |S| = {   -0.00000   -0.00000   -0.00000 }     0.00000
   scf:    5    -5463.140431    -5463.140430    -5463.140430  0.000117 -3.966750  0.001913
     spin moment: {S} , |S| = {   -0.00000   -0.00000   -0.00000 }     0.00000
   scf:    6    -5463.140430    -5463.140430    -5463.140430  0.000046 -3.967086  0.000458
     spin moment: {S} , |S| = {   -0.00000   -0.00000   -0.00000 }     0.00000
   scf:    7    -5463.140430    -5463.140430    -5463.140430  0.000018 -3.967196  0.000201
     spin moment: {S} , |S| = {   -0.00000   -0.00000   -0.00000 }     0.00000
   scf:    8    -5463.140430    -5463.140430    -5463.140430  0.000011 -3.967248  0.000065
     spin moment: {S} , |S| = {   -0.00000   -0.00000   -0.00000 }     0.00000
   scf:    9    -5463.140430    -5463.140430    -5463.140430  0.000005 -3.967260  0.000018
     spin moment: {S} , |S| = {   -0.00000   -0.00000   -0.00000 }     0.00000
   scf:   10    -5463.140430    -5463.140430    -5463.140430  0.000002 -3.967260  0.000013
     spin moment: {S} , |S| = {   -0.00000   -0.00000   -0.00000 }     0.00000
   scf:   11    -5463.140430    -5463.140430    -5463.140430  0.000002 -3.967261  0.000007
     spin moment: {S} , |S| = {   -0.00000   -0.00000   -0.00000 }     0.00000
   scf:   12    -5463.140430    -5463.140430    -5463.140430  0.000001 -3.967260  0.000005
     spin moment: {S} , |S| = {   -0.00000   -0.00000   -0.00000 }     0.00000
   scf:   13    -5463.140430    -5463.140430    -5463.140430  0.000000 -3.967260  0.000002
     spin moment: {S} , |S| = {   -0.00000   -0.00000   -0.00000 }     0.00000
   scf:   14    -5463.140430    -5463.140430    -5463.140430  0.000000 -3.967260  0.000001
     spin moment: {S} , |S| = {   -0.00000   -0.00000   -0.00000 }     0.00000

SCF Convergence by DM+H criterion
max |DM_out - DM_in|         :     0.0000001145
max |H_out - H_in|      (eV) :     0.0000009139
SCF cycle converged after 14 iterations

Using DM_out to compute the final energy and forces

siesta: E_KS(eV) =            -5463.1404
     spin moment: {S} , |S| = {   -0.00000   -0.00000   -0.00000 }     0.00000

siesta: Atomic forces (eV/Ang):
     1   -0.054505    0.057553    0.000000
     2   -0.131381    0.028051    0.000000
     3    0.060856   -0.010022   -0.000000
     4   -0.052244    0.025357    0.000000
     5    0.201702    0.275784    0.000000
     6    0.007899   -0.188382    0.000000
     7   -0.098210    0.112933   -0.000000
     8    0.267078    0.055445    0.000000
     9    0.040987   -0.038695    0.000000
    10    0.131278   -0.114693    0.000000
    11   -0.057811    0.024702   -0.000000
    12   -0.002815   -0.119646   -0.000000
    13   -0.406768    0.062856    0.000000
    14    0.260780   -0.198528    0.000000
    15   -0.185415    0.004639    0.000000
    16    0.055164   -0.071445   -0.000000
----------------------------------------
   Tot    0.036596   -0.094091    0.000000
----------------------------------------
   Max    0.406768
   Res    0.116532    sqrt( Sum f_i^2 / 3N )
----------------------------------------
   Max    0.406768    constrained

Stress tensor Voigt[x,y,z,yz,xz,xy] (kbar):        1.68        1.67       -0.00       -0.00       -0.00        0.50
(Free)E + p*V (eV/cell)    -5464.5565
Target enthalpy (eV/cell)    -5463.1404

                     ====================================
                        Begin Broyden opt. move =      4
                     ====================================

outcoor: Atomic coordinates (Ang):                          
    5.50590814   -6.72977104    0.00000000   1       1  H
    4.48650447   -6.49804636    0.00000000   2       2  N
    3.20582788   -7.73332379    0.00000000   3       3  Si
    3.70237161   -9.12565551    0.00000000   1       4  H
    1.60848760   -7.24329378    0.00000000   2       5  N
    1.60862386   -5.46691202    0.00000000   3       6  Si
    0.39458543   -3.59319376    0.00000000   3       7  Si
   -1.11784543   -3.19083355    0.00000000   4       8  O
    1.64291207   -2.19257854    0.00000000   2       9  N
    1.07708390   -1.30905912    0.00000000   1      10  H
    3.38907661   -2.08110221    0.00000000   3      11  Si
    4.07965695   -0.49301449    0.00000000   2      12  N
    3.53944100    0.40004050    0.00000000   1      13  H
    5.12266823   -0.39503243    0.00000000   1      14  H
    4.49631634   -3.33776917    0.00000000   2      15  N
    3.72060613   -4.86407491    0.00000000   3      16  Si

outcell: Unit cell vectors (Ang):
       13.438530    0.000000    0.000000
        0.000000   17.285978    0.000000
        0.000000    0.000000    8.754136

outcell: Cell vector modules (Ang)   :   13.438530   17.285978    8.754136
outcell: Cell angles (23,13,12) (deg):     90.0000     90.0000     90.0000
outcell: Cell volume (Ang**3)        :   2033.5695
<dSpData1D:S at geom step 4
  <sparsity:sparsity for geom step 4
    nrows_g=168 nrows=10 sparsity=.0560 nnzs=1580, refcount: 8>
  <dData1D:(new from dSpData1D) n=1580, refcount: 1>
refcount: 1>
new_DM -- step:     5
Re-using DM from previous geometries...
Number of DMs in history: 1
 DM extrapolation coefficients: 
1   1.00000
New DM after history re-use:
<dSpData2D:SpM extrapolated using coords
  <sparsity:sparsity for geom step 4
    nrows_g=168 nrows=10 sparsity=.0560 nnzs=1580, refcount: 10>
  <dData2D:(temp array for extrapolation) n=1580 m=8, refcount: 1>
refcount: 1>
     spin moment: {S} , |S| = {    0.00001    0.00001   -0.00000 }     0.00001

InitMesh: MESH = 144 x 192 x 96 = 2654208
InitMesh: Mesh cutoff (required, used) =   300.000   317.339 Ry
New grid distribution [1]: sub = 2
New grid distribution [2]: sub = 2
New grid distribution [3]: sub = 2
Setting up quadratic distribution...

        iscf     Eharris(eV)        E_KS(eV)     FreeEng(eV)     dDmax    Ef(eV) dHmax(eV)
   scf:    1    -5463.049265    -5463.146410    -5463.146410  0.012814 -3.983498  0.125544
     spin moment: {S} , |S| = {   -0.00000   -0.00000   -0.00000 }     0.00000
   scf:    2    -5463.108263    -5463.135514    -5463.135514  0.007063 -3.952981  0.398315
     spin moment: {S} , |S| = {   -0.00000   -0.00000   -0.00000 }     0.00000
   scf:    3    -5463.150658    -5463.147830    -5463.147830  0.005335 -3.973719  0.015935
     spin moment: {S} , |S| = {   -0.00000   -0.00000   -0.00000 }     0.00000
   scf:    4    -5463.147850    -5463.147841    -5463.147841  0.000111 -3.972915  0.007371
     spin moment: {S} , |S| = {   -0.00000   -0.00000   -0.00000 }     0.00000
   scf:    5    -5463.147846    -5463.147844    -5463.147844  0.000063 -3.972851  0.002298
     spin moment: {S} , |S| = {   -0.00000   -0.00000   -0.00000 }     0.00000
   scf:    6    -5463.147844    -5463.147844    -5463.147844  0.000031 -3.972871  0.000707
     spin moment: {S} , |S| = {   -0.00000   -0.00000   -0.00000 }     0.00000
   scf:    7    -5463.147844    -5463.147844    -5463.147844  0.000017 -3.972829  0.000229
     spin moment: {S} , |S| = {   -0.00000   -0.00000   -0.00000 }     0.00000
   scf:    8    -5463.147844    -5463.147844    -5463.147844  0.000008 -3.972810  0.000057
     spin moment: {S} , |S| = {   -0.00000   -0.00000   -0.00000 }     0.00000
   scf:    9    -5463.147844    -5463.147844    -5463.147844  0.000002 -3.972812  0.000040
     spin moment: {S} , |S| = {   -0.00000   -0.00000   -0.00000 }     0.00000
   scf:   10    -5463.147844    -5463.147844    -5463.147844  0.000002 -3.972821  0.000015
     spin moment: {S} , |S| = {   -0.00000   -0.00000   -0.00000 }     0.00000
   scf:   11    -5463.147844    -5463.147844    -5463.147844  0.000001 -3.972825  0.000005
     spin moment: {S} , |S| = {   -0.00000   -0.00000   -0.00000 }     0.00000
   scf:   12    -5463.147844    -5463.147844    -5463.147844  0.000000 -3.972826  0.000003
     spin moment: {S} , |S| = {   -0.00000   -0.00000   -0.00000 }     0.00000
   scf:   13    -5463.147844    -5463.147844    -5463.147844  0.000000 -3.972826  0.000001
     spin moment: {S} , |S| = {   -0.00000   -0.00000   -0.00000 }     0.00000
   scf:   14    -5463.147844    -5463.147844    -5463.147844  0.000000 -3.972826  0.000001
     spin moment: {S} , |S| = {   -0.00000   -0.00000   -0.00000 }     0.00000

SCF Convergence by DM+H criterion
max |DM_out - DM_in|         :     0.0000000554
max |H_out - H_in|      (eV) :     0.0000007387
SCF cycle converged after 14 iterations

Using DM_out to compute the final energy and forces

siesta: E_KS(eV) =            -5463.1478
     spin moment: {S} , |S| = {   -0.00000   -0.00000   -0.00000 }     0.00000

siesta: Atomic forces (eV/Ang):
     1   -0.146905   -0.017496    0.000000
     2    0.030746   -0.024776    0.000000
     3   -0.002809   -0.004284   -0.000000
     4    0.020273    0.080461    0.000000
     5    0.155949    0.105946    0.000000
     6    0.031305   -0.038422    0.000000
     7    0.098463   -0.007005   -0.000000
     8    0.072354    0.103229    0.000000
     9    0.035290   -0.096406    0.000000
    10   -0.009422   -0.054066    0.000000
    11   -0.010545    0.000288   -0.000000
    12   -0.085888   -0.024910   -0.000000
    13   -0.002580   -0.086253    0.000000
    14    0.011971   -0.053369    0.000000
    15   -0.109426   -0.046812    0.000000
    16   -0.045927    0.019985   -0.000000
----------------------------------------
   Tot    0.042848   -0.143890    0.000000
----------------------------------------
   Max    0.155949
   Res    0.054537    sqrt( Sum f_i^2 / 3N )
----------------------------------------
   Max    0.155949    constrained

Stress tensor Voigt[x,y,z,yz,xz,xy] (kbar):        1.40        1.35       -0.00       -0.00       -0.00        0.36
(Free)E + p*V (eV/cell)    -5464.3102
Target enthalpy (eV/cell)    -5463.1478

                     ====================================
                        Begin Broyden opt. move =      5
                     ====================================

outcoor: Atomic coordinates (Ang):                          
    5.50260600   -6.72949134    0.00000000   1       1  H
    4.48616779   -6.49830335    0.00000000   2       2  N
    3.20630907   -7.73351035    0.00000000   3       3  Si
    3.70225506   -9.12403593    0.00000000   1       4  H
    1.61300499   -7.23897544    0.00000000   2       5  N
    1.60862386   -5.46691202    0.00000000   3       6  Si
    0.39646714   -3.59260048    0.00000000   3       7  Si
   -1.11507400   -3.18827089    0.00000000   4       8  O
    1.64399574   -2.19482359    0.00000000   2       9  N
    1.07719474   -1.31138666    0.00000000   1      10  H
    3.38831636   -2.08098472    0.00000000   3      11  Si
    4.07818268   -0.49391695    0.00000000   2      12  N
    3.53916591    0.39798997    0.00000000   1      13  H
    5.12255311   -0.39662097    0.00000000   1      14  H
    4.49273854   -3.33853433    0.00000000   2      15  N
    3.72024373   -4.86434952    0.00000000   3      16  Si

outcell: Unit cell vectors (Ang):
       13.438530    0.000000    0.000000
        0.000000   17.285978    0.000000
        0.000000    0.000000    8.754136

outcell: Cell vector modules (Ang)   :   13.438530   17.285978    8.754136
outcell: Cell angles (23,13,12) (deg):     90.0000     90.0000     90.0000
outcell: Cell volume (Ang**3)        :   2033.5695
<dSpData1D:S at geom step 5
  <sparsity:sparsity for geom step 5
    nrows_g=168 nrows=10 sparsity=.0560 nnzs=1580, refcount: 8>
  <dData1D:(new from dSpData1D) n=1580, refcount: 1>
refcount: 1>
new_DM -- step:     6
Re-using DM from previous geometries...
Number of DMs in history: 1
 DM extrapolation coefficients: 
1   1.00000
New DM after history re-use:
<dSpData2D:SpM extrapolated using coords
  <sparsity:sparsity for geom step 5
    nrows_g=168 nrows=10 sparsity=.0560 nnzs=1580, refcount: 10>
  <dData2D:(temp array for extrapolation) n=1580 m=8, refcount: 1>
refcount: 1>
     spin moment: {S} , |S| = {    0.00000    0.00000   -0.00000 }     0.00000

InitMesh: MESH = 144 x 192 x 96 = 2654208
InitMesh: Mesh cutoff (required, used) =   300.000   317.339 Ry
New grid distribution [1]: sub = 2
New grid distribution [2]: sub = 2
New grid distribution [3]: sub = 2
Setting up quadratic distribution...

        iscf     Eharris(eV)        E_KS(eV)     FreeEng(eV)     dDmax    Ef(eV) dHmax(eV)
[...]
    nrows_g=168 nrows=10 sparsity=.0560 nnzs=1580, refcount: 10>
  <dData2D:(temp array for extrapolation) n=1580 m=8, refcount: 1>
refcount: 1>
     spin moment: {S} , |S| = {   -0.00000   -0.00000   -0.00000 }     0.00000

InitMesh: MESH = 144 x 192 x 96 = 2654208
InitMesh: Mesh cutoff (required, used) =   300.000   317.339 Ry
New grid distribution [1]: sub = 2
New grid distribution [2]: sub = 2
New grid distribution [3]: sub = 2
Setting up quadratic distribution...

        iscf     Eharris(eV)        E_KS(eV)     FreeEng(eV)     dDmax    Ef(eV) dHmax(eV)
   scf:    1    -5463.161368    -5463.162307    -5463.162307  0.000208 -3.977918  0.009377
     spin moment: {S} , |S| = {   -0.00000   -0.00000   -0.00000 }     0.00000
   scf:    2    -5463.162208    -5463.162278    -5463.162278  0.000425 -3.977614  0.033283
     spin moment: {S} , |S| = {   -0.00000   -0.00000   -0.00000 }     0.00000
   scf:    3    -5463.162317    -5463.162310    -5463.162310  0.000330 -3.977896  0.000761
     spin moment: {S} , |S| = {   -0.00000   -0.00000   -0.00000 }     0.00000
   scf:    4    -5463.162310    -5463.162310    -5463.162310  0.000007 -3.977921  0.000312
     spin moment: {S} , |S| = {   -0.00000   -0.00000   -0.00000 }     0.00000
   scf:    5    -5463.162310    -5463.162310    -5463.162310  0.000005 -3.977933  0.000061
     spin moment: {S} , |S| = {   -0.00000   -0.00000   -0.00000 }     0.00000
   scf:    6    -5463.162310    -5463.162310    -5463.162310  0.000001 -3.977933  0.000034
     spin moment: {S} , |S| = {   -0.00000   -0.00000   -0.00000 }     0.00000
   scf:    7    -5463.162310    -5463.162310    -5463.162310  0.000001 -3.977933  0.000014
     spin moment: {S} , |S| = {   -0.00000   -0.00000   -0.00000 }     0.00000
   scf:    8    -5463.162310    -5463.162310    -5463.162310  0.000001 -3.977933  0.000004
     spin moment: {S} , |S| = {   -0.00000   -0.00000   -0.00000 }     0.00000
   scf:    9    -5463.162310    -5463.162310    -5463.162310  0.000000 -3.977933  0.000002
     spin moment: {S} , |S| = {   -0.00000   -0.00000   -0.00000 }     0.00000
   scf:   10    -5463.162310    -5463.162310    -5463.162310  0.000000 -3.977933  0.000001
     spin moment: {S} , |S| = {   -0.00000   -0.00000   -0.00000 }     0.00000
   scf:   11    -5463.162310    -5463.162310    -5463.162310  0.000000 -3.977933  0.000000
     spin moment: {S} , |S| = {   -0.00000   -0.00000   -0.00000 }     0.00000

SCF Convergence by DM+H criterion
max |DM_out - DM_in|         :     0.0000000667
max |H_out - H_in|      (eV) :     0.0000002527
SCF cycle converged after 11 iterations

Using DM_out to compute the final energy and forces

siesta: E_KS(eV) =            -5463.1623
     spin moment: {S} , |S| = {   -0.00000   -0.00000   -0.00000 }     0.00000

siesta: Atomic forces (eV/Ang):
     1    0.004862    0.005246    0.000000
     2   -0.001596   -0.001534    0.000000
     3   -0.000860   -0.000830   -0.000000
     4   -0.004652   -0.008254    0.000000
     5    0.000242   -0.000235    0.000000
     6   -0.080327   -0.080458    0.000000
     7   -0.004437   -0.001451   -0.000000
     8   -0.004071   -0.003701    0.000000
     9    0.001039   -0.004207    0.000000
    10    0.000283   -0.002495    0.000000
    11    0.001302   -0.004809   -0.000000
    12    0.004503   -0.005128   -0.000000
    13    0.000741   -0.000365    0.000000
    14    0.002848   -0.006595    0.000000
    15    0.005098   -0.001989    0.000000
    16    0.000939   -0.001207   -0.000000
----------------------------------------
   Tot   -0.074088   -0.118013    0.000000
----------------------------------------
   Max    0.080458
   Res    0.016650    sqrt( Sum f_i^2 / 3N )
----------------------------------------
   Max    0.008254    constrained

Stress tensor Voigt[x,y,z,yz,xz,xy] (kbar):        0.03        0.12       -0.00       -0.00       -0.00       -0.20
(Free)E + p*V (eV/cell)    -5463.2238
Target enthalpy (eV/cell)    -5463.1623

                     ====================================
                        Begin Broyden opt. move =    123
                     ====================================

outcoor: Atomic coordinates (Ang):                          
    5.49874224   -6.72865411    0.00000000   1       1  H
    4.48041143   -6.50306863    0.00000000   2       2  N
    3.20724764   -7.73958566    0.00000000   3       3  Si
    3.70269546   -9.12949162    0.00000000   1       4  H
    1.61891253   -7.23709232    0.00000000   2       5  N
    1.60862386   -5.46691202    0.00000000   3       6  Si
    0.40362467   -3.58946802    0.00000000   3       7  Si
   -1.08390248   -3.10414360    0.00000000   4       8  O
    1.65340797   -2.21109919    0.00000000   2       9  N
    1.07280012   -1.33795264    0.00000000   1      10  H
    3.38910405   -2.09582123    0.00000000   3      11  Si
    4.07418037   -0.51170476    0.00000000   2      12  N
    3.53091699    0.37699875    0.00000000   1      13  H
    5.11668676   -0.41353734    0.00000000   1      14  H
    4.48524171   -3.35486921    0.00000000   2      15  N
    3.71402445   -4.87400837    0.00000000   3      16  Si

outcell: Unit cell vectors (Ang):
       13.438530    0.000000    0.000000
        0.000000   17.285978    0.000000
        0.000000    0.000000    8.754136

outcell: Cell vector modules (Ang)   :   13.438530   17.285978    8.754136
outcell: Cell angles (23,13,12) (deg):     90.0000     90.0000     90.0000
outcell: Cell volume (Ang**3)        :   2033.5695
<dSpData1D:S at geom step 123
  <sparsity:sparsity for geom step 123
    nrows_g=168 nrows=10 sparsity=.0560 nnzs=1580, refcount: 8>
  <dData1D:(new from dSpData1D) n=1580, refcount: 1>
refcount: 1>
new_DM -- step:   124
Re-using DM from previous geometries...
Number of DMs in history: 1
 DM extrapolation coefficients: 
1   1.00000
New DM after history re-use:
<dSpData2D:SpM extrapolated using coords
  <sparsity:sparsity for geom step 123
    nrows_g=168 nrows=10 sparsity=.0560 nnzs=1580, refcount: 10>
  <dData2D:(temp array for extrapolation) n=1580 m=8, refcount: 1>
refcount: 1>
     spin moment: {S} , |S| = {   -0.00000   -0.00000   -0.00000 }     0.00000

InitMesh: MESH = 144 x 192 x 96 = 2654208
InitMesh: Mesh cutoff (required, used) =   300.000   317.339 Ry
New grid distribution [1]: sub = 2
New grid distribution [2]: sub = 2
New grid distribution [3]: sub = 2
Setting up quadratic distribution...

        iscf     Eharris(eV)        E_KS(eV)     FreeEng(eV)     dDmax    Ef(eV) dHmax(eV)
   scf:    1    -5463.162703    -5463.162321    -5463.162321  0.000108 -3.977539  0.003916
     spin moment: {S} , |S| = {   -0.00000   -0.00000   -0.00000 }     0.00000
   scf:    2    -5463.162299    -5463.162315    -5463.162315  0.000185 -3.978177  0.015063
     spin moment: {S} , |S| = {   -0.00000   -0.00000   -0.00000 }     0.00000
   scf:    3    -5463.162323    -5463.162322    -5463.162322  0.000146 -3.977731  0.000359
     spin moment: {S} , |S| = {   -0.00000   -0.00000   -0.00000 }     0.00000
   scf:    4    -5463.162322    -5463.162322    -5463.162322  0.000003 -3.977765  0.000135
     spin moment: {S} , |S| = {   -0.00000   -0.00000   -0.00000 }     0.00000
   scf:    5    -5463.162322    -5463.162322    -5463.162322  0.000002 -3.977776  0.000034
     spin moment: {S} , |S| = {   -0.00000   -0.00000   -0.00000 }     0.00000
   scf:    6    -5463.162322    -5463.162322    -5463.162322  0.000001 -3.977780  0.000009
     spin moment: {S} , |S| = {   -0.00000   -0.00000   -0.00000 }     0.00000
   scf:    7    -5463.162322    -5463.162322    -5463.162322  0.000000 -3.977782  0.000003
     spin moment: {S} , |S| = {   -0.00000   -0.00000   -0.00000 }     0.00000
   scf:    8    -5463.162322    -5463.162322    -5463.162322  0.000000 -3.977783  0.000001
     spin moment: {S} , |S| = {   -0.00000   -0.00000   -0.00000 }     0.00000
   scf:    9    -5463.162322    -5463.162322    -5463.162322  0.000000 -3.977783  0.000001
     spin moment: {S} , |S| = {   -0.00000   -0.00000   -0.00000 }     0.00000

SCF Convergence by DM+H criterion
max |DM_out - DM_in|         :     0.0000000851
max |H_out - H_in|      (eV) :     0.0000005795
SCF cycle converged after 9 iterations

Using DM_out to compute the final energy and forces

siesta: E_KS(eV) =            -5463.1623
     spin moment: {S} , |S| = {   -0.00000   -0.00000   -0.00000 }     0.00000

siesta: Atomic forces (eV/Ang):
     1   -0.004103   -0.004740    0.000000
     2    0.000067   -0.001857    0.000000
     3   -0.000294   -0.001991   -0.000000
     4    0.002276    0.003270    0.000000
     5   -0.000058    0.000193    0.000000
     6   -0.080823   -0.080658    0.000000
     7   -0.004162   -0.002313   -0.000000
     8   -0.001495   -0.002622    0.000000
     9    0.000250   -0.003923    0.000000
    10    0.000819   -0.001934    0.000000
    11    0.001165   -0.003565   -0.000000
    12    0.000898   -0.006141   -0.000000
    13   -0.005463    0.002990    0.000000
    14    0.011725   -0.008807    0.000000
    15    0.004130   -0.002178    0.000000
    16    0.000834   -0.001373   -0.000000
----------------------------------------
   Tot   -0.074236   -0.115649    0.000000
----------------------------------------
   Max    0.080823
   Res    0.016760    sqrt( Sum f_i^2 / 3N )
----------------------------------------
   Max    0.011725    constrained

Stress tensor Voigt[x,y,z,yz,xz,xy] (kbar):        0.04        0.14       -0.00       -0.00       -0.00       -0.18
(Free)E + p*V (eV/cell)    -5463.2350
Target enthalpy (eV/cell)    -5463.1623

                     ====================================
                        Begin Broyden opt. move =    124
                     ====================================

outcoor: Atomic coordinates (Ang):                          
    5.49869820   -6.72869379    0.00000000   1       1  H
    4.48041700   -6.50312059    0.00000000   2       2  N
    3.20724997   -7.73965486    0.00000000   3       3  Si
    3.70275708   -9.12952459    0.00000000   1       4  H
    1.61893474   -7.23710390    0.00000000   2       5  N
    1.60862386   -5.46691202    0.00000000   3       6  Si
    0.40340399   -3.58957842    0.00000000   3       7  Si
   -1.08421453   -3.10453964    0.00000000   4       8  O
    1.65332540   -2.21127003    0.00000000   2       9  N
    1.07281082   -1.33805215    0.00000000   1      10  H
    3.38907800   -2.09604318    0.00000000   3      11  Si
    4.07422038   -0.51194069    0.00000000   2      12  N
    3.53094717    0.37685883    0.00000000   1      13  H
    5.11673355   -0.41387678    0.00000000   1      14  H
    4.48540435   -3.35495346    0.00000000   2      15  N
    3.71405474   -4.87406224    0.00000000   3      16  Si

outcell: Unit cell vectors (Ang):
       13.438530    0.000000    0.000000
        0.000000   17.285978    0.000000
        0.000000    0.000000    8.754136

outcell: Cell vector modules (Ang)   :   13.438530   17.285978    8.754136
outcell: Cell angles (23,13,12) (deg):     90.0000     90.0000     90.0000
outcell: Cell volume (Ang**3)        :   2033.5695
<dSpData1D:S at geom step 124
  <sparsity:sparsity for geom step 124
    nrows_g=168 nrows=10 sparsity=.0560 nnzs=1580, refcount: 8>
  <dData1D:(new from dSpData1D) n=1580, refcount: 1>
refcount: 1>
new_DM -- step:   125
Re-using DM from previous geometries...
Number of DMs in history: 1
 DM extrapolation coefficients: 
1   1.00000
New DM after history re-use:
<dSpData2D:SpM extrapolated using coords
  <sparsity:sparsity for geom step 124
    nrows_g=168 nrows=10 sparsity=.0560 nnzs=1580, refcount: 10>
  <dData2D:(temp array for extrapolation) n=1580 m=8, refcount: 1>
refcount: 1>
     spin moment: {S} , |S| = {   -0.00000   -0.00000   -0.00000 }     0.00000

InitMesh: MESH = 144 x 192 x 96 = 2654208
InitMesh: Mesh cutoff (required, used) =   300.000   317.339 Ry
New grid distribution [1]: sub = 2
New grid distribution [2]: sub = 2
New grid distribution [3]: sub = 2
Setting up quadratic distribution...

        iscf     Eharris(eV)        E_KS(eV)     FreeEng(eV)     dDmax    Ef(eV) dHmax(eV)
   scf:    1    -5463.162902    -5463.162330    -5463.162330  0.000083 -3.978031  0.003462
     spin moment: {S} , |S| = {   -0.00000   -0.00000   -0.00000 }     0.00000
   scf:    2    -5463.162316    -5463.162326    -5463.162326  0.000151 -3.977710  0.012709
     spin moment: {S} , |S| = {   -0.00000   -0.00000   -0.00000 }     0.00000
   scf:    3    -5463.162331    -5463.162330    -5463.162330  0.000120 -3.977900  0.000415
     spin moment: {S} , |S| = {   -0.00000   -0.00000   -0.00000 }     0.00000
   scf:    4    -5463.162330    -5463.162330    -5463.162330  0.000003 -3.977863  0.000136
     spin moment: {S} , |S| = {   -0.00000   -0.00000   -0.00000 }     0.00000
   scf:    5    -5463.162330    -5463.162330    -5463.162330  0.000001 -3.977853  0.000043
     spin moment: {S} , |S| = {   -0.00000   -0.00000   -0.00000 }     0.00000
   scf:    6    -5463.162330    -5463.162330    -5463.162330  0.000001 -3.977849  0.000012
     spin moment: {S} , |S| = {   -0.00000   -0.00000   -0.00000 }     0.00000
   scf:    7    -5463.162330    -5463.162330    -5463.162330  0.000000 -3.977848  0.000005
     spin moment: {S} , |S| = {   -0.00000   -0.00000   -0.00000 }     0.00000
   scf:    8    -5463.162330    -5463.162330    -5463.162330  0.000000 -3.977847  0.000001
     spin moment: {S} , |S| = {   -0.00000   -0.00000   -0.00000 }     0.00000
   scf:    9    -5463.162330    -5463.162330    -5463.162330  0.000000 -3.977847  0.000001
     spin moment: {S} , |S| = {   -0.00000   -0.00000   -0.00000 }     0.00000

SCF Convergence by DM+H criterion
max |DM_out - DM_in|         :     0.0000000635
max |H_out - H_in|      (eV) :     0.0000005068
SCF cycle converged after 9 iterations

Using DM_out to compute the final energy and forces

siesta: E_KS(eV) =            -5463.1623
     spin moment: {S} , |S| = {   -0.00000   -0.00000   -0.00000 }     0.00000

siesta: Atomic forces (eV/Ang):
     1    0.001746   -0.000565    0.000000
     2   -0.002456   -0.001371    0.000000
     3   -0.000227   -0.001167   -0.000000
     4   -0.001255   -0.001718    0.000000
     5   -0.000062    0.000284    0.000000
     6   -0.080993   -0.081051    0.000000
     7   -0.002956   -0.002982   -0.000000
     8   -0.000554   -0.001135    0.000000
     9    0.000172   -0.003439    0.000000
    10    0.000553   -0.002428    0.000000
    11    0.000828   -0.002791   -0.000000
    12   -0.002016   -0.002976   -0.000000
    13    0.007571   -0.004890    0.000000
    14    0.001465   -0.003052    0.000000
    15    0.003321   -0.002575    0.000000
    16    0.001146   -0.001564   -0.000000
----------------------------------------
   Tot   -0.073718   -0.113422    0.000000
----------------------------------------
   Max    0.081051
   Res    0.016658    sqrt( Sum f_i^2 / 3N )
----------------------------------------
   Max    0.007571    constrained

Stress tensor Voigt[x,y,z,yz,xz,xy] (kbar):        0.05        0.13       -0.00       -0.00       -0.00       -0.20
(Free)E + p*V (eV/cell)    -5463.2377
Target enthalpy (eV/cell)    -5463.1623

outcoor: Relaxed atomic coordinates (Ang):                  
    5.49869820   -6.72869379    0.00000000   1       1  H
    4.48041700   -6.50312059    0.00000000   2       2  N
    3.20724997   -7.73965486    0.00000000   3       3  Si
    3.70275708   -9.12952459    0.00000000   1       4  H
    1.61893474   -7.23710390    0.00000000   2       5  N
    1.60862386   -5.46691202    0.00000000   3       6  Si
    0.40340399   -3.58957842    0.00000000   3       7  Si
   -1.08421453   -3.10453964    0.00000000   4       8  O
    1.65332540   -2.21127003    0.00000000   2       9  N
    1.07281082   -1.33805215    0.00000000   1      10  H
    3.38907800   -2.09604318    0.00000000   3      11  Si
    4.07422038   -0.51194069    0.00000000   2      12  N
    3.53094717    0.37685883    0.00000000   1      13  H
    5.11673355   -0.41387678    0.00000000   1      14  H
    4.48540435   -3.35495346    0.00000000   2      15  N
    3.71405474   -4.87406224    0.00000000   3      16  Si

siesta: Program's energy decomposition (eV):
siesta: Ebs     =      -661.956429
siesta: Eions   =      5529.398135
siesta: Ena     =       946.380975
siesta: Ekin    =      1624.127077
siesta: Enl(+so)=     -1118.181348
siesta: Eso(nil)=         0.000000
siesta: Edftu   =         0.000000
siesta: DEna    =        10.505193
siesta: DUscf   =         7.194965
siesta: DUext   =         0.000000
siesta: Ex      =     -1286.474695
siesta: Ec      =      -117.316363
siesta: Exc     =     -1403.791058
siesta: EbV     =         0.000000
siesta: eta*DQ  =         0.000000
siesta: Emadel  =         0.000000
siesta: Emeta   =         0.000000
siesta: Emolmec =         0.000000
siesta: Ekinion =         0.000000
siesta: Eharris =     -5463.162330
siesta: Etot    =     -5463.162330
siesta: FreeEng =     -5463.162330

siesta: Final energy (eV):
siesta:  Band Struct. =    -661.956429
siesta:       Kinetic =    1624.127077
siesta:       Hartree =    3897.547252
siesta:         Edftu =       0.000000
siesta:      Eso(nil) =       0.000000
siesta:    Ext. field =       0.000000
siesta:         Exch. =   -1286.474695
siesta:         Corr. =    -117.316363
siesta:     Bulk bias =       0.000000
siesta:   Exch.-corr. =   -1403.791058
siesta:  Ion-electron =   -9213.811535
siesta:       Ion-ion =    -367.234067
siesta:       Ekinion =       0.000000
siesta: D3 dispersion =       0.000000
siesta:         Total =   -5463.162330
siesta:         Fermi =      -3.977847

siesta: Atomic forces (eV/Ang):
siesta:      1    0.001746   -0.000565    0.000000
siesta:      2   -0.002456   -0.001371    0.000000
siesta:      3   -0.000227   -0.001167   -0.000000
siesta:      4   -0.001255   -0.001718    0.000000
siesta:      5   -0.000062    0.000284    0.000000
siesta:      6   -0.080993   -0.081051    0.000000
siesta:      7   -0.002956   -0.002982   -0.000000
siesta:      8   -0.000554   -0.001135    0.000000
siesta:      9    0.000172   -0.003439    0.000000
siesta:     10    0.000553   -0.002428    0.000000
siesta:     11    0.000828   -0.002791   -0.000000
siesta:     12   -0.002016   -0.002976   -0.000000
siesta:     13    0.007571   -0.004890    0.000000
siesta:     14    0.001465   -0.003052    0.000000
siesta:     15    0.003321   -0.002575    0.000000
siesta:     16    0.001146   -0.001564   -0.000000
siesta: ----------------------------------------
siesta:    Tot   -0.073718   -0.113422    0.000000

siesta: Stress tensor (static) (eV/Ang**3):
siesta:     0.000030   -0.000123   -0.000000
siesta:    -0.000123    0.000084   -0.000000
siesta:    -0.000000   -0.000000   -0.000003

siesta: Cell volume =       2033.569457 Ang**3

siesta: Pressure (static):
siesta:                Solid            Molecule  Units
siesta:          -0.00000040         -0.00000076  Ry/Bohr**3
siesta:          -0.00003707         -0.00006964  eV/Ang**3
siesta:          -0.05940043         -0.11158210  kBar
(Free)E+ p_basis*V_orbitals  =       -5455.165118
(Free)Eharris+ p_basis*V_orbitals  =       -5455.165118
     spin moment: {S} , |S| = {   -0.00000   -0.00000   -0.00000 }     0.00000

siesta: Electric dipole (a.u.)  =    3.147039    0.854428    0.000000
siesta: Electric dipole (Debye) =    7.998976    2.171740    0.000000

cite: Please see "Guanine.bib" for an exhaustive BiBTeX file.
cite: Please clearly indicate Siesta version in published work: 5.1-MaX-41-g6ad11e234
cite: This calculation has made use of the following articles
cite: which are encouraged to be cited in a published work.
        Primary SIESTA paper
          DOI: www.doi.org/10.1088/0953-8984/14/11/302
        Spin-orbit coupling (off-site approximation)
          DOI: www.doi.org/10.1088/0953-8984/24/8/086005
        ELPA library
          DOI: www.doi.org/10.1088/0953-8984/26/21/213201


>> End of run:  11-OCT-2024  22:54:50
Job completed
