<?xml version="1.0" encoding="UTF-8" ?>
<psml version="1.1" energy_unit="hartree" length_unit="bohr"
 uuid="c22083e0-3e3e-11ef-7253-eaffe77f5605"
 xmlns="http://esl.cecam.org/PSML/ns/1.1">
<provenance creator="ATM4.2.7" date="10-JUL-24">
<annotation action="semilocal-pseudopotential-generation" />
<input-file name="INP">
<![CDATA[   pg   Oxygen
        tm2    5.000
   N    pbr 00000000
       0.0
    1    3
    2    0     1.000     1.000
    2    1     3.000     0.000
    3    2     0.000     0.000
   1.01641   1.36712   3.29800   0.00000   1.00000   0.00000
]]>
</input-file>
</provenance>
<pseudo-atom-spec atomic-label="N" atomic-number="7" z-pseudo="5"
 flavor="Troullier-Martins" relativity="dirac" spin-dft="no"
 core-corrections="no">
<annotation pseudo-energy="-9.63438488013" />
<exchange-correlation>
<annotation atom-xc-code="pb" siesta-xc-type="GGA" siesta-xc-authors="PBE" />
<libxc-info number-of-functionals="2">
<functional name="XC_GGA_X_PBE" type="XC_EXCHANGE" id="101" />
<functional name="XC_GGA_C_PBE" type="XC_CORRELATION" id="130" />
</libxc-info>
</exchange-correlation>
<valence-configuration total-valence-charge="5">
<shell n="2" l="s" occupation="2" />
<shell n="2" l="p" occupation="3" />
</valence-configuration>
</pseudo-atom-spec>
<grid npts="376">
<annotation type="sampled-log-atom"
 recipe="r(i:1..N) = a*(exp(b*(i-1))-1); resampled"
 recipe-cont="a: scale; b: step" scale="0.354107453809E-03"
 step="0.125000000000E-01" delta="0.500000000000E-02" rmax="20" />
<grid-data>
  0.000000000000E+00  5.048302436094E-03  1.012459783301E-02  1.527828389237E-02
  2.048528638279E-02  2.574353883944E-02  3.112566294380E-02  3.622016774735E-02
  4.161127830670E-02  4.719890450306E-02  5.220009842783E-02  5.772727250913E-02
  6.303836541492E-02  6.883511668267E-02  7.422386065491E-02  8.003230237576E-02
  8.521678038206E-02  9.073562849216E-02  9.661041172496E-02  1.028640859236E-01
  1.081561958640E-01  1.137196380832E-01  1.195683240846E-01  1.257168786297E-01
  1.321806763074E-01  1.372450950777E-01  1.425030354033E-01  1.479618921293E-01
  1.536293426726E-01  1.595133578194E-01  1.656222129359E-01  1.719644996063E-01
  1.785491377165E-01  1.853853879988E-01  1.924828650570E-01  1.998515508879E-01
  2.049197812585E-01  2.101163144918E-01  2.154443985901E-01  2.209073637796E-01
  2.265086245913E-01  2.322516819955E-01  2.381401255901E-01  2.441776358440E-01
  2.503679863977E-01  2.567150464216E-01  2.632227830351E-01  2.698952637853E-01
  2.767366591899E-01  2.837512453437E-01  2.909434065914E-01  2.983176382679E-01
  3.058785495081E-01  3.136308661276E-01  3.215794335766E-01  3.297292199687E-01
  3.380853191855E-01  3.466529540611E-01  3.554374796462E-01  3.644443865552E-01
  3.736793043981E-01  3.831480052993E-01  3.928564075051E-01  4.028105790827E-01
  4.078817665552E-01  4.130167417136E-01  4.182163069081E-01  4.234812745815E-01
  4.288124673957E-01  4.342107183603E-01  4.396768709631E-01  4.452117793014E-01
  4.508163082162E-01  4.564913334262E-01  4.622377416659E-01  4.680564308231E-01
  4.739483100800E-01  4.799143000545E-01  4.859553329449E-01  4.920723526747E-01
  4.982663150407E-01  5.045381878623E-01  5.108889511321E-01  5.173195971700E-01
  5.238311307775E-01  5.304245693949E-01  5.371009432605E-01  5.438612955711E-01
  5.507066826458E-01  5.576381740900E-01  5.646568529634E-01  5.717638159490E-01
  5.789601735240E-01  5.862470501341E-01  5.936255843685E-01  6.010969291382E-01
  6.086622518560E-01  6.163227346191E-01  6.240795743933E-01  6.319339832008E-01
  6.398871883088E-01  6.479404324218E-01  6.560949738757E-01  6.643520868341E-01
  6.727130614877E-01  6.811792042558E-01  6.897518379905E-01  6.984323021832E-01
  7.072219531741E-01  7.161221643640E-01  7.251343264291E-01  7.342598475379E-01
  7.435001535719E-01  7.528566883475E-01  7.623309138424E-01  7.719243104235E-01
  7.816383770786E-01  7.914746316505E-01  8.014346110738E-01  8.115198716156E-01
  8.217319891184E-01  8.320725592464E-01  8.425431977346E-01  8.531455406417E-01
  8.638812446052E-01  8.747519871008E-01  8.857594667040E-01  8.969054033561E-01
  9.081915386322E-01  9.196196360139E-01  9.311914811648E-01  9.429088822091E-01
  9.547736700147E-01  9.667876984787E-01  9.789528448175E-01  9.912710098601E-01
  1.003744118345E+00  1.016374119220E+00  1.029162985949E+00  1.042112716819E+00
  1.055225335251E+00  1.068502890118E+00  1.081947456066E+00  1.095561133835E+00
  1.109346050590E+00  1.123304360253E+00  1.137438243837E+00  1.151749909791E+00
  1.166241594342E+00  1.180915561844E+00  1.195774105136E+00  1.210819545894E+00
  1.226054235000E+00  1.241480552905E+00  1.257100910002E+00  1.272917747003E+00
  1.288933535322E+00  1.305150777459E+00  1.321572007390E+00  1.338199790966E+00
  1.355036726312E+00  1.372085444233E+00  1.389348608626E+00  1.406828916896E+00
  1.424529100377E+00  1.442451924758E+00  1.460600190516E+00  1.478976733356E+00
  1.497584424650E+00  1.516426171887E+00  1.535504919129E+00  1.554823647468E+00
  1.574385375495E+00  1.594193159770E+00  1.614250095300E+00  1.634559316022E+00
  1.655123995292E+00  1.675947346384E+00  1.697032622989E+00  1.718383119724E+00
  1.740002172647E+00  1.761893159779E+00  1.784059501633E+00  1.806504661743E+00
  1.829232147212E+00  1.852245509256E+00  1.875548343759E+00  1.899144291837E+00
  1.923037040404E+00  1.947230322751E+00  1.971727919127E+00  1.996533657333E+00
  2.021651413314E+00  2.047085111772E+00  2.072838726773E+00  2.098916282373E+00
  2.125321853242E+00  2.152059565305E+00  2.179133596383E+00  2.206548176849E+00
  2.234307590287E+00  2.262416174162E+00  2.290878320497E+00  2.319698476560E+00
  2.348881145560E+00  2.378430887348E+00  2.408352319130E+00  2.438650116193E+00
  2.469329012627E+00  2.500393802074E+00  2.531849338469E+00  2.563700536805E+00
  2.595952373895E+00  2.628609889155E+00  2.661678185389E+00  2.695162429584E+00
  2.729067853722E+00  2.763399755595E+00  2.798163499631E+00  2.833364517738E+00
  2.869008310144E+00  2.905100446267E+00  2.941646565574E+00  2.978652378472E+00
  3.016123667195E+00  3.054066286707E+00  3.092486165619E+00  3.131389307117E+00
  3.170781789895E+00  3.210669769109E+00  3.251059477336E+00  3.291957225551E+00
  3.333369404109E+00  3.375302483750E+00  3.417763016600E+00  3.460757637205E+00
  3.504293063562E+00  3.548376098169E+00  3.593013629092E+00  3.638212631033E+00
  3.683980166431E+00  3.730323386554E+00  3.777249532627E+00  3.824765936953E+00
  3.872880024069E+00  3.921599311898E+00  3.970931412928E+00  4.020884035400E+00
  4.071464984513E+00  4.122682163643E+00  4.174543575580E+00  4.227057323773E+00
  4.280231613603E+00  4.334074753661E+00  4.388595157047E+00  4.443801342684E+00
  4.499701936653E+00  4.556305673534E+00  4.613621397776E+00  4.671658065079E+00
  4.730424743788E+00  4.789930616318E+00  4.850184980582E+00  4.911197251446E+00
  4.972976962204E+00  5.035533766059E+00  5.098877437640E+00  5.163017874524E+00
  5.227965098786E+00  5.293729258561E+00  5.360320629632E+00  5.427749617038E+00
  5.496026756694E+00  5.565162717042E+00  5.635168300718E+00  5.706054446235E+00
  5.777832229699E+00  5.850512866533E+00  5.924107713236E+00  5.998628269152E+00
  6.074086178269E+00  6.150493231040E+00  6.227861366221E+00  6.306202672741E+00
  6.385529391589E+00  6.465853917726E+00  6.547188802022E+00  6.629546753219E+00
  6.712940639915E+00  6.797383492572E+00  6.882888505560E+00  6.969469039211E+00
  7.057138621908E+00  7.145910952202E+00  7.235799900952E+00  7.326819513487E+00
  7.418984011808E+00  7.512307796805E+00  7.606805450508E+00  7.702491738370E+00
  7.799381611567E+00  7.897490209338E+00  7.996832861352E+00  8.097425090101E+00
  8.199282613324E+00  8.302421346467E+00  8.406857405167E+00  8.512607107771E+00
  8.619686977884E+00  8.728113746954E+00  8.837904356884E+00  8.949075962682E+00
  9.061645935135E+00  9.175631863532E+00  9.291051558406E+00  9.407923054318E+00
  9.526264612678E+00  9.646094724596E+00  9.767432113769E+00  9.890295739412E+00
  1.001470479922E+01  1.014067873235E+01  1.026823722250E+01  1.039740020093E+01
  1.052818784963E+01  1.066062060443E+01  1.079471915822E+01  1.093050446417E+01
  1.106799773901E+01  1.120722046635E+01  1.134819440001E+01  1.149094156747E+01
  1.163548427326E+01  1.178184510246E+01  1.193004692427E+01  1.208011289550E+01
  1.223206646429E+01  1.238593137368E+01  1.254173166537E+01  1.269949168348E+01
  1.285923607834E+01  1.302098981032E+01  1.318477815378E+01  1.335062670099E+01
  1.351856136611E+01  1.368860838927E+01  1.386079434068E+01  1.403514612473E+01
  1.421169098425E+01  1.439045650473E+01  1.457147061865E+01  1.475476160982E+01
  1.494035811785E+01  1.512828914256E+01  1.531858404855E+01  1.551127256980E+01
  1.570638481428E+01  1.590395126867E+01  1.610400280313E+01  1.630657067612E+01
  1.651168653929E+01  1.671938244240E+01  1.692969083836E+01  1.714264458830E+01
  1.735827696665E+01  1.757662166643E+01  1.779771280443E+01  1.802158492660E+01
  1.824827301341E+01  1.847781248533E+01  1.871023920838E+01  1.894558949970E+01
  1.918390013325E+01  1.942520834556E+01  1.966955184153E+01  1.991696880031E+01
</grid-data>
</grid>
<valence-charge total-charge="5" is-unscreening-charge="yes"
 rescaled-to-z-pseudo="no">
<radfunc>
<data>
  1.222096425445E+00  1.223159257721E+00  1.226370320553E+00  1.231824743720E+00
  1.239575446832E+00  1.249679068808E+00  1.262378930994E+00  1.276585469369E+00
  1.293917902527E+00  1.314356692618E+00  1.334767097823E+00  1.359625931451E+00
  1.385764019298E+00  1.416777059710E+00  1.447899833407E+00  1.483880193976E+00
  1.518091678898E+00  1.556641945245E+00  1.600046076143E+00  1.648870356365E+00
  1.692246839768E+00  1.739830076176E+00  1.791984797615E+00  1.849097665570E+00
  1.911576231330E+00  1.962212405445E+00  2.016292641941E+00  2.074007476489E+00
  2.135550662393E+00  2.201117782339E+00  2.270904545995E+00  2.345104729736E+00
  2.423907711486E+00  2.507495550792E+00  2.596039562111E+00  2.689696328247E+00
  2.755043320106E+00  2.822758984907E+00  2.892872540442E+00  2.965406755847E+00
  3.040377051037E+00  3.117790528460E+00  3.197644936561E+00  3.279927565184E+00
  3.364614074176E+00  3.451667257675E+00  3.541035747952E+00  3.632652664353E+00
  3.726434214754E+00  3.822278259041E+00  3.920062846514E+00  4.019644741691E+00
  4.120857955791E+00  4.223512304197E+00  4.327392013311E+00  4.432254403437E+00
  4.537828677521E+00  4.643814848698E+00  4.749882842398E+00  4.855671811260E+00
  4.960789702983E+00  5.064813122378E+00  5.167287529151E+00  5.267727812019E+00
  5.317025434746E+00  5.365619277659E+00  5.413440617873E+00  5.460419089537E+00
  5.506482755466E+00  5.551558186824E+00  5.595570550979E+00  5.638443707619E+00
  5.680100313192E+00  5.720461933705E+00  5.759449165879E+00  5.796981766650E+00
  5.832978790970E+00  5.867358737846E+00  5.900039704562E+00  5.930939549008E+00
  5.959976060052E+00  5.987067135911E+00  6.012130970508E+00  6.035086247826E+00
  6.055852344343E+00  6.074349539680E+00  6.090499235675E+00  6.104224184201E+00
  6.115448724104E+00  6.124099027788E+00  6.130103358053E+00  6.133392335888E+00
  6.133899220052E+00  6.131560199309E+00  6.126314698282E+00  6.118105697866E+00
  6.106880071148E+00  6.092588935648E+00  6.075188022575E+00  6.054638063501E+00
  6.030905194514E+00  6.003961377444E+00  5.973784837152E+00  5.940360513146E+00
  5.903680522920E+00  5.863744633398E+00  5.820560735756E+00  5.774145317613E+00
  5.724523925265E+00  5.671731607225E+00  5.615813328911E+00  5.556824346959E+00
  5.494830530331E+00  5.429908614282E+00  5.362146372380E+00  5.291642691223E+00
  5.218507532363E+00  5.142861766302E+00  5.064836864344E+00  4.984574435647E+00
  4.902225599035E+00  4.817950182110E+00  4.731915743840E+00  4.644296421270E+00
  4.555271606063E+00  4.465024462435E+00  4.373740304445E+00  4.281604857679E+00
  4.188802437967E+00  4.095514088016E+00  4.001915721648E+00  3.908176334879E+00
  3.814456353417E+00  3.720906197515E+00  3.627665157596E+00  3.534860687943E+00
  3.442608241060E+00  3.351011782227E+00  3.260165078314E+00  3.170153369415E+00
  3.081054192301E+00  2.992937263088E+00  2.905864966144E+00  2.819892635309E+00
  2.735068951872E+00  2.651436418206E+00  2.569031888747E+00  2.487887161304E+00
  2.408029619376E+00  2.329482916139E+00  2.252267687568E+00  2.176402278484E+00
  2.101903461105E+00  2.028787120788E+00  1.957068878237E+00  1.886764611463E+00
  1.817890836366E+00  1.750464897220E+00  1.684504888619E+00  1.620029260842E+00
  1.557056094220E+00  1.495601898759E+00  1.435680351367E+00  1.377301830754E+00
  1.320473737014E+00  1.265200430957E+00  1.211483373143E+00  1.159321236833E+00
  1.108710024725E+00  1.059643183285E+00  1.012111726406E+00  9.661043570330E-01
  9.216075923393E-01  8.786058894011E-01  8.370817716835E-01  7.970159556318E-01
  7.583874769177E-01  7.211738159685E-01  6.853510222842E-01  6.508938371934E-01
  6.177758146792E-01  5.859694399408E-01  5.554462453594E-01  5.261769236339E-01
  4.981314377830E-01  4.712791278096E-01  4.455888138207E-01  4.210288954259E-01
  3.975674472641E-01  3.751723105313E-01  3.538111804057E-01  3.334516892898E-01
  3.140614858094E-01  2.956083095312E-01  2.780600613787E-01  2.613848697435E-01
  2.455511523081E-01  2.305276736101E-01  2.162835983914E-01  2.027885407912E-01
  1.900126094513E-01  1.779264486151E-01  1.665012753088E-01  1.557089127055E-01
  1.455218197767E-01  1.359131173455E-01  1.268566106619E-01  1.183268086223E-01
  1.102989397655E-01  1.027489651767E-01  9.565358843654E-02  8.899026275633E-02
  8.273719543903E-02  7.687334981208E-02  7.137844477625E-02  6.623295211719E-02
  6.141809172605E-02  5.691582487619E-02  5.270884570180E-02  4.878057102385E-02
  4.511512866683E-02  4.169734440808E-02  3.851272769887E-02  3.554745629332E-02
  3.278835991798E-02  3.022290311079E-02  2.783916735387E-02  2.562583261969E-02
  2.357215844507E-02  2.166796464205E-02  1.990361174873E-02  1.826998131719E-02
  1.675845612956E-02  1.536090042682E-02  1.406964022838E-02  1.287744381448E-02
  1.177750243643E-02  1.076341131385E-02  9.829150971546E-03  8.969068962718E-03
  8.177862019084E-03  7.450558663096E-03  6.782502311728E-03  6.169334896306E-03
  5.606981017876E-03  5.091632653080E-03  4.619734421208E-03  4.187969419156E-03
  3.793245627388E-03  3.432682886713E-03  3.103600442670E-03  2.803505051693E-03
  2.530079640809E-03  2.281172510623E-03  2.054787069505E-03  1.849072085439E-03
  1.662312440717E-03  1.492920373675E-03  1.339427190873E-03  1.200475432585E-03
  1.074811474034E-03  9.612785446484E-04  8.588101475301E-04  7.664238614144E-04
  6.832155075900E-04  6.083536645491E-04  5.410745135065E-04  4.806769983736E-04
  4.265182842671E-04  3.780094991670E-04  3.346117439018E-04  2.958323562183E-04
  2.612214152810E-04  2.303684735357E-04  2.028995034538E-04  1.784740472467E-04
  1.567825581959E-04  1.375439227856E-04  1.205031533409E-04  1.054292413767E-04
  9.211316233480E-05  8.036602284551E-05  7.001734207807E-05  6.091345916054E-05
  5.291605903890E-05  4.590080951937E-05  3.975610259287E-05  3.438189347959E-05
  2.968863115476E-05  2.559627442619E-05  2.203338793044E-05  1.893631269837E-05
  1.624840621390E-05  1.391934715251E-05  1.190450023842E-05  1.016433690376E-05
  8.663907667298E-06  7.372362377947E-06  6.262514686354E-06  5.310447319509E-06
  4.495154936640E-06  3.798221540864E-06  3.203529609929E-06  2.696998290859E-06
  2.266348177687E-06  1.900890358532E-06  1.591337578204E-06  1.329635515265E-06
  1.108812318105E-06  9.228446831077E-07  7.665388894616E-07  6.354253297192E-07
  5.256651928215E-07  4.339680672139E-07  3.575193359147E-07  2.939163331642E-07
  2.411123237267E-07  1.973674512306E-07  1.612058813117E-07  1.313784389896E-07
  1.068301078843E-07  8.667182179995E-08  7.015603712342E-08  5.665562764605E-08
  4.564569207752E-08  3.668790893954E-08  2.941711395567E-08  2.352981174929E-08
  1.877436687305E-08  1.494264916596E-08  1.186293540564E-08  9.393893424341E-09
  7.419496509522E-09  5.844735224532E-09  4.592010964512E-09  3.598110797679E-09
  2.811676612775E-09  2.191093468349E-09  1.702732476416E-09  1.319492698161E-09
  1.019594518393E-09  7.855839230630E-10  6.035131448863E-10  4.622683705355E-10
  3.530197139964E-10  2.687725407547E-10  2.040025541250E-10  1.543598981079E-10
  1.164299530933E-10  8.754055727555E-11  6.560712693552E-11  4.900861772807E-11
  3.648849986736E-11  2.707596661956E-11  2.002342604905E-11  1.475710939610E-11
  1.083813803879E-11  7.931946644905E-12  5.784385498949E-12  4.203076608306E-12
  3.042916711391E-12  2.194852344022E-12  1.577221132805E-12  1.129096853714E-12
  8.051933454237E-13  5.719766560935E-13  4.047101466896E-13  2.852172499411E-13
  2.001941416016E-13  1.399421433519E-13  9.741922728757E-14  6.753314602509E-14
  4.661678081975E-14  3.204034170250E-14  2.192592041391E-14  1.493827116996E-14
</data>
</radfunc>
</valence-charge>
<semilocal-potentials set="scalar_relativistic">
<slps n="2" l="s" rc="1.01637411922" flavor="Troullier-Martins">
<radfunc>
<data>
 -1.246471226987E+00 -1.356065182008E+00 -1.748888043769E+00 -2.188286145003E+00
 -2.526881181193E+00 -2.714061908028E+00 -2.764313185458E+00 -2.719912276504E+00
 -2.616846176406E+00 -2.483721727389E+00 -2.361366712306E+00 -2.234771618660E+00
 -2.127052634102E+00 -2.026750922654E+00 -1.948884744685E+00 -1.879515051261E+00
 -1.828375551755E+00 -1.783127164071E+00 -1.743394633398E+00 -1.708662943313E+00
 -1.684075032046E+00 -1.661970677312E+00 -1.642007815924E+00 -1.623841431261E+00
 -1.607129078565E+00 -1.595347337862E+00 -1.584059008985E+00 -1.573134913672E+00
 -1.562455824056E+00 -1.551916652360E+00 -1.541431993645E+00 -1.530943233363E+00
 -1.520427362688E+00 -1.509907536988E+00 -1.499465262285E+00 -1.489253902716E+00
 -1.482688916290E+00 -1.476426154862E+00 -1.470582510442E+00 -1.465298226690E+00
 -1.460738364127E+00 -1.457093997361E+00 -1.454583089957E+00 -1.453451004916E+00
 -1.453970625499E+00 -1.456442081152E+00 -1.461192094672E+00 -1.468572986762E+00
 -1.478961389838E+00 -1.492756731219E+00 -1.510379543945E+00 -1.532269649578E+00
 -1.558884230789E+00 -1.590695773023E+00 -1.628189806078E+00 -1.671862321354E+00
 -1.722216682872E+00 -1.779759794848E+00 -1.844997241079E+00 -1.918427078103E+00
 -2.000531952832E+00 -2.091769235457E+00 -2.192558920993E+00 -2.303269169269E+00
 -2.362441296626E+00 -2.424199532220E+00 -2.488567514642E+00 -2.555562160041E+00
 -2.625193008546E+00 -2.697461570012E+00 -2.772360678641E+00 -2.849873866570E+00
 -2.929974766628E+00 -3.012626554065E+00 -3.097781436078E+00 -3.185380196282E+00
 -3.275351799028E+00 -3.367613055565E+00 -3.462068350684E+00 -3.558609424874E+00
 -3.657115203300E+00 -3.757451659555E+00 -3.859471699353E+00 -3.963015047519E+00
 -4.067908121121E+00 -4.173963872591E+00 -4.280981589394E+00 -4.388746641143E+00
 -4.497030171056E+00 -4.605588735854E+00 -4.714163906354E+00 -4.822481849592E+00
 -4.930252921756E+00 -5.037171309069E+00 -5.142914760500E+00 -5.247144461521E+00
 -5.349505101701E+00 -5.449625190717E+00 -5.547117677374E+00 -5.641580924450E+00
 -5.732600089022E+00 -5.819748953384E+00 -5.902592246159E+00 -5.980688486803E+00
 -6.053593379642E+00 -6.120863775886E+00 -6.182062213750E+00 -6.236762037818E+00
 -6.284553088938E+00 -6.325047944983E+00 -6.357888680620E+00 -6.382754100309E+00
 -6.399367382970E+00 -6.407504058641E+00 -6.407000216719E+00 -6.397760821647E+00
 -6.379767984757E+00 -6.353089010032E+00 -6.317883996148E+00 -6.274412736776E+00
 -6.223040614781E+00 -6.164243132630E+00 -6.098608659455E+00 -6.026838902991E+00
 -5.949746529553E+00 -5.868249254279E+00 -5.783359603404E+00 -5.696169405930E+00
 -5.607827898657E+00 -5.519512120659E+00 -5.432388026690E+00 -5.347560439465E+00
 -5.266009735717E+00 -5.188512048571E+00 -5.115542657075E+00 -5.047149451560E+00
 -4.982817739412E+00 -4.921274127374E+00 -4.860786668305E+00 -4.800949767888E+00
 -4.741746894176E+00 -4.683166785123E+00 -4.625209206835E+00 -4.567867058121E+00
 -4.511138499950E+00 -4.455022195395E+00 -4.399518826646E+00 -4.344630793163E+00
 -4.290362255645E+00 -4.236719041090E+00 -4.183708462063E+00 -4.131339011990E+00
 -4.079619907208E+00 -4.028560441438E+00 -3.978169144772E+00 -3.928452537647E+00
 -3.879396131662E+00 -3.831040042559E+00 -3.783362925523E+00 -3.736326264234E+00
 -3.689901885497E+00 -3.644067381174E+00 -3.598791783571E+00 -3.554077619304E+00
 -3.509921735650E+00 -3.466312126267E+00 -3.423244538704E+00 -3.380711597982E+00
 -3.338706932776E+00 -3.297224021081E+00 -3.256256442233E+00 -3.215797837648E+00
 -3.175841917906E+00 -3.136382463413E+00 -3.097413325281E+00 -3.058928425819E+00
 -3.020921758709E+00 -2.983387389067E+00 -2.946319453252E+00 -2.909712158545E+00
 -2.873559782731E+00 -2.837856673579E+00 -2.802597248253E+00 -2.767775992674E+00
 -2.733387460834E+00 -2.699426274084E+00 -2.665887120398E+00 -2.632764753623E+00
 -2.600053992715E+00 -2.567749720979E+00 -2.535846885296E+00 -2.504340495357E+00
 -2.473225622902E+00 -2.442497400954E+00 -2.412151023073E+00 -2.382181742599E+00
 -2.352584871919E+00 -2.323355781732E+00 -2.294489900323E+00 -2.265982712847E+00
 -2.237829760624E+00 -2.210026640435E+00 -2.182569003835E+00 -2.155452556467E+00
 -2.128673057391E+00 -2.102226318418E+00 -2.076108203449E+00 -2.050314627832E+00
 -2.024841557715E+00 -1.999685009417E+00 -1.974841048801E+00 -1.950305790659E+00
 -1.926075398100E+00 -1.902146081949E+00 -1.878514100155E+00 -1.855175757200E+00
 -1.832127403523E+00 -1.809365434946E+00 -1.786886292111E+00 -1.764686459919E+00
 -1.742762466981E+00 -1.721110885074E+00 -1.699728328603E+00 -1.678611454070E+00
 -1.657756959550E+00 -1.637161584177E+00 -1.616822107626E+00 -1.596735349615E+00
 -1.576898169404E+00 -1.557307465301E+00 -1.537960174182E+00 -1.518853271004E+00
 -1.499983768334E+00 -1.481348715883E+00 -1.462945200042E+00 -1.444770343424E+00
 -1.426821304417E+00 -1.409095276734E+00 -1.391589488980E+00 -1.374301204211E+00
 -1.357227719509E+00 -1.340366365561E+00 -1.323714506234E+00 -1.307269538168E+00
 -1.291028890368E+00 -1.274990023798E+00 -1.259150430985E+00 -1.243507635630E+00
 -1.228059192212E+00 -1.212802685614E+00 -1.197735730739E+00 -1.182855972139E+00
 -1.168161083645E+00 -1.153648768004E+00 -1.139316756519E+00 -1.125162808691E+00
 -1.111184711874E+00 -1.097380280924E+00 -1.083747357859E+00 -1.070283811518E+00
 -1.056987537232E+00 -1.043856456494E+00 -1.030888516627E+00 -1.018081690473E+00
 -1.005433976067E+00 -9.929433963290E-01 -9.806079987509E-01 -9.684258550936E-01
 -9.563950610843E-01 -9.445137361180E-01 -9.327800229635E-01 -9.211920874731E-01
 -9.097481182948E-01 -8.984463265896E-01 -8.872849457510E-01 -8.762622311287E-01
 -8.653764597559E-01 -8.546259300790E-01 -8.440089616920E-01 -8.335238950732E-01
 -8.231690913257E-01 -8.129429319207E-01 -8.028438184445E-01 -7.928701723484E-01
 -7.830204347013E-01 -7.732930659464E-01 -7.636865456600E-01 -7.541993723133E-01
 -7.448300630383E-01 -7.355771533949E-01 -7.264391971424E-01 -7.174147660130E-01
 -7.085024494883E-01 -6.997008545788E-01 -6.910086056059E-01 -6.824243439867E-01
 -6.739467280213E-01 -6.655744326832E-01 -6.573061494120E-01 -6.491405859084E-01
 -6.410764659322E-01 -6.331125291030E-01 -6.252475307023E-01 -6.174802414798E-01
 -6.098094474600E-01 -6.022339497534E-01 -5.947525643681E-01 -5.873641220251E-01
 -5.800674679752E-01 -5.728614618187E-01 -5.657449773266E-01 -5.587169022646E-01
 -5.517761382194E-01 -5.449216004265E-01 -5.381522176009E-01 -5.314669317693E-01
 -5.248646981048E-01 -5.183444847635E-01 -5.119052727228E-01 -5.055460556225E-01
 -4.992658396073E-01 -4.930636431711E-01 -4.869384970037E-01 -4.808894438392E-01
 -4.749155383065E-01 -4.690158467811E-01 -4.631894472393E-01 -4.574354291139E-01
 -4.517528931521E-01 -4.461409512746E-01 -4.405987264366E-01 -4.351253524911E-01
 -4.297199740532E-01 -4.243817463663E-01 -4.191098351700E-01 -4.139034165700E-01
 -4.087616769086E-01 -4.036838126382E-01 -3.986690301951E-01 -3.937165458759E-01
 -3.888255857145E-01 -3.839953853614E-01 -3.792251899639E-01 -3.745142540485E-01
 -3.698618414039E-01 -3.652672249663E-01 -3.607296867053E-01 -3.562485175120E-01
 -3.518230170879E-01 -3.474524938355E-01 -3.431362647502E-01 -3.388736553135E-01
 -3.346639993875E-01 -3.305066391106E-01 -3.264009247952E-01 -3.223462148254E-01
 -3.183418755572E-01 -3.143872812193E-01 -3.104818138152E-01 -3.066248630267E-01
 -3.028158261183E-01 -2.990541078431E-01 -2.953391203500E-01 -2.916702830912E-01
 -2.880470227319E-01 -2.844687730606E-01 -2.809349749005E-01 -2.774450760222E-01
 -2.739985310570E-01 -2.705948014122E-01 -2.672333551867E-01 -2.639136670875E-01
 -2.606352183482E-01 -2.573974966473E-01 -2.541999960286E-01 -2.510422168217E-01
</data>
</radfunc>
</slps>
<slps n="2" l="p" rc="1.35503672631" flavor="Troullier-Martins">
<radfunc>
<data>
 -1.306244445413E+01 -1.317203833144E+01 -1.356486001549E+01 -1.400425286514E+01
 -1.434283338592E+01 -1.452998272708E+01 -1.458017447570E+01 -1.453568036305E+01
 -1.443246230172E+01 -1.429910431850E+01 -1.417645701804E+01 -1.404942559679E+01
 -1.394115188438E+01 -1.384006318873E+01 -1.376126526752E+01 -1.369063910431E+01
 -1.363812443102E+01 -1.359111292182E+01 -1.354912068056E+01 -1.351149396618E+01
 -1.348401521117E+01 -1.345838862390E+01 -1.343413570367E+01 -1.341074601156E+01
 -1.338767671255E+01 -1.337023923958E+01 -1.335240156395E+01 -1.333389560026E+01
 -1.331444219681E+01 -1.329375229371E+01 -1.327152903596E+01 -1.324747101187E+01
 -1.322127671729E+01 -1.319265023862E+01 -1.316130799919E+01 -1.312698622568E+01
 -1.310233168629E+01 -1.307618538579E+01 -1.304849316543E+01 -1.301920905944E+01
 -1.298829561633E+01 -1.295572390274E+01 -1.292147314110E+01 -1.288552994707E+01
 -1.284788715200E+01 -1.280854221905E+01 -1.276749528672E+01 -1.272474689786E+01
 -1.268029549373E+01 -1.263413476640E+01 -1.258625096872E+01 -1.253662027504E+01
 -1.248520626873E+01 -1.243195760515E+01 -1.237680586174E+01 -1.231966354574E+01
 -1.226042218692E+01 -1.219895040361E+01 -1.213509179974E+01 -1.206866253554E+01
 -1.199944842113E+01 -1.192720142033E+01 -1.185163553059E+01 -1.177242213480E+01
 -1.173133207015E+01 -1.168918510856E+01 -1.164592605245E+01 -1.160149621044E+01
 -1.155583332886E+01 -1.150887156687E+01 -1.146054152604E+01 -1.141077034542E+01
 -1.135948187291E+01 -1.130659692319E+01 -1.125203363083E+01 -1.119570790521E+01
 -1.113753399087E+01 -1.107742513358E+01 -1.101529434806E+01 -1.095105527888E+01
 -1.088462314158E+01 -1.081591572618E+01 -1.074485444169E+01 -1.067136537689E+01
 -1.059538035059E+01 -1.051683792424E+01 -1.043568435058E+01 -1.035187443461E+01
 -1.026537228725E+01 -1.017615195717E+01 -1.008419793246E+01 -9.989505510074E+00
 -9.892081037332E+00 -9.791942035616E+00 -9.689117220760E+00 -9.583646438252E+00
 -9.475580533040E+00 -9.364981174044E+00 -9.251920652276E+00 -9.136481668992E+00
 -9.018757126937E+00 -8.898849933674E+00 -8.776872821756E+00 -8.652948186317E+00
 -8.527207936851E+00 -8.399793356768E+00 -8.270854961906E+00 -8.140552347573E+00
 -8.009054012989E+00 -7.876537152004E+00 -7.743187399746E+00 -7.609198526077E+00
 -7.474772068377E+00 -7.340116898003E+00 -7.205448716593E+00 -7.070989480103E+00
 -6.936966749887E+00 -6.803612971203E+00 -6.671164680168E+00 -6.539861640392E+00
 -6.409945910322E+00 -6.281660841781E+00 -6.155250009489E+00 -6.030956070614E+00
 -5.909019552903E+00 -5.789677569895E+00 -5.673162462523E+00 -5.559700368231E+00
 -5.449509722032E+00 -5.342799698787E+00 -5.239768614337E+00 -5.140602296346E+00
 -5.045472566288E+00 -4.954535273713E+00 -4.867930682525E+00 -4.785776755494E+00
 -4.708180845591E+00 -4.635222421052E+00 -4.566945957683E+00 -4.503359459895E+00
 -4.444393002304E+00 -4.389930244302E+00 -4.339810164009E+00 -4.293805429645E+00
 -4.251631385474E+00 -4.212939027987E+00 -4.177315501769E+00 -4.144284466743E+00
 -4.113309046457E+00 -4.083797528444E+00 -4.055112650363E+00 -4.026585354050E+00
 -3.997534054405E+00 -3.967290638895E+00 -3.935234635156E+00 -3.900837004239E+00
 -3.863716489482E+00 -3.823705997588E+00 -3.780948338175E+00 -3.735978317312E+00
 -3.689888373648E+00 -3.644059451421E+00 -3.598785215225E+00 -3.554071903670E+00
 -3.509917848113E+00 -3.466309075313E+00 -3.423242325604E+00 -3.380709978757E+00
 -3.338705773213E+00 -3.297223206605E+00 -3.256255885441E+00 -3.215797471096E+00
 -3.175841690010E+00 -3.136382334992E+00 -3.097413266823E+00 -3.058928415302E+00
 -3.020921779870E+00 -2.983387430048E+00 -2.946319505545E+00 -2.909712216159E+00
 -2.873559841556E+00 -2.837856730891E+00 -2.802597302340E+00 -2.767776042549E+00
 -2.733387506020E+00 -2.699426314457E+00 -2.665887156065E+00 -2.632764784839E+00
 -2.600054019820E+00 -2.567749744354E+00 -2.535846905336E+00 -2.504340512448E+00
 -2.473225637409E+00 -2.442497413217E+00 -2.412151033398E+00 -2.382181751263E+00
 -2.352584879165E+00 -2.323355787773E+00 -2.294489905345E+00 -2.265982717011E+00
 -2.237829764067E+00 -2.210026643275E+00 -2.182569006172E+00 -2.155452558386E+00
 -2.128673058964E+00 -2.102226319703E+00 -2.076108204498E+00 -2.050314628686E+00
 -2.024841558409E+00 -1.999685009979E+00 -1.974841049257E+00 -1.950305791027E+00
 -1.926075398397E+00 -1.902146082189E+00 -1.878514100348E+00 -1.855175757355E+00
 -1.832127403647E+00 -1.809365435045E+00 -1.786886292190E+00 -1.764686459982E+00
 -1.742762467031E+00 -1.721110885114E+00 -1.699728328635E+00 -1.678611454095E+00
 -1.657756959571E+00 -1.637161584193E+00 -1.616822107638E+00 -1.596735349625E+00
 -1.576898169411E+00 -1.557307465308E+00 -1.537960174187E+00 -1.518853271007E+00
 -1.499983768337E+00 -1.481348715885E+00 -1.462945200044E+00 -1.444770343425E+00
 -1.426821304418E+00 -1.409095276735E+00 -1.391589488980E+00 -1.374301204211E+00
 -1.357227719510E+00 -1.340366365561E+00 -1.323714506234E+00 -1.307269538168E+00
 -1.291028890368E+00 -1.274990023798E+00 -1.259150430985E+00 -1.243507635630E+00
 -1.228059192212E+00 -1.212802685614E+00 -1.197735730739E+00 -1.182855972139E+00
 -1.168161083646E+00 -1.153648768004E+00 -1.139316756519E+00 -1.125162808691E+00