Siesta Version  : v4.1.5-1-g384057250
Architecture    : gcc
Compiler version: GNU Fortran (Ubuntu 11.4.0-1ubuntu1~22.04) 11.4.0
Compiler flags  : mpifort -O2 -fPIC -ftree-vectorize -fallow-argument-mismatch
PP flags        : -DFC_HAVE_ABORT -DMPI -DSIESTA__FLOOK -DSIESTA__METIS -DSIESTA__MUMPS -DCDF -DNCDF -DNCDF_4 -DNCDF_PARALLEL -DSIESTA__MRRR -DSIESTA__ELPA
Libraries       : libncdf.a libfdict.a  -lflookall -ldl -lnetcdff -lnetcdf -lhdf5_hl -lhdf5 -lhdf5_fortran -lz -lscalapack-openmpi -lopenblas -lmetis -lzmumps -lcmumps -ldmumps -lmumps_common -lpord -lsmumps -lesmumps -lscotch -lscotcherr -fopenmp -lelpa
PARALLEL version
NetCDF support
NetCDF-4 support
NetCDF-4 MPI-IO support
METIS ordering support
Lua support

* Running on 8 nodes in parallel
>> Start of run:   1-FEB-2024  23:12:23

                           ***********************       
                           *  WELCOME TO SIESTA  *       
                           ***********************       

reinit: Reading from standard input
reinit: Dumped input in INPUT_TMP.13591
************************** Dump of input data file ****************************
# mpirun -np 4 siesta-4.1.5 < GC.fdf > GC.out &
SystemLabel      GC
NumberOfAtoms    29
NumberOfSpecies  4
%block ChemicalSpeciesLabel
    1    1  H
    2    7  N
    3   14  Si
    4    8  O
%endblock ChemicalSpeciesLabel
############################################
# This overrides Defaults.fdf configuration
############################################
MD.TypeOfRun                Verlet # CG, Verlet
MD.Steps                    0
MaxSCFIterations            200
SCF.MustConverge            F
AtomicCoordinatesFormat NotScaledCartesianAng
%block AtomicCoordinatesAndAtomicSpecies
    -0.9861586137320129 6.604691552811316 0.0  1  1  H
    -1.6926453437320128 5.814655372811315 0.0  2  2  N
    -3.4229322537320126 6.256019282811315 0.0  3  3  Si
    -3.578711933732013 7.746011542811315 0.0  1  4  H
    -4.946253873732013 4.697111762811315 0.0  3  5  Si
    -6.429441503732013 4.939942122811315 0.0  1  6  H
    -3.7478630137320126 2.783835602811315 0.0  3  7  Si
    -4.513888473732013 1.251118862811315 0.0  2  8  N
    -3.9236419237320126 0.2939058328113151 0.0  1  9  H
    -5.565510793732013 1.170658632811315 0.0  1  10  H
    -2.0316629537320128 2.839009912811315 0.0  2  11  N
    -0.9566403337320128 4.169348752811315 0.0  3  12  Si
    0.652032986267987 4.150538492811315 0.0  4  13  O
    5.6164483 -7.44953905 0.0  1  14  H
    4.58206954 -7.2320376 0.0  2  15  N
    3.29666389 -8.492636 0.0  3  16  Si
    3.80117524 -9.90371886 -0.0  1  17  H
    1.65934232 -8.01362137 0.0  2  18  N
    1.68097912 -6.20463398 -0.0  3  19  Si
    0.54543521 -4.28636135 0.0  3  20  Si
    -1.03431493 -3.94450034 0.0  4  21  O
    1.73226934 -2.87719605 0.0  2  22  N
    1.20957366 -1.92961761 -0.0  1  23  H
    3.50853448 -2.77677601 0.0  3  24  Si
    4.13684451 -1.17938608 0.0  2  25  N
    3.54296161 -0.26248101 0.0  1  26  H
    5.18364407 -1.05231197 -0.0  1  27  H
    4.63288658 -4.07521596 -0.0  2  28  N
    3.79410501 -5.58634043 0.0  3  29  Si
%endblock AtomicCoordinatesAndAtomicSpecies
#############
# Unit Cell
#############
LatticeConstant 1.0 Ang
%block LatticeVectors
    30.00000    0.000000    0.000000
    0.000000    45.00000    0.000000
    0.000000    0.000000    10.00000
%endblock LatticeVectors
%include ../../../../Defaults.fdf
************************** End of input data file *****************************

reinit: -----------------------------------------------------------------------
reinit: System Name: 
reinit: -----------------------------------------------------------------------
reinit: System Label: GC
reinit: -----------------------------------------------------------------------

initatom: Reading input for the pseudopotentials and atomic orbitals ----------
Species number:   1 Atomic number:    1 Label: H
Species number:   2 Atomic number:    7 Label: N
Species number:   3 Atomic number:   14 Label: Si
Species number:   4 Atomic number:    8 Label: O

Ground state valence configuration:   1s01
Reading pseudopotential information in formatted form from H.psf

Pseudopotential generated from a relativistic atomic calculation

Valence configuration for pseudopotential generation:
1s( 1.00) rc: 0.01
2p( 0.00) rc: 0.60
3d( 0.00) rc: 1.99
4f( 0.00) rc: 2.49
Ground state valence configuration:   2s02  2p03
Reading pseudopotential information in formatted form from N.psf

Pseudopotential generated from a relativistic atomic calculation

Valence configuration for pseudopotential generation:
2s( 2.00) rc: 0.94
2p( 3.00) rc: 0.59
3d( 0.00) rc: 3.46
4f( 0.00) rc: 2.47
Ground state valence configuration:   3s02  3p02
Reading pseudopotential information in formatted form from Si.psf

Pseudopotential generated from a relativistic atomic calculation

Valence configuration for pseudopotential generation:
3s( 2.00) rc: 1.67
3p( 2.00) rc: 2.04
3d( 0.00) rc: 2.89
4f( 0.00) rc: 2.49
Ground state valence configuration:   2s02  2p04
Reading pseudopotential information in formatted form from O.psf

Pseudopotential generated from a relativistic atomic calculation

Valence configuration for pseudopotential generation:
2s( 2.00) rc: 0.45
2p( 4.00) rc: 0.92
3d( 0.00) rc: 2.24
4f( 0.00) rc: 0.25
For H, standard SIESTA heuristics set lmxkb to 2
 (one more than the basis l, including polarization orbitals).
Use PS.lmax or PS.KBprojectors blocks to override.
For N, standard SIESTA heuristics set lmxkb to 3
 (one more than the basis l, including polarization orbitals).
Use PS.lmax or PS.KBprojectors blocks to override.
For Si, standard SIESTA heuristics set lmxkb to 3
 (one more than the basis l, including polarization orbitals).
Use PS.lmax or PS.KBprojectors blocks to override.
For O, standard SIESTA heuristics set lmxkb to 3
 (one more than the basis l, including polarization orbitals).
Use PS.lmax or PS.KBprojectors blocks to override.

<basis_specs>
===============================================================================
H                    Z=   1    Mass=  1.0100        Charge= 0.17977+309
Lmxo=0 Lmxkb= 2    BasisType=split      Semic=F
L=0  Nsemic=0  Cnfigmx=1
          i=1  nzeta=2  polorb=1  (1s)
            splnorm:   0.62000    
               vcte:    0.0000    
               rinn:    0.0000    
               qcoe:    0.0000    
               qyuk:    0.0000    
               qwid:   0.10000E-01
                rcs:    0.0000      0.0000    
            lambdas:    1.0000      1.0000    
-------------------------------------------------------------------------------
L=0  Nkbl=1  erefs: 0.17977+309
L=1  Nkbl=1  erefs: 0.17977+309
L=2  Nkbl=1  erefs: 0.17977+309
===============================================================================
</basis_specs>

atom: Called for H                     (Z =   1)

read_vps: Pseudopotential generation method:
read_vps: ATM4.2.7  Troullier-Martins                       
Valence charge for ps generation:    1.00000

xc_check: Exchange-correlation functional:
xc_check: GGA Perdew, Burke & Ernzerhof 1996
V l=0 = -2*Zval/r beyond r=  0.0098
V l=1 = -2*Zval/r beyond r=  0.5817
V l=2 = -2*Zval/r beyond r=  1.9372
All V_l potentials equal beyond r=  1.9372
This should be close to max(r_c) in ps generation
All pots = -2*Zval/r beyond r=  1.9372

VLOCAL1: 99.0% of the norm of Vloc inside     11.567 Ry
VLOCAL1: 99.9% of the norm of Vloc inside     26.362 Ry
atom: Maximum radius for 4*pi*r*r*local-pseudopot. charge    2.25106
atom: Maximum radius for r*vlocal+2*Zval:    1.91306
GHOST: No ghost state for L =  0
GHOST: No ghost state for L =  1
GHOST: No ghost state for L =  2

KBgen: Kleinman-Bylander projectors: 
   l= 0   rc=  2.036604   el= -0.477180   Ekb= -6.081590   kbcos= -0.277285
   l= 1   rc=  2.195416   el=  0.001076   Ekb= -0.926943   kbcos= -0.034643
   l= 2   rc=  2.251056   el=  0.002010   Ekb= -0.130941   kbcos= -0.009788

KBgen: Total number of Kleinman-Bylander projectors:    9
atom: -------------------------------------------------------------------------

atom: SANKEY-TYPE ORBITALS:
atom: Selected multiple-zeta basis: split     

SPLIT: Orbitals with angular momentum L= 0

SPLIT: Basis orbitals for state 1s

SPLIT: PAO cut-off radius determined from an
SPLIT: energy shift=  0.002000 Ry

   izeta = 1
                 lambda =    1.000000
                     rc =    6.518340
                 energy =   -0.475305
                kinetic =    0.912139
    potential(screened) =   -1.387444
       potential(ionic) =   -1.907295

   izeta = 2
                 rmatch =    2.141150
              splitnorm =    0.620000
                 energy =    0.566467
                kinetic =    3.772856
    potential(screened) =   -3.206389
       potential(ionic) =   -3.759093

POLgen: Perturbative polarization orbital with L=  1

POLgen: Polarization orbital for state 1s

   izeta = 1
                     rc =    6.518340
                 energy =    0.533861
                kinetic =    1.121086
    potential(screened) =   -0.587225
       potential(ionic) =   -1.053027
atom: Total number of Sankey-type orbitals:  5

atm_pop: Valence configuration (for local Pseudopot. screening):
 1s( 1.00)                                                            
Vna: chval, zval:    1.00000   1.00000

Vna:  Cut-off radius for the neutral-atom potential:   6.518340

atom: _________________________________________________________________________

<basis_specs>
===============================================================================
N                    Z=   7    Mass=  14.010        Charge= 0.17977+309
Lmxo=1 Lmxkb= 3    BasisType=split      Semic=F
L=0  Nsemic=0  Cnfigmx=2
          i=1  nzeta=2  polorb=0  (2s)
            splnorm:   0.28000    
               vcte:    0.0000    
               rinn:    0.0000    
               qcoe:    0.0000    
               qyuk:    0.0000    
               qwid:   0.10000E-01
                rcs:    0.0000      0.0000    
            lambdas:    1.0000      1.0000    
L=1  Nsemic=0  Cnfigmx=2
          i=1  nzeta=2  polorb=1  (2p)
            splnorm:   0.28000    
               vcte:    0.0000    
               rinn:    0.0000    
               qcoe:    0.0000    
               qyuk:    0.0000    
               qwid:   0.10000E-01
                rcs:    0.0000      0.0000    
            lambdas:    1.0000      1.0000    
-------------------------------------------------------------------------------
L=0  Nkbl=1  erefs: 0.17977+309
L=1  Nkbl=1  erefs: 0.17977+309
L=2  Nkbl=1  erefs: 0.17977+309
L=3  Nkbl=1  erefs: 0.17977+309
===============================================================================
</basis_specs>

atom: Called for N                     (Z =   7)

read_vps: Pseudopotential generation method:
read_vps: ATM4.2.7  Troullier-Martins                       
Valence charge for ps generation:    5.00000

xc_check: Exchange-correlation functional:
xc_check: GGA Perdew, Burke & Ernzerhof 1996
V l=0 = -2*Zval/r beyond r=  1.2889
V l=1 = -2*Zval/r beyond r=  1.2889
V l=2 = -2*Zval/r beyond r=  3.4178
V l=3 = -2*Zval/r beyond r=  2.4084
All V_l potentials equal beyond r=  3.3753
This should be close to max(r_c) in ps generation
All pots = -2*Zval/r beyond r=  3.4178

VLOCAL1: 99.0% of the norm of Vloc inside      3.810 Ry
VLOCAL1: 99.9% of the norm of Vloc inside      8.683 Ry
atom: Maximum radius for 4*pi*r*r*local-pseudopot. charge    4.02088
atom: Maximum radius for r*vlocal+2*Zval:    3.54838
GHOST: No ghost state for L =  0
GHOST: No ghost state for L =  1
GHOST: No ghost state for L =  2
GHOST: No ghost state for L =  3

KBgen: Kleinman-Bylander projectors: 
   l= 0   rc=  3.417763   el= -1.365098   Ekb= -4.433130   kbcos= -0.707855
   l= 1   rc=  3.375302   el= -0.521201   Ekb=-13.264039   kbcos= -0.535594
   l= 2   rc=  3.872880   el=  0.001991   Ekb= -0.641094   kbcos= -0.062456
   l= 3   rc=  3.970931   el=  0.003093   Ekb= -0.474517   kbcos= -0.018236

KBgen: Total number of Kleinman-Bylander projectors:   16
atom: -------------------------------------------------------------------------

atom: SANKEY-TYPE ORBITALS:
atom: Selected multiple-zeta basis: split     

SPLIT: Orbitals with angular momentum L= 0

SPLIT: Basis orbitals for state 2s

SPLIT: PAO cut-off radius determined from an
SPLIT: energy shift=  0.002000 Ry

   izeta = 1
                 lambda =    1.000000
                     rc =    4.730425
                 energy =   -1.363399
                kinetic =    1.245246
    potential(screened) =   -2.608645
       potential(ionic) =   -8.121105

   izeta = 2
                 rmatch =    2.531849
              splitnorm =    0.280000
                 energy =   -0.959908
                kinetic =    2.409435
    potential(screened) =   -3.369343
       potential(ionic) =   -9.427975

SPLIT: Orbitals with angular momentum L= 1

SPLIT: Basis orbitals for state 2p

SPLIT: PAO cut-off radius determined from an
SPLIT: energy shift=  0.002000 Ry

   izeta = 1
                 lambda =    1.000000
                     rc =    5.924108
                 energy =   -0.519262
                kinetic =    3.672940
    potential(screened) =   -4.192202
       potential(ionic) =   -9.518354

   izeta = 2
                 rmatch =    2.531849
              splitnorm =    0.280000
                 energy =   -0.104258
                kinetic =    6.807538
    potential(screened) =   -6.911796
       potential(ionic) =  -13.149920

POLgen: Perturbative polarization orbital with L=  2

POLgen: Polarization orbital for state 2p

   izeta = 1
                     rc =    5.924108
                 energy =    1.427508
                kinetic =    2.872379
    potential(screened) =   -1.444871
       potential(ionic) =   -5.563644
atom: Total number of Sankey-type orbitals: 13

atm_pop: Valence configuration (for local Pseudopot. screening):
 2s( 2.00)                                                            
 2p( 3.00)                                                            
Vna: chval, zval:    5.00000   5.00000

Vna:  Cut-off radius for the neutral-atom potential:   5.924108

atom: _________________________________________________________________________

<basis_specs>
===============================================================================
Si                   Z=  14    Mass=  28.090        Charge= 0.17977+309
Lmxo=1 Lmxkb= 3    BasisType=split      Semic=F
L=0  Nsemic=0  Cnfigmx=3
          i=1  nzeta=2  polorb=0  (3s)
            splnorm:   0.28000    
               vcte:    0.0000    
               rinn:    0.0000    
               qcoe:    0.0000    
               qyuk:    0.0000    
               qwid:   0.10000E-01
                rcs:    0.0000      0.0000    
            lambdas:    1.0000      1.0000    
L=1  Nsemic=0  Cnfigmx=3
          i=1  nzeta=2  polorb=1  (3p)
            splnorm:   0.28000    
               vcte:    0.0000    
               rinn:    0.0000    
               qcoe:    0.0000    
               qyuk:    0.0000    
               qwid:   0.10000E-01
                rcs:    0.0000      0.0000    
            lambdas:    1.0000      1.0000    
-------------------------------------------------------------------------------
L=0  Nkbl=1  erefs: 0.17977+309
L=1  Nkbl=1  erefs: 0.17977+309
L=2  Nkbl=1  erefs: 0.17977+309
L=3  Nkbl=1  erefs: 0.17977+309
===============================================================================
</basis_specs>

atom: Called for Si                    (Z =  14)

read_vps: Pseudopotential generation method:
read_vps: ATM4.2.7  Troullier-Martins                       
Valence charge for ps generation:    4.00000

xc_check: Exchange-correlation functional:
xc_check: GGA Perdew, Burke & Ernzerhof 1996
V l=0 = -2*Zval/r beyond r=  2.7826
V l=1 = -2*Zval/r beyond r=  2.7826
V l=2 = -2*Zval/r beyond r=  2.9253
V l=3 = -2*Zval/r beyond r=  2.7826
All V_l potentials equal beyond r=  2.8530
This should be close to max(r_c) in ps generation
All pots = -2*Zval/r beyond r=  2.9253

VLOCAL1: 99.0% of the norm of Vloc inside      5.333 Ry
VLOCAL1: 99.9% of the norm of Vloc inside     12.154 Ry
atom: Maximum radius for 4*pi*r*r*local-pseudopot. charge    3.39869
atom: Maximum radius for r*vlocal+2*Zval:    2.96205
GHOST: No ghost state for L =  0
GHOST: No ghost state for L =  1
GHOST: No ghost state for L =  2
GHOST: No ghost state for L =  3

KBgen: Kleinman-Bylander projectors: 
   l= 0   rc=  3.075247   el= -0.794092   Ekb=  5.879390   kbcos=  0.167461
   l= 1   rc=  3.153101   el= -0.300068   Ekb=  2.642817   kbcos=  0.058301
   l= 2   rc=  3.273594   el=  0.001958   Ekb= -1.185135   kbcos= -0.104411
   l= 3   rc=  3.232927   el=  0.003046   Ekb= -0.497174   kbcos= -0.015889

KBgen: Total number of Kleinman-Bylander projectors:   16
atom: -------------------------------------------------------------------------

atom: SANKEY-TYPE ORBITALS:
atom: Selected multiple-zeta basis: split     

SPLIT: Orbitals with angular momentum L= 0

SPLIT: Basis orbitals for state 3s

SPLIT: PAO cut-off radius determined from an
SPLIT: energy shift=  0.002000 Ry

   izeta = 1
                 lambda =    1.000000
                     rc =    6.429618
                 energy =   -0.792283
                kinetic =    0.525293
    potential(screened) =   -1.317576
       potential(ionic) =   -3.744923

   izeta = 2
                 rmatch =    3.998416
              splitnorm =    0.280000
                 energy =   -0.583081
                kinetic =    1.069570
    potential(screened) =   -1.652651
       potential(ionic) =   -4.235185

SPLIT: Orbitals with angular momentum L= 1

SPLIT: Basis orbitals for state 3p

SPLIT: PAO cut-off radius determined from an
SPLIT: energy shift=  0.002000 Ry

   izeta = 1
                 lambda =    1.000000
                     rc =    8.464845
                 energy =   -0.298236
                kinetic =    0.785360
    potential(screened) =   -1.083596
       potential(ionic) =   -3.273779

   izeta = 2
                 rmatch =    4.587816
              splitnorm =    0.280000
                 energy =   -0.131871
                kinetic =    1.403687
    potential(screened) =   -1.535557
       potential(ionic) =   -4.015310

POLgen: Perturbative polarization orbital with L=  2

POLgen: Polarization orbital for state 3p

   izeta = 1
                     rc =    8.464845
                 energy =    0.321949
                kinetic =    1.055677
    potential(screened) =   -0.733728
       potential(ionic) =   -2.672950
atom: Total number of Sankey-type orbitals: 13

atm_pop: Valence configuration (for local Pseudopot. screening):
 3s( 2.00)                                                            
 3p( 2.00)                                                            
Vna: chval, zval:    4.00000   4.00000

Vna:  Cut-off radius for the neutral-atom potential:   8.464845

atom: _________________________________________________________________________

<basis_specs>
===============================================================================
O                    Z=   8    Mass=  16.000        Charge= 0.17977+309
Lmxo=1 Lmxkb= 3    BasisType=split      Semic=F
L=0  Nsemic=0  Cnfigmx=2
          i=1  nzeta=2  polorb=0  (2s)
            splnorm:   0.28000    
               vcte:    0.0000    
               rinn:    0.0000    
               qcoe:    0.0000    
               qyuk:    0.0000    
               qwid:   0.10000E-01
                rcs:    0.0000      0.0000    
            lambdas:    1.0000      1.0000    
L=1  Nsemic=0  Cnfigmx=2
          i=1  nzeta=2  polorb=1  (2p)
            splnorm:   0.28000    
               vcte:    0.0000    
               rinn:    0.0000    
               qcoe:    0.0000    
               qyuk:    0.0000    
               qwid:   0.10000E-01
                rcs:    0.0000      0.0000    
            lambdas:    1.0000      1.0000    
-------------------------------------------------------------------------------
L=0  Nkbl=1  erefs: 0.17977+309
L=1  Nkbl=1  erefs: 0.17977+309
L=2  Nkbl=1  erefs: 0.17977+309
L=3  Nkbl=1  erefs: 0.17977+309
===============================================================================
</basis_specs>

atom: Called for O                     (Z =   8)

read_vps: Pseudopotential generation method:
read_vps: ATM4.2.7  Troullier-Martins                       
Valence charge for ps generation:    6.00000

xc_check: Exchange-correlation functional:
xc_check: GGA Perdew, Burke & Ernzerhof 1996
V l=0 = -2*Zval/r beyond r=  1.1000
V l=1 = -2*Zval/r beyond r=  1.1000
V l=2 = -2*Zval/r beyond r=  2.2154
V l=3 = -2*Zval/r beyond r=  1.1000
All V_l potentials equal beyond r=  2.2154
This should be close to max(r_c) in ps generation
All pots = -2*Zval/r beyond r=  2.2154

VLOCAL1: 99.0% of the norm of Vloc inside      8.845 Ry
VLOCAL1: 99.9% of the norm of Vloc inside     20.157 Ry
atom: Maximum radius for 4*pi*r*r*local-pseudopot. charge    2.67231
atom: Maximum radius for r*vlocal+2*Zval:    2.32897
GHOST: No ghost state for L =  0
GHOST: No ghost state for L =  1
GHOST: No ghost state for L =  2
GHOST: No ghost state for L =  3

KBgen: Kleinman-Bylander projectors: 
   l= 0   rc=  2.243238   el= -1.759686   Ekb=**********   kbcos= -0.171774
   l= 1   rc=  2.328968   el= -0.663873   Ekb=-14.506792   kbcos= -0.519897
   l= 2   rc=  2.573941   el=  0.002031   Ekb= -1.137373   kbcos= -0.019581
   l= 3   rc=  2.606321   el=  0.003153   Ekb= -1.013546   kbcos= -0.003122

KBgen: Total number of Kleinman-Bylander projectors:   16
atom: -------------------------------------------------------------------------

atom: SANKEY-TYPE ORBITALS:
atom: Selected multiple-zeta basis: split     

SPLIT: Orbitals with angular momentum L= 0

SPLIT: Basis orbitals for state 2s

SPLIT: PAO cut-off radius determined from an
SPLIT: energy shift=  0.002000 Ry

   izeta = 1
                 lambda =    1.000000
                     rc =    4.243912
                 energy =   -1.758270
                kinetic =    3.286084
    potential(screened) =   -5.044353
       potential(ionic) =  -12.921184

   izeta = 2
                 rmatch =    2.187845
              splitnorm =    0.280000
                 energy =   -0.885018
                kinetic =    8.134434
    potential(screened) =   -9.019452
       potential(ionic) =  -17.710645

SPLIT: Orbitals with angular momentum L= 1

SPLIT: Basis orbitals for state 2p

SPLIT: PAO cut-off radius determined from an
SPLIT: energy shift=  0.002000 Ry

   izeta = 1
                 lambda =    1.000000
                     rc =    5.314825
                 energy =   -0.661986
                kinetic =    4.917472
    potential(screened) =   -5.579458
       potential(ionic) =  -13.236259

   izeta = 2
                 rmatch =    2.160663
              splitnorm =    0.280000
                 energy =   -0.068760
                kinetic =    9.183374
    potential(screened) =   -9.252135
       potential(ionic) =  -18.274251

POLgen: Perturbative polarization orbital with L=  2

POLgen: Polarization orbital for state 2p

   izeta = 1
                     rc =    5.314825
                 energy =    1.970580
                kinetic =    3.886128
    potential(screened) =   -1.915547
       potential(ionic) =   -7.749584
atom: Total number of Sankey-type orbitals: 13

atm_pop: Valence configuration (for local Pseudopot. screening):
 2s( 2.00)                                                            
 2p( 4.00)                                                            
Vna: chval, zval:    6.00000   6.00000

Vna:  Cut-off radius for the neutral-atom potential:   5.314825

atom: _________________________________________________________________________

prinput: Basis input ----------------------------------------------------------

PAO.BasisType split     

%block ChemicalSpeciesLabel
    1    1 H                       # Species index, atomic number, species label
    2    7 N                       # Species index, atomic number, species label
    3   14 Si                      # Species index, atomic number, species label
    4    8 O                       # Species index, atomic number, species label
%endblock ChemicalSpeciesLabel

%block PAO.Basis                 # Define Basis set
H                     1                    # Species label, number of l-shells
 n=1   0   2 P   1                   # n, l, Nzeta, Polarization, NzetaPol
   6.518      2.141   
   1.000      1.000   
N                     2                    # Species label, number of l-shells
 n=2   0   2                         # n, l, Nzeta 
   4.730      2.532   
   1.000      1.000   
 n=2   1   2 P   1                   # n, l, Nzeta, Polarization, NzetaPol
   5.924      2.532   
   1.000      1.000   
Si                    2                    # Species label, number of l-shells
 n=3   0   2                         # n, l, Nzeta 
   6.430      3.998   
   1.000      1.000   
 n=3   1   2 P   1                   # n, l, Nzeta, Polarization, NzetaPol
   8.465      4.588   
   1.000      1.000   
O                     2                    # Species label, number of l-shells
 n=2   0   2                         # n, l, Nzeta 
   4.244      2.188   
   1.000      1.000   
 n=2   1   2 P   1                   # n, l, Nzeta, Polarization, NzetaPol
   5.315      2.161   
   1.000      1.000   
%endblock PAO.Basis

prinput: ----------------------------------------------------------------------

Dumping basis to NetCDF file H.ion.nc
Dumping basis to NetCDF file N.ion.nc
Dumping basis to NetCDF file Si.ion.nc
Dumping basis to NetCDF file O.ion.nc
coor:   Atomic-coordinates input format  =     Cartesian coordinates
coor:                                          (in Angstroms)

siesta: Atomic coordinates (Bohr) and species
siesta:     -1.86357  12.48106   0.00000  1        1
siesta:     -3.19864  10.98811   0.00000  2        2
siesta:     -6.46841  11.82217   0.00000  3        3
siesta:     -6.76279  14.63785   0.00000  1        4
siesta:     -9.34707   8.87626   0.00000  3        5
siesta:    -12.14989   9.33514   0.00000  1        6
siesta:     -7.08244   5.26069   0.00000  3        7
siesta:     -8.53002   2.36427   0.00000  2        8
siesta:     -7.41461   0.55540   0.00000  1        9
siesta:    -10.51730   2.21223   0.00000  1       10
siesta:     -3.83929   5.36495   0.00000  2       11
siesta:     -1.80779   7.87893   0.00000  3       12
siesta:      1.23216   7.84338   0.00000  4       13
siesta:     10.61355 -14.07759   0.00000  1       14
siesta:      8.65886 -13.66658   0.00000  2       15
siesta:      6.22979 -16.04876   0.00000  3       16
siesta:      7.18318 -18.71532  -0.00000  1       17
siesta:      3.13570 -15.14356   0.00000  2       18
siesta:      3.17659 -11.72506  -0.00000  3       19
siesta:      1.03072  -8.10005   0.00000  3       20
siesta:     -1.95457  -7.45403   0.00000  4       21
siesta:      3.27352  -5.43711   0.00000  2       22
siesta:      2.28576  -3.64645  -0.00000  1       23
siesta:      6.63017  -5.24735   0.00000  3       24
siesta:      7.81751  -2.22872   0.00000  2       25
siesta:      6.69523  -0.49602   0.00000  1       26
siesta:      9.79567  -1.98858  -0.00000  1       27
siesta:      8.75489  -7.70105  -0.00000  2       28
siesta:      7.16982 -10.55666   0.00000  3       29

siesta: System type = molecule  

initatomlists: Number of atoms, orbitals, and projectors:     29   297   394

siesta: ******************** Simulation parameters ****************************
siesta:
siesta: The following are some of the parameters of the simulation.
siesta: A complete list of the parameters used, including default values,
siesta: can be found in file out.fdf
siesta:
redata: Spin configuration                          = spin-orbit
redata: Number of spin components                   = 8
redata: Time-Reversal Symmetry                      = F
redata: Spin spiral                                 = F
############################################################
This spin-orbit implementation uses a local approximation.
From 4.2 and onwards the full non-local approximation is implemented
You are strongly advised to use >=4.2 versions!
############################################################
redata: Long output                                 =   F
redata: Number of Atomic Species                    =        4
redata: Charge density info will appear in .RHO file
redata: Write Mulliken Pop.                         = NO
redata: Matel table size (NRTAB)                    =     1024
redata: Mesh Cutoff                                 =   340.0000 Ry
redata: Net charge of the system                    =     0.0000 |e|
redata: Min. number of SCF Iter                     =        1
redata: Max. number of SCF Iter                     =      200
redata: SCF mix quantity                            = Hamiltonian
redata: Mix DM or H after convergence               =   F
redata: Recompute H after scf cycle                 =   F
redata: Mix DM in first SCF step                    =   T
redata: Write Pulay info on disk                    =   F
redata: New DM Occupancy tolerance                  = 0.000000000001
redata: No kicks to SCF
redata: DM Mixing Weight for Kicks                  =     0.5000
redata: Require Harris convergence for SCF          =   F
redata: Harris energy tolerance for SCF             =     0.000100 eV
redata: Require DM convergence for SCF              =   T
redata: DM tolerance for SCF                        =     0.000008
redata: Require EDM convergence for SCF             =   F
redata: EDM tolerance for SCF                       =     0.001000 eV
redata: Require H convergence for SCF               =   T
redata: Hamiltonian tolerance for SCF               =     0.000001 eV
redata: Require (free) Energy convergence for SCF   =   F
redata: (free) Energy tolerance for SCF             =     0.000100 eV
redata: Using Saved Data (generic)                  =   F
redata: Use continuation files for DM               =   T
redata: Neglect nonoverlap interactions             =   F
redata: Method of Calculation                       = Diagonalization
redata: Electronic Temperature                      =   299.9978 K
redata: Fix the spin of the system                  =   F
redata: Dynamics option                             = Verlet MD run
redata: Initial MD time step                        =        1
redata:   Final MD time step                        =        1
redata: Length of MD time step                      =     0.5000 fs
redata: Initial Temperature of MD run               =     0.0000 K
redata: Perform a MD quench                         =   F
mix.SCF: Pulay mixing                            = Pulay
mix.SCF:    Variant                              = stable
mix.SCF:    History steps                        = 6
mix.SCF:    Linear mixing weight                 =     0.250000
mix.SCF:    Mixing weight                        =     0.250000
mix.SCF:    SVD condition                        = 0.1000E-07
mix.SCF:    Restart steps                        = 24
mix.SCF:    Restart save steps                   = 3
mix.SCF: Spin-component mixing                   all
redata: Save all siesta data in one NC              =   F
redata: ***********************************************************************

%block SCF.Mixers
  Pulay
%endblock SCF.Mixers

%block SCF.Mixer.Pulay
  # Mixing method
  method pulay
  variant stable

  # Mixing options
  weight 0.2500
  weight.linear 0.2500
  history 6
  restart 24
  restart.save 3
%endblock SCF.Mixer.Pulay

Size of DM history Fstack: 3
Total number of electrons:    98.000000
Total ionic charge:    98.000000

* ProcessorY, Blocksize:    2  24


* Orbital distribution balance (max,min):    48    24


Time-reversal symmetry not used.

siesta: k-grid: Number of k-points =     1
siesta: k-grid: Cutoff (effective) =     5.000 Ang
siesta: k-grid: Supercell and displacements
siesta: k-grid:    1   0   0      0.000
siesta: k-grid:    0   1   0      0.000
siesta: k-grid:    0   0   1      0.000

diag: Algorithm                                     = ELPA-1stage
diag: Parallel over k                               =   F
diag: Use parallel 2D distribution                  =   T
diag: Parallel block-size                           = 24
diag: Parallel distribution                         =     2 x     4
diag: Used triangular part                          = Lower
diag: Absolute tolerance                            =  0.100E-15
diag: Orthogonalization factor                      =  0.100E-05
diag: Memory factor                                 =  1.0000


ts: **************************************************************
ts: Save H and S matrices                           =    F
ts: Save DM and EDM matrices                        =    F
ts: Only save the overlap matrix S                  =    F
ts: **************************************************************

************************ Begin: TS CHECKS AND WARNINGS ************************
************************ End: TS CHECKS AND WARNINGS **************************


                     ====================================
                        Begin MD step =      1
                     ====================================

outcoor: Atomic coordinates (Ang):                          
   -0.98615861    6.60469155    0.00000000   1       1  H
   -1.69264534    5.81465537    0.00000000   2       2  N
   -3.42293225    6.25601928    0.00000000   3       3  Si
   -3.57871193    7.74601154    0.00000000   1       4  H
   -4.94625387    4.69711176    0.00000000   3       5  Si
   -6.42944150    4.93994212    0.00000000   1       6  H
   -3.74786301    2.78383560    0.00000000   3       7  Si
   -4.51388847    1.25111886    0.00000000   2       8  N
   -3.92364192    0.29390583    0.00000000   1       9  H
   -5.56551079    1.17065863    0.00000000   1      10  H
   -2.03166295    2.83900991    0.00000000   2      11  N
   -0.95664033    4.16934875    0.00000000   3      12  Si
    0.65203299    4.15053849    0.00000000   4      13  O
    5.61644830   -7.44953905    0.00000000   1      14  H
    4.58206954   -7.23203760    0.00000000   2      15  N
    3.29666389   -8.49263600    0.00000000   3      16  Si
    3.80117524   -9.90371886    0.00000000   1      17  H
    1.65934232   -8.01362137    0.00000000   2      18  N
    1.68097912   -6.20463398    0.00000000   3      19  Si
    0.54543521   -4.28636135    0.00000000   3      20  Si
   -1.03431493   -3.94450034    0.00000000   4      21  O
    1.73226934   -2.87719605    0.00000000   2      22  N
    1.20957366   -1.92961761    0.00000000   1      23  H
    3.50853448   -2.77677601    0.00000000   3      24  Si
    4.13684451   -1.17938608    0.00000000   2      25  N
    3.54296161   -0.26248101    0.00000000   1      26  H
    5.18364407   -1.05231197    0.00000000   1      27  H
    4.63288658   -4.07521596    0.00000000   2      28  N
    3.79410501   -5.58634043    0.00000000   3      29  Si

outcell: Unit cell vectors (Ang):
       30.000000    0.000000    0.000000
        0.000000   45.000000    0.000000
        0.000000    0.000000   10.000000

outcell: Cell vector modules (Ang)   :   30.000000   45.000000   10.000000
outcell: Cell angles (23,13,12) (deg):     90.0000     90.0000     90.0000
outcell: Cell volume (Ang**3)        :  13500.0000
<dSpData1D:S at geom step 1
  <sparsity:sparsity for geom step 1
    nrows_g=297 nrows=48 sparsity=.0835 nnzs=7367, refcount: 8>
  <dData1D:(new from dSpData1D) n=7367, refcount: 1>
refcount: 1>
new_DM -- step:     1
Initializing Density Matrix...

Attempting to read DM from file... Failed...
DM filled with atomic data:
<dSpData2D:DM initialized from atoms
  <sparsity:sparsity for geom step 1
    nrows_g=297 nrows=48 sparsity=.0835 nnzs=7367, refcount: 9>
  <dData2D:DM n=7367 m=8, refcount: 1>
refcount: 1>
     spin moment: S , {S} =   56.00000   0.00000   0.00000  56.00000
No. of atoms with KB's overlaping orbs in proc 0. Max # of overlaps:      26     142

Initializing spin-orbit part of the Hamiltonian
  Adding spin-orbit effects for H 
  Adding spin-orbit effects for N 
  Adding spin-orbit effects for Si
  Adding spin-orbit effects for O 


New grid distribution:   1
           1       1:  180    1:  125    1:   15
           2       1:  180    1:  125   16:   30
           3       1:  180    1:  125   31:   45
           4       1:  180    1:  125   46:   60
           5       1:  180  126:  250    1:   15
           6       1:  180  126:  250   16:   30
           7       1:  180  126:  250   31:   45
           8       1:  180  126:  250   46:   60

InitMesh: MESH =   360 x   500 x   120 =    21600000
InitMesh: (bp) =   180 x   250 x    60 =     2700000
InitMesh: Mesh cutoff (required, used) =   340.000   341.206 Ry
ExtMesh (bp) on 0 =   288 x   225 x   123 =     7970400
New grid distribution:   2
           1       1:  156   31:  206    1:   60
           2     157:  180   26:  206    1:   60
           3     157:  180    1:   25    1:   60
           4       1:   20  207:  225    1:   60
           5       1:  156    1:   30    1:   60
           6      21:  180  226:  250    1:   60
           7      21:  180  207:  225    1:   60
           8       1:   20  226:  250    1:   60
New grid distribution:   3
           1       1:  146   25:  188    1:   60
           2     147:  180   29:  188    1:   60
           3       1:  146    1:   24    1:   60
           4     147:  180    1:   28    1:   60
           5      32:  180  189:  226    1:   60
           6      32:  180  227:  250    1:   60
           7       1:   31  220:  250    1:   60
           8       1:   31  189:  219    1:   60
Setting up quadratic distribution...
ExtMesh (bp) on 0 =   264 x   276 x   168 =    12241152
PhiOnMesh: Number of (b)points on node 0 =              1647360
PhiOnMesh: nlist on node 0 =              1697025

stepf: Fermi-Dirac step function

siesta: Program's energy decomposition (eV):
siesta: Ebs     =      -599.267474
siesta: Eions   =      3585.165840
siesta: Ena     =       381.828398
siesta: Ekin    =      3369.054299
siesta: Enl     =     -3297.395473
siesta: Eso     =        -0.003411
siesta: Edftu   =         0.000000
siesta: DEna    =       153.504678
siesta: DUscf   =        81.896131
siesta: DUext   =         0.000000
siesta: Exc     =     -1204.107011
siesta: eta*DQ  =         0.000000
siesta: Emadel  =         0.000000
siesta: Emeta   =         0.000000
siesta: Emolmec =         0.000000
siesta: Ekinion =         0.000000
siesta: Eharris =     -4020.545325
siesta: Etot    =     -4100.388229
siesta: FreeEng =     -4100.389265

        iscf     Eharris(eV)        E_KS(eV)     FreeEng(eV)     dDmax    Ef(eV) dHmax(eV)
   scf:    1    -4020.545325    -4100.388229    -4100.389265  0.965651 -4.903613 22.261479
     spin moment: S , {S} =    2.00583   0.00000  -0.00000   2.00583
timer: Routine,Calls,Time,% = IterSCF        1      11.390  30.83
   scf:    2    -4145.229564    -4135.310747    -4135.311925  0.453642 -4.163425 12.134125
     spin moment: S , {S} =    1.99408  -0.00000  -0.00000   1.99408
   scf:    3    -4090.794623    -4128.693139    -4128.725829  0.427958 -4.316062 14.729954
     spin moment: S , {S} =    2.59902   0.00000  -0.00000   2.59902
   scf:    4    -4150.870946    -4144.847094    -4144.847095  0.326599 -3.853267  7.312710
     spin moment: S , {S} =    0.00010   0.00000   0.00000   0.00010
   scf:    5    -4146.336018    -4145.715084    -4145.715084  0.039720 -3.590595  4.907810
     spin moment: S , {S} =    0.00006   0.00000  -0.00000   0.00006
   scf:    6    -4146.487522    -4146.106696    -4146.106696  0.024766 -3.487344  2.533151
     spin moment: S , {S} =    0.00003  -0.00000  -0.00000   0.00003
   scf:    7    -4146.488824    -4146.294375    -4146.294375  0.023034 -3.703527  0.913728
     spin moment: S , {S} =    0.00001  -0.00000   0.00000   0.00001
   scf:    8    -4146.406253    -4146.348920    -4146.348920  0.012233 -3.641594  0.570574
     spin moment: S , {S} =    0.00000   0.00000  -0.00000   0.00000
   scf:    9    -4146.391248    -4146.369379    -4146.369379  0.007365 -3.596518  0.468684
     spin moment: S , {S} =    0.00000   0.00000  -0.00000   0.00000
   scf:   10    -4146.425372    -4146.388213    -4146.388213  0.025293 -3.698318  0.291499
     spin moment: S , {S} =    0.00000   0.00000  -0.00000  -0.00000
   scf:   11    -4146.393240    -4146.390801    -4146.390801  0.005996 -3.684871  0.096131
     spin moment: S , {S} =    0.00000   0.00000  -0.00000  -0.00000
   scf:   12    -4146.393675    -4146.392247    -4146.392247  0.001811 -3.678151  0.043093
     spin moment: S , {S} =    0.00000   0.00000  -0.00000  -0.00000
   scf:   13    -4146.393147    -4146.392693    -4146.392693  0.000967 -3.674910  0.027786
     spin moment: S , {S} =    0.00000   0.00000  -0.00000  -0.00000
   scf:   14    -4146.393214    -4146.392942    -4146.392942  0.000927 -3.673233  0.016821
     spin moment: S , {S} =    0.00000   0.00000  -0.00000  -0.00000
   scf:   15    -4146.393161    -4146.393045    -4146.393045  0.000619 -3.672482  0.009829
     spin moment: S , {S} =    0.00000   0.00000  -0.00000  -0.00000
   scf:   16    -4146.393129    -4146.393084    -4146.393084  0.000426 -3.672852  0.004489
     spin moment: S , {S} =    0.00000   0.00000  -0.00000  -0.00000
   scf:   17    -4146.393110    -4146.393096    -4146.393096  0.000274 -3.673191  0.002864
     spin moment: S , {S} =    0.00000   0.00000  -0.00000   0.00000
   scf:   18    -4146.393103    -4146.393099    -4146.393099  0.000143 -3.673074  0.001846
     spin moment: S , {S} =    0.00000   0.00000  -0.00000   0.00000
   scf:   19    -4146.393102    -4146.393100    -4146.393100  0.000114 -3.672988  0.001224
     spin moment: S , {S} =    0.00000   0.00000  -0.00000   0.00000
   scf:   20    -4146.393101    -4146.393101    -4146.393101  0.000060 -3.673036  0.000914
     spin moment: S , {S} =    0.00000   0.00000  -0.00000   0.00000
   scf:   21    -4146.393102    -4146.393101    -4146.393101  0.000068 -3.673066  0.000608
     spin moment: S , {S} =    0.00000   0.00000  -0.00000   0.00000
   scf:   22    -4146.393102    -4146.393101    -4146.393101  0.000060 -3.673045  0.000327
     spin moment: S , {S} =    0.00000   0.00000  -0.00000   0.00000
   scf:   23    -4146.393101    -4146.393101    -4146.393101  0.000041 -3.673028  0.000208
     spin moment: S , {S} =    0.00000   0.00000  -0.00000   0.00000
   scf:   24    -4146.393101    -4146.393101    -4146.393101  0.000016 -3.673026  0.000128
     spin moment: S , {S} =    0.00000  -0.00000  -0.00000   0.00000
mix: Pulay -- resetting history
   scf:   25    -4146.393101    -4146.393101    -4146.393101  0.000015 -3.673025  0.000082
     spin moment: S , {S} =    0.00000  -0.00000  -0.00000   0.00000
   scf:   26    -4146.393101    -4146.393101    -4146.393101  0.000010 -3.673025  0.000049
     spin moment: S , {S} =    0.00000  -0.00000  -0.00000   0.00000
   scf:   27    -4146.393101    -4146.393101    -4146.393101  0.000009 -3.673024  0.000019
     spin moment: S , {S} =    0.00000   0.00000  -0.00000   0.00000
   scf:   28    -4146.393101    -4146.393101    -4146.393101  0.000004 -3.673023  0.000011
     spin moment: S , {S} =    0.00000   0.00000  -0.00000   0.00000
   scf:   29    -4146.393101    -4146.393101    -4146.393101  0.000001 -3.673023  0.000007
     spin moment: S , {S} =    0.00000  -0.00000  -0.00000   0.00000
   scf:   30    -4146.393101    -4146.393101    -4146.393101  0.000001 -3.673024  0.000003
     spin moment: S , {S} =    0.00000  -0.00000  -0.00000   0.00000
   scf:   31    -4146.393101    -4146.393101    -4146.393101  0.000000 -3.673024  0.000002
     spin moment: S , {S} =    0.00000  -0.00000  -0.00000   0.00000
   scf:   32    -4146.393101    -4146.393101    -4146.393101  0.000000 -3.673024  0.000001
     spin moment: S , {S} =    0.00000  -0.00000  -0.00000   0.00000
   scf:   33    -4146.393101    -4146.393101    -4146.393101  0.000000 -3.673024  0.000001
     spin moment: S , {S} =    0.00000  -0.00000  -0.00000   0.00000

SCF Convergence by DM+H criterion
max |DM_out - DM_in|         :     0.0000000861
max |H_out - H_in|      (eV) :     0.0000006899
SCF cycle converged after 33 iterations

Using DM_out to compute the final energy and forces
No. of atoms with KB's overlaping orbs in proc 0. Max # of overlaps:      26     142

siesta: E_KS(eV) =            -4146.3931

siesta: E_KS - E_eggbox =     -4146.3931
     spin moment: S , {S} =    0.00000  -0.00000  -0.00000   0.00000

siesta: Atomic forces (eV/Ang):
     1    0.023663   -0.066554    0.000000
     2   -0.542436    0.297952   -0.000000
     3    0.427747   -0.031310    0.000000
     4   -0.206654   -0.024751   -0.000000
     5   -0.211253   -0.215858   -0.000000
     6    0.102299    0.133943    0.000000
     7    1.202851    1.026450   -0.000000
     8    0.775456   -2.324794    0.000000
     9   -1.270427    1.746619   -0.000000
    10    0.026296   -0.292860    0.000000
    11   -1.033856   -0.323338    0.000000
    12    1.241408   -0.235477   -0.000000
    13    0.993245   -2.217703    0.000000
    14   -0.014553   -0.034280    0.000000
    15    0.116036    0.034195    0.000000
    16    0.013029   -0.020479    0.000000
    17   -0.001732    0.047709    0.000000
    18   -0.039324    0.048611   -0.000000
    19    0.261160    0.025688    0.000000
    20   -1.380606   -0.185861    0.000000
    21    1.261167   -3.867710   -0.000000
    22    0.355851    0.780767    0.000000
    23    0.209725   -0.597146   -0.000000
    24   -0.335307   -0.981157   -0.000000
    25   -0.478471    1.567809    0.000000
    26    0.847063   -1.209722    0.000000
    27   -0.140532    0.100137    0.000000
    28    0.047576    0.725614    0.000000
    29   -0.316413   -0.419382    0.000000
----------------------------------------
   Tot    1.933012   -6.512887   -0.000000
----------------------------------------
   Max    3.867710
   Res    0.751730    sqrt( Sum f_i^2 / 3N )
----------------------------------------
   Max    3.867710    constrained

Stress tensor Voigt[x,y,z,yz,xz,xy] (kbar):        0.50        0.12       -0.05       -0.00       -0.00       -0.49
(Free)E + p*V (eV/cell)    -4148.0091
Target enthalpy (eV/cell)    -4146.3931

siesta: Stress tensor (static) (eV/Ang**3):
         0.000312   -0.000307   -0.000000
        -0.000307    0.000076    0.000000
        -0.000000   -0.000000   -0.000029

siesta: Pressure (static):         -0.19178880  kBar

siesta: Stress tensor (total) (eV/Ang**3):
         0.000312   -0.000307   -0.000000
        -0.000307    0.000076    0.000000
        -0.000000   -0.000000   -0.000029

siesta: Pressure (total):         -0.19178880  kBar

siesta: Temp_ion =       0.000 K

siesta: Eigenvalues (eV):
ik =     1
  -21.7959  -21.7959  -21.7183  -21.7183  -21.5197  -21.5197  -21.4420  -21.4420  -21.1193  -21.1193
  -20.9550  -20.9550  -20.7438  -20.7438  -19.7173  -19.7173  -19.3011  -19.3011  -19.2412  -19.2412
  -14.6822  -14.6822  -13.7893  -13.7893  -13.2650  -13.2650  -13.0863  -13.0863  -12.9572  -12.9572
  -12.8074  -12.8074  -12.7874  -12.7874  -12.3824  -12.3824  -12.3557  -12.3557  -11.9631  -11.9631
  -11.3330  -11.3330  -10.7372  -10.7372  -10.6550  -10.6550  -10.6346  -10.6346  -10.0076  -10.0076
   -9.4834   -9.4834   -9.1619   -9.1619   -8.7347   -8.7347   -8.6085   -8.6085   -8.5813   -8.5813
   -8.5431   -8.5431   -8.3276   -8.3276   -8.0753   -8.0753   -7.7709   -7.7709   -7.5083   -7.5083
   -7.4959   -7.4959   -7.2277   -7.2277   -7.1591   -7.1591   -6.7885   -6.7885   -6.6642   -6.6642
   -6.3994   -6.3994   -6.3988   -6.3988   -6.0155   -6.0155   -5.9950   -5.9950   -5.9776   -5.9776
   -5.6253   -5.6253   -5.4776   -5.4776   -5.3797   -5.3797   -4.1880   -4.1880   -3.1583   -3.1583
   -2.2327   -2.2327   -2.1962   -2.1962   -2.1798   -2.1798   -1.8076   -1.8076   -1.7776   -1.7776
   -1.7376   -1.7376   -1.7145   -1.7145   -1.5194   -1.5194   -1.4634   -1.4634   -0.8912   -0.8912
   -0.8213   -0.8213   -0.6964   -0.6964   -0.2989   -0.2989   -0.0785   -0.0785    0.0965    0.0965
    0.4129    0.4129    0.5241    0.5241    0.6644    0.6644    0.7759    0.7759    0.8908    0.8908
    1.0197    1.0197    1.3421    1.3421    1.3920    1.3920    1.4871    1.4871    1.5030    1.5030
    1.8302    1.8302    1.8923    1.8923    1.9808    1.9808    2.4197    2.4197    2.8397    2.8397
    2.8515    2.8515    2.8833    2.8833    3.0883    3.0883    3.2224    3.2224    3.4044    3.4044
    3.4923    3.4923    3.8366    3.8366    3.9252    3.9252    4.1707    4.1707    4.3596    4.3596
    4.5045    4.5045    4.5162    4.5162    4.6545    4.6545    4.6995    4.6995    4.9022    4.9022
    5.0021    5.0021    5.0685    5.0685    5.3440    5.3440    5.5815    5.5815    5.7866    5.7866
    5.8488    5.8488    5.8672    5.8672    5.9648    5.9648    5.9927    5.9927    6.0906    6.0906
    6.2515    6.2515    6.4702    6.4702    6.7075    6.7075    6.7926    6.7926    6.9122    6.9122
    7.1123    7.1123    7.2821    7.2821    7.5304    7.5304    7.6188    7.6188    7.8634    7.8634
    7.8854    7.8854    8.0294    8.0294    8.1733    8.1733    8.3684    8.3684    8.3693    8.3693
    8.5960    8.5960    8.8212    8.8212    8.9604    8.9604    8.9865    8.9865    9.2535    9.2535
    9.2969    9.2969    9.3005    9.3005    9.8144    9.8144    9.9072    9.9072    9.9448    9.9448
   10.1630   10.1630   10.2428   10.2428   10.5512   10.5512   10.8416   10.8416   10.8561   10.8561
   11.0470   11.0470   11.0760   11.0760   11.2609   11.2609   11.7346   11.7346   11.8189   11.8189
   11.9307   11.9307   11.9439   11.9439   12.1580   12.1580   12.4680   12.4680   12.7960   12.7960
   12.8084   12.8084   12.9038   12.9038   13.3729   13.3729   13.5409   13.5409   13.7376   13.7376
   13.8809   13.8809   14.1871   14.1871   14.3665   14.3665   14.7175   14.7175   14.8508   14.8508
   14.9529   14.9529   15.4272   15.4272   16.1115   16.1115   16.5609   16.5609   16.7783   16.7783
   17.0218   17.0218   17.3992   17.3992   17.6784   17.6784   18.2637   18.2637   18.5111   18.5111
   18.7147   18.7147   19.2867   19.2867   19.4623   19.4623   19.9873   19.9873   20.3493   20.3493
   21.0458   21.0458   21.3218   21.3218   22.0381   22.0381   22.3222   22.3222   22.4303   22.4303
   22.9650   22.9650   23.3247   23.3247   23.7919   23.7919   23.9297   23.9297   23.9490   23.9490
   24.9119   24.9119   25.4356   25.4356   26.0614   26.0614   26.8006   26.8006   27.4504   27.4504
   28.2505   28.2505   29.0386   29.0386   29.2296   29.2296   29.4803   29.4803   29.7116   29.7116
   30.0555   30.0555   30.1729   30.1729   30.2742   30.2742   30.7933   30.7933   30.9287   30.9287
   31.1210   31.1210   31.2894   31.2894   31.5939   31.5939   31.7087   31.7087   32.1956   32.1956
   32.6392   32.6392   33.8959   33.8959   34.7148   34.7148   34.7408   34.7408   35.0203   35.0203
   35.1435   35.1435   35.1687   35.1687   35.6186   35.6186   35.7136   35.7136   36.0057   36.0057
   36.8303   36.8303   36.9120   36.9120   37.0975   37.0975   37.3464   37.3464   37.5959   37.5959
   38.2944   38.2944   38.4285   38.4285   39.4293   39.4293   39.4631   39.4631   39.8012   39.8012
   40.5200   40.5200   40.5897   40.5897   40.6520   40.6520   40.7118   40.7118   41.0097   41.0097
   41.0159   41.0159   41.3544   41.3544   42.5476   42.5476   42.9252   42.9252   42.9660   42.9660
   43.4262   43.4262   43.8592   43.8592   43.9835   43.9835   44.0864   44.0864   44.4020   44.4020
   44.7550   44.7550   44.7923   44.7923   45.1327   45.1327   45.4949   45.4949   46.1455   46.1455
   46.2911   46.2911   47.0844   47.0844   47.4295   47.4295   48.9785   48.9785   49.0721   49.0721
   49.5272   49.5272   50.4180   50.4180   50.5350   50.5350   51.0673   51.0673   51.1444   51.1444
   51.7239   51.7239   51.7363   51.7363   52.7394   52.7394   52.8110   52.8110   54.3731   54.3731
   54.3820   54.3820   54.5447   54.5447   54.6194   54.6194   55.7729   55.7729   55.7903   55.7903
   55.8533   55.8533   56.0484   56.0484   56.4726   56.4726   58.0646   58.0646   58.4258   58.4258
   58.6942   58.6942   60.2083   60.2083   60.3502   60.3502   60.4873   60.4873   61.1300   61.1300
   61.9215   61.9215   62.0186   62.0186   62.2085   62.2085   64.8230   64.8230   66.6295   66.6295
   66.8577   66.8577   67.2320   67.2320   68.1186   68.1186   68.5523   68.5523   70.9540   70.9540
   73.8472   73.8472   80.2358   80.2358   91.1499   91.1499   92.1207   92.1207   93.3108   93.3108
   98.3478   98.3478   98.5334   98.5334   99.5322   99.5322  103.1008  103.1008  103.6904  103.6904
  110.1334  110.1334  111.5994  111.5994  124.1200  124.1200  126.3163  126.3163  129.1972  129.1972
  135.1726  135.1726  138.2926  138.2926
siesta: Fermi energy =      -3.673024 eV

siesta: Program's energy decomposition (eV):
siesta: Ebs     =     -1125.168382
siesta: Eions   =      3585.165840
siesta: Ena     =       381.828398
siesta: Ekin    =      2902.848409
siesta: Enl     =     -2787.435266
siesta: Eso     =        -0.004278
siesta: Edftu   =         0.000000
siesta: DEna    =        46.872153
siesta: DUscf   =        14.348236
siesta: DUext   =         0.000000
siesta: Exc     =     -1119.684914
siesta: eta*DQ  =         0.000000
siesta: Emadel  =         0.000000
siesta: Emeta   =         0.000000
siesta: Emolmec =         0.000000
siesta: Ekinion =         0.000000
siesta: Eharris =     -4146.393101
siesta: Etot    =     -4146.393101
siesta: FreeEng =     -4146.393101

siesta: Final energy (eV):
siesta:  Band Struct. =   -1125.168382
siesta:       Kinetic =    2902.848409
siesta:       Hartree =   13235.722638
siesta:       Edftu   =       0.000000
siesta:       Eso     =      -0.004278
siesta:    Ext. field =       0.000000
siesta:   Exch.-corr. =   -1119.684914
siesta:  Ion-electron =  -29045.994494
siesta:       Ion-ion =    9880.719537
siesta:       Ekinion =       0.000000
siesta:         Total =   -4146.393101
siesta:         Fermi =      -3.673024

siesta: Atomic forces (eV/Ang):
siesta:      1    0.023663   -0.066554    0.000000
siesta:      2   -0.542436    0.297952   -0.000000
siesta:      3    0.427747   -0.031310    0.000000
siesta:      4   -0.206654   -0.024751   -0.000000
siesta:      5   -0.211253   -0.215858   -0.000000
siesta:      6    0.102299    0.133943    0.000000
siesta:      7    1.202851    1.026450   -0.000000
siesta:      8    0.775456   -2.324794    0.000000
siesta:      9   -1.270427    1.746619   -0.000000
siesta:     10    0.026296   -0.292860    0.000000
siesta:     11   -1.033856   -0.323338    0.000000
siesta:     12    1.241408   -0.235477   -0.000000
siesta:     13    0.993245   -2.217703    0.000000
siesta:     14   -0.014553   -0.034280    0.000000
siesta:     15    0.116036    0.034195    0.000000
siesta:     16    0.013029   -0.020479    0.000000
siesta:     17   -0.001732    0.047709    0.000000
siesta:     18   -0.039324    0.048611   -0.000000
siesta:     19    0.261160    0.025688    0.000000
siesta:     20   -1.380606   -0.185861    0.000000
siesta:     21    1.261167   -3.867710   -0.000000
siesta:     22    0.355851    0.780767    0.000000
siesta:     23    0.209725   -0.597146   -0.000000
siesta:     24   -0.335307   -0.981157   -0.000000
siesta:     25   -0.478471    1.567809    0.000000
siesta:     26    0.847063   -1.209722    0.000000
siesta:     27   -0.140532    0.100137    0.000000
siesta:     28    0.047576    0.725614    0.000000
siesta:     29   -0.316413   -0.419382    0.000000
siesta: ----------------------------------------
siesta:    Tot    1.933012   -6.512887   -0.000000

siesta: Stress tensor (static) (eV/Ang**3):
siesta:     0.000312   -0.000307   -0.000000
siesta:    -0.000307    0.000076    0.000000
siesta:    -0.000000   -0.000000   -0.000029

siesta: Cell volume =      13500.000000 Ang**3

siesta: Pressure (static):
siesta:                Solid            Molecule  Units
siesta:          -0.00000130         -0.00000007  Ry/Bohr**3
siesta:          -0.00011970         -0.00000622  eV/Ang**3
siesta:          -0.19178880         -0.00997212  kBar
(Free)E+ p_basis*V_orbitals  =       -4126.542684
(Free)Eharris+ p_basis*V_orbitals  =       -4126.542684
     spin moment: S , {S} =    0.00000  -0.00000  -0.00000   0.00000

siesta: Electric dipole (a.u.)  =    0.036104    1.457609    0.000000
siesta: Electric dipole (Debye) =    0.091767    3.704875    0.000000

cite: Please see "GC.bib" for an exhaustive BiBTeX file.
cite: Please clearly indicate Siesta version in published work: v4.1.5-1-g384057250
cite: This calculation has made use of the following articles
cite: which are encouraged to be cited in a published work.
        Primary SIESTA paper
          DOI: www.doi.org/10.1088/0953-8984/14/11/302
        Spin-orbit coupling (on-site approximation)
          DOI: www.doi.org/10.1088/0953-8984/19/19/489001


WARNING: alloc-realloc-dealloc name mismatch
         Name: atomlist isa
         Size:              -116. Bytes
         Node:     0
         Subsequent mismatches will not be reported
>> End of run:   1-FEB-2024  23:16:17
Job completed
