Siesta Version  : v4.1.5-1-g384057250
Architecture    : gcc
Compiler version: GNU Fortran (Ubuntu 11.3.0-1ubuntu1~22.04) 11.3.0
Compiler flags  : mpifort -O2 -fPIC -ftree-vectorize -fallow-argument-mismatch
PP flags        : -DFC_HAVE_ABORT -DMPI -DSIESTA__FLOOK -DSIESTA__METIS -DSIESTA__MUMPS -DCDF -DNCDF -DNCDF_4 -DNCDF_PARALLEL -DSIESTA__MRRR -DSIESTA__ELPA
Libraries       : libncdf.a libfdict.a  -lflookall -ldl -lnetcdff -lnetcdf -lhdf5_hl -lhdf5 -lhdf5_fortran -lz -lscalapack-openmpi -lopenblas -lmetis -lzmumps -lcmumps -ldmumps -lmumps_common -lpord -lsmumps -lesmumps -lscotch -lscotcherr -fopenmp -lelpa
PARALLEL version
NetCDF support
NetCDF-4 support
NetCDF-4 MPI-IO support
METIS ordering support
Lua support

* Running on 4 nodes in parallel
>> Start of run:   4-JUL-2023   8:54:20

                           ***********************       
                           *  WELCOME TO SIESTA  *       
                           ***********************       

reinit: Reading from standard input
reinit: Dumped input in INPUT_TMP.87086
************************** Dump of input data file ****************************
SystemLabel      GC
NumberOfAtoms    29
NumberOfSpecies  4
%block ChemicalSpeciesLabel
    1    8  O
    2    7  N
    3   14  Si
    4    1  H
%endblock ChemicalSpeciesLabel
# Single point calculation
MD.TypeOfRun                CG
MD.Steps                    0
SCF.MustConverge            F # In case it does not. There can be 2 very close atoms
AtomicCoordinatesFormat NotScaledCartesianAng
%block AtomicCoordinatesAndAtomicSpecies
0.958671510    3.803529300    0.000000000       1
-3.038688210   0.998073330    0.000000000       2
2.066567750    1.099065770    0.000000000       2
1.029569860    -1.834680850   0.000000000       2
-2.108567660   -1.881798240   0.000000000       2
3.912411070    -1.180894430   0.000000000       2
-1.235636790   1.044983000    0.000000000       3
-0.501909240   -1.031832280   0.000000000       3
0.629463280    2.232755840    0.000000000       3
2.280054370    -0.658293540   0.000000000       3
-3.424812990   -0.662324160   0.000000000       3
2.965974160    1.682263990    0.000000000       4
-4.796229390   -1.238728480   0.000000000       4
4.096559410    -2.214148760   0.000000000       4
4.792108680    -0.529147250   0.000000000       4
-2.266861300   -2.922393730   0.000000000       4
4.299603385    4.635866107    0.000000000       3
6.225081135    5.827495437    0.000000000       3
5.760274745    1.901311737    0.000000000       3
7.831454665    4.348358327    0.000000000       3
4.401887925    2.926511417    0.000000000       2
2.720225295    5.306095597    0.000000000       2
7.413344645    2.616475417    0.000000000       2
6.533571955    7.292156797    0.000000000       4
9.323127575    4.548337787    0.000000000       4
2.535598855    6.340969327    0.000000000       4
1.828133505    4.634806867    0.000000000       4
5.750144145    0.303083217    0.000000000       1
8.189943025    1.894645217    0.000000000       4
%endblock AtomicCoordinatesAndAtomicSpecies
%include ../../../Defaults.fdf
************************** End of input data file *****************************

reinit: -----------------------------------------------------------------------
reinit: System Name: 
reinit: -----------------------------------------------------------------------
reinit: System Label: GC
reinit: -----------------------------------------------------------------------

initatom: Reading input for the pseudopotentials and atomic orbitals ----------
Species number:   1 Atomic number:    8 Label: O
Species number:   2 Atomic number:    7 Label: N
Species number:   3 Atomic number:   14 Label: Si
Species number:   4 Atomic number:    1 Label: H

Ground state valence configuration:   2s02  2p04
Reading pseudopotential information in formatted form from O.psf

Pseudopotential generated from a relativistic atomic calculation

Valence configuration for pseudopotential generation:
2s( 2.00) rc: 0.45
2p( 4.00) rc: 0.92
3d( 0.00) rc: 2.24
4f( 0.00) rc: 0.25
Ground state valence configuration:   2s02  2p03
Reading pseudopotential information in formatted form from N.psf

Pseudopotential generated from a relativistic atomic calculation

Valence configuration for pseudopotential generation:
2s( 2.00) rc: 0.94
2p( 3.00) rc: 0.59
3d( 0.00) rc: 3.46
4f( 0.00) rc: 2.47
Ground state valence configuration:   3s02  3p02
Reading pseudopotential information in formatted form from Si.psf

Pseudopotential generated from a relativistic atomic calculation

Valence configuration for pseudopotential generation:
3s( 2.00) rc: 1.67
3p( 2.00) rc: 2.04
3d( 0.00) rc: 2.89
4f( 0.00) rc: 2.49
Ground state valence configuration:   1s01
Reading pseudopotential information in formatted form from H.psf

Pseudopotential generated from a relativistic atomic calculation

Valence configuration for pseudopotential generation:
1s( 1.00) rc: 0.01
2p( 0.00) rc: 0.60
3d( 0.00) rc: 1.99
4f( 0.00) rc: 2.49
For O, standard SIESTA heuristics set lmxkb to 3
 (one more than the basis l, including polarization orbitals).
Use PS.lmax or PS.KBprojectors blocks to override.
For N, standard SIESTA heuristics set lmxkb to 3
 (one more than the basis l, including polarization orbitals).
Use PS.lmax or PS.KBprojectors blocks to override.
For Si, standard SIESTA heuristics set lmxkb to 3
 (one more than the basis l, including polarization orbitals).
Use PS.lmax or PS.KBprojectors blocks to override.
For H, standard SIESTA heuristics set lmxkb to 2
 (one more than the basis l, including polarization orbitals).
Use PS.lmax or PS.KBprojectors blocks to override.

<basis_specs>
===============================================================================
O                    Z=   8    Mass=  16.000        Charge= 0.17977+309
Lmxo=1 Lmxkb= 3    BasisType=split      Semic=F
L=0  Nsemic=0  Cnfigmx=2
          i=1  nzeta=2  polorb=0  (2s)
            splnorm:   0.28000    
               vcte:    0.0000    
               rinn:    0.0000    
               qcoe:    0.0000    
               qyuk:    0.0000    
               qwid:   0.10000E-01
                rcs:    0.0000      0.0000    
            lambdas:    1.0000      1.0000    
L=1  Nsemic=0  Cnfigmx=2
          i=1  nzeta=2  polorb=1  (2p)
            splnorm:   0.28000    
               vcte:    0.0000    
               rinn:    0.0000    
               qcoe:    0.0000    
               qyuk:    0.0000    
               qwid:   0.10000E-01
                rcs:    0.0000      0.0000    
            lambdas:    1.0000      1.0000    
-------------------------------------------------------------------------------
L=0  Nkbl=1  erefs: 0.17977+309
L=1  Nkbl=1  erefs: 0.17977+309
L=2  Nkbl=1  erefs: 0.17977+309
L=3  Nkbl=1  erefs: 0.17977+309
===============================================================================
</basis_specs>

atom: Called for O                     (Z =   8)

read_vps: Pseudopotential generation method:
read_vps: ATM4.2.7  Troullier-Martins                       
Valence charge for ps generation:    6.00000

xc_check: Exchange-correlation functional:
xc_check: GGA Perdew, Burke & Ernzerhof 1996
V l=0 = -2*Zval/r beyond r=  1.1000
V l=1 = -2*Zval/r beyond r=  1.1000
V l=2 = -2*Zval/r beyond r=  2.2154
V l=3 = -2*Zval/r beyond r=  1.1000
All V_l potentials equal beyond r=  2.2154
This should be close to max(r_c) in ps generation
All pots = -2*Zval/r beyond r=  2.2154

VLOCAL1: 99.0% of the norm of Vloc inside      8.845 Ry
VLOCAL1: 99.9% of the norm of Vloc inside     20.157 Ry
atom: Maximum radius for 4*pi*r*r*local-pseudopot. charge    2.67231
atom: Maximum radius for r*vlocal+2*Zval:    2.32897
GHOST: No ghost state for L =  0
GHOST: No ghost state for L =  1
GHOST: No ghost state for L =  2
GHOST: No ghost state for L =  3

KBgen: Kleinman-Bylander projectors: 
   l= 0   rc=  2.243238   el= -1.759686   Ekb=**********   kbcos= -0.171774
   l= 1   rc=  2.328968   el= -0.663873   Ekb=-14.506792   kbcos= -0.519897
   l= 2   rc=  2.573941   el=  0.002031   Ekb= -1.137373   kbcos= -0.019581
   l= 3   rc=  2.606321   el=  0.003153   Ekb= -1.013546   kbcos= -0.003122

KBgen: Total number of Kleinman-Bylander projectors:   16
atom: -------------------------------------------------------------------------

atom: SANKEY-TYPE ORBITALS:
atom: Selected multiple-zeta basis: split     

SPLIT: Orbitals with angular momentum L= 0

SPLIT: Basis orbitals for state 2s

SPLIT: PAO cut-off radius determined from an
SPLIT: energy shift=  0.002000 Ry

   izeta = 1
                 lambda =    1.000000
                     rc =    4.243912
                 energy =   -1.758270
                kinetic =    3.286084
    potential(screened) =   -5.044353
       potential(ionic) =  -12.921184

   izeta = 2
                 rmatch =    2.187845
              splitnorm =    0.280000
                 energy =   -0.885018
                kinetic =    8.134434
    potential(screened) =   -9.019452
       potential(ionic) =  -17.710645

SPLIT: Orbitals with angular momentum L= 1

SPLIT: Basis orbitals for state 2p

SPLIT: PAO cut-off radius determined from an
SPLIT: energy shift=  0.002000 Ry

   izeta = 1
                 lambda =    1.000000
                     rc =    5.314825
                 energy =   -0.661986
                kinetic =    4.917472
    potential(screened) =   -5.579458
       potential(ionic) =  -13.236259

   izeta = 2
                 rmatch =    2.160663
              splitnorm =    0.280000
                 energy =   -0.068760
                kinetic =    9.183374
    potential(screened) =   -9.252135
       potential(ionic) =  -18.274251

POLgen: Perturbative polarization orbital with L=  2

POLgen: Polarization orbital for state 2p

   izeta = 1
                     rc =    5.314825
                 energy =    1.970580
                kinetic =    3.886128
    potential(screened) =   -1.915547
       potential(ionic) =   -7.749584
atom: Total number of Sankey-type orbitals: 13

atm_pop: Valence configuration (for local Pseudopot. screening):
 2s( 2.00)                                                            
 2p( 4.00)                                                            
Vna: chval, zval:    6.00000   6.00000

Vna:  Cut-off radius for the neutral-atom potential:   5.314825

atom: _________________________________________________________________________

<basis_specs>
===============================================================================
N                    Z=   7    Mass=  14.010        Charge= 0.17977+309
Lmxo=1 Lmxkb= 3    BasisType=split      Semic=F
L=0  Nsemic=0  Cnfigmx=2
          i=1  nzeta=2  polorb=0  (2s)
            splnorm:   0.28000    
               vcte:    0.0000    
               rinn:    0.0000    
               qcoe:    0.0000    
               qyuk:    0.0000    
               qwid:   0.10000E-01
                rcs:    0.0000      0.0000    
            lambdas:    1.0000      1.0000    
L=1  Nsemic=0  Cnfigmx=2
          i=1  nzeta=2  polorb=1  (2p)
            splnorm:   0.28000    
               vcte:    0.0000    
               rinn:    0.0000    
               qcoe:    0.0000    
               qyuk:    0.0000    
               qwid:   0.10000E-01
                rcs:    0.0000      0.0000    
            lambdas:    1.0000      1.0000    
-------------------------------------------------------------------------------
L=0  Nkbl=1  erefs: 0.17977+309
L=1  Nkbl=1  erefs: 0.17977+309
L=2  Nkbl=1  erefs: 0.17977+309
L=3  Nkbl=1  erefs: 0.17977+309
===============================================================================
</basis_specs>

atom: Called for N                     (Z =   7)

read_vps: Pseudopotential generation method:
read_vps: ATM4.2.7  Troullier-Martins                       
Valence charge for ps generation:    5.00000

xc_check: Exchange-correlation functional:
xc_check: GGA Perdew, Burke & Ernzerhof 1996
V l=0 = -2*Zval/r beyond r=  1.2889
V l=1 = -2*Zval/r beyond r=  1.2889
V l=2 = -2*Zval/r beyond r=  3.4178
V l=3 = -2*Zval/r beyond r=  2.4084
All V_l potentials equal beyond r=  3.3753
This should be close to max(r_c) in ps generation
All pots = -2*Zval/r beyond r=  3.4178

VLOCAL1: 99.0% of the norm of Vloc inside      3.810 Ry
VLOCAL1: 99.9% of the norm of Vloc inside      8.683 Ry
atom: Maximum radius for 4*pi*r*r*local-pseudopot. charge    4.02088
atom: Maximum radius for r*vlocal+2*Zval:    3.54838
GHOST: No ghost state for L =  0
GHOST: No ghost state for L =  1
GHOST: No ghost state for L =  2
GHOST: No ghost state for L =  3

KBgen: Kleinman-Bylander projectors: 
   l= 0   rc=  3.417763   el= -1.365098   Ekb= -4.433130   kbcos= -0.707855
   l= 1   rc=  3.375302   el= -0.521201   Ekb=-13.264039   kbcos= -0.535594
   l= 2   rc=  3.872880   el=  0.001991   Ekb= -0.641094   kbcos= -0.062456
   l= 3   rc=  3.970931   el=  0.003093   Ekb= -0.474517   kbcos= -0.018236

KBgen: Total number of Kleinman-Bylander projectors:   16
atom: -------------------------------------------------------------------------

atom: SANKEY-TYPE ORBITALS:
atom: Selected multiple-zeta basis: split     

SPLIT: Orbitals with angular momentum L= 0

SPLIT: Basis orbitals for state 2s

SPLIT: PAO cut-off radius determined from an
SPLIT: energy shift=  0.002000 Ry

   izeta = 1
                 lambda =    1.000000
                     rc =    4.730425
                 energy =   -1.363399
                kinetic =    1.245246
    potential(screened) =   -2.608645
       potential(ionic) =   -8.121105

   izeta = 2
                 rmatch =    2.531849
              splitnorm =    0.280000
                 energy =   -0.959908
                kinetic =    2.409435
    potential(screened) =   -3.369343
       potential(ionic) =   -9.427975

SPLIT: Orbitals with angular momentum L= 1

SPLIT: Basis orbitals for state 2p

SPLIT: PAO cut-off radius determined from an
SPLIT: energy shift=  0.002000 Ry

   izeta = 1
                 lambda =    1.000000
                     rc =    5.924108
                 energy =   -0.519262
                kinetic =    3.672940
    potential(screened) =   -4.192202
       potential(ionic) =   -9.518354

   izeta = 2
                 rmatch =    2.531849
              splitnorm =    0.280000
                 energy =   -0.104258
                kinetic =    6.807538
    potential(screened) =   -6.911796
       potential(ionic) =  -13.149920

POLgen: Perturbative polarization orbital with L=  2

POLgen: Polarization orbital for state 2p

   izeta = 1
                     rc =    5.924108
                 energy =    1.427508
                kinetic =    2.872379
    potential(screened) =   -1.444871
       potential(ionic) =   -5.563644
atom: Total number of Sankey-type orbitals: 13

atm_pop: Valence configuration (for local Pseudopot. screening):
 2s( 2.00)                                                            
 2p( 3.00)                                                            
Vna: chval, zval:    5.00000   5.00000

Vna:  Cut-off radius for the neutral-atom potential:   5.924108

atom: _________________________________________________________________________

<basis_specs>
===============================================================================
Si                   Z=  14    Mass=  28.090        Charge= 0.17977+309
Lmxo=1 Lmxkb= 3    BasisType=split      Semic=F
L=0  Nsemic=0  Cnfigmx=3
          i=1  nzeta=2  polorb=0  (3s)
            splnorm:   0.28000    
               vcte:    0.0000    
               rinn:    0.0000    
               qcoe:    0.0000    
               qyuk:    0.0000    
               qwid:   0.10000E-01
                rcs:    0.0000      0.0000    
            lambdas:    1.0000      1.0000    
L=1  Nsemic=0  Cnfigmx=3
          i=1  nzeta=2  polorb=1  (3p)
            splnorm:   0.28000    
               vcte:    0.0000    
               rinn:    0.0000    
               qcoe:    0.0000    
               qyuk:    0.0000    
               qwid:   0.10000E-01
                rcs:    0.0000      0.0000    
            lambdas:    1.0000      1.0000    
-------------------------------------------------------------------------------
L=0  Nkbl=1  erefs: 0.17977+309
L=1  Nkbl=1  erefs: 0.17977+309
L=2  Nkbl=1  erefs: 0.17977+309
L=3  Nkbl=1  erefs: 0.17977+309
===============================================================================
</basis_specs>

atom: Called for Si                    (Z =  14)

read_vps: Pseudopotential generation method:
read_vps: ATM4.2.7  Troullier-Martins                       
Valence charge for ps generation:    4.00000

xc_check: Exchange-correlation functional:
xc_check: GGA Perdew, Burke & Ernzerhof 1996
V l=0 = -2*Zval/r beyond r=  2.7826
V l=1 = -2*Zval/r beyond r=  2.7826
V l=2 = -2*Zval/r beyond r=  2.9253
V l=3 = -2*Zval/r beyond r=  2.7826
All V_l potentials equal beyond r=  2.8530
This should be close to max(r_c) in ps generation
All pots = -2*Zval/r beyond r=  2.9253

VLOCAL1: 99.0% of the norm of Vloc inside      5.333 Ry
VLOCAL1: 99.9% of the norm of Vloc inside     12.154 Ry
atom: Maximum radius for 4*pi*r*r*local-pseudopot. charge    3.39869
atom: Maximum radius for r*vlocal+2*Zval:    2.96205
GHOST: No ghost state for L =  0
GHOST: No ghost state for L =  1
GHOST: No ghost state for L =  2
GHOST: No ghost state for L =  3

KBgen: Kleinman-Bylander projectors: 
   l= 0   rc=  3.075247   el= -0.794092   Ekb=  5.879390   kbcos=  0.167461
   l= 1   rc=  3.153101   el= -0.300068   Ekb=  2.642817   kbcos=  0.058301
   l= 2   rc=  3.273594   el=  0.001958   Ekb= -1.185135   kbcos= -0.104411
   l= 3   rc=  3.232927   el=  0.003046   Ekb= -0.497174   kbcos= -0.015889

KBgen: Total number of Kleinman-Bylander projectors:   16
atom: -------------------------------------------------------------------------

atom: SANKEY-TYPE ORBITALS:
atom: Selected multiple-zeta basis: split     

SPLIT: Orbitals with angular momentum L= 0

SPLIT: Basis orbitals for state 3s

SPLIT: PAO cut-off radius determined from an
SPLIT: energy shift=  0.002000 Ry

   izeta = 1
                 lambda =    1.000000
                     rc =    6.429618
                 energy =   -0.792283
                kinetic =    0.525293
    potential(screened) =   -1.317576
       potential(ionic) =   -3.744923

   izeta = 2
                 rmatch =    3.998416
              splitnorm =    0.280000
                 energy =   -0.583081
                kinetic =    1.069570
    potential(screened) =   -1.652651
       potential(ionic) =   -4.235185

SPLIT: Orbitals with angular momentum L= 1

SPLIT: Basis orbitals for state 3p

SPLIT: PAO cut-off radius determined from an
SPLIT: energy shift=  0.002000 Ry

   izeta = 1
                 lambda =    1.000000
                     rc =    8.464845
                 energy =   -0.298236
                kinetic =    0.785360
    potential(screened) =   -1.083596
       potential(ionic) =   -3.273779

   izeta = 2
                 rmatch =    4.587816
              splitnorm =    0.280000
                 energy =   -0.131871
                kinetic =    1.403687
    potential(screened) =   -1.535557
       potential(ionic) =   -4.015310

POLgen: Perturbative polarization orbital with L=  2

POLgen: Polarization orbital for state 3p

   izeta = 1
                     rc =    8.464845
                 energy =    0.321949
                kinetic =    1.055677
    potential(screened) =   -0.733728
       potential(ionic) =   -2.672950
atom: Total number of Sankey-type orbitals: 13

atm_pop: Valence configuration (for local Pseudopot. screening):
 3s( 2.00)                                                            
 3p( 2.00)                                                            
Vna: chval, zval:    4.00000   4.00000

Vna:  Cut-off radius for the neutral-atom potential:   8.464845

atom: _________________________________________________________________________

<basis_specs>
===============================================================================
H                    Z=   1    Mass=  1.0100        Charge= 0.17977+309
Lmxo=0 Lmxkb= 2    BasisType=split      Semic=F
L=0  Nsemic=0  Cnfigmx=1
          i=1  nzeta=2  polorb=1  (1s)
            splnorm:   0.62000    
               vcte:    0.0000    
               rinn:    0.0000    
               qcoe:    0.0000    
               qyuk:    0.0000    
               qwid:   0.10000E-01
                rcs:    0.0000      0.0000    
            lambdas:    1.0000      1.0000    
-------------------------------------------------------------------------------
L=0  Nkbl=1  erefs: 0.17977+309
L=1  Nkbl=1  erefs: 0.17977+309
L=2  Nkbl=1  erefs: 0.17977+309
===============================================================================
</basis_specs>

atom: Called for H                     (Z =   1)

read_vps: Pseudopotential generation method:
read_vps: ATM4.2.7  Troullier-Martins                       
Valence charge for ps generation:    1.00000

xc_check: Exchange-correlation functional:
xc_check: GGA Perdew, Burke & Ernzerhof 1996
V l=0 = -2*Zval/r beyond r=  0.0098
V l=1 = -2*Zval/r beyond r=  0.5817
V l=2 = -2*Zval/r beyond r=  1.9372
All V_l potentials equal beyond r=  1.9372
This should be close to max(r_c) in ps generation
All pots = -2*Zval/r beyond r=  1.9372

VLOCAL1: 99.0% of the norm of Vloc inside     11.567 Ry
VLOCAL1: 99.9% of the norm of Vloc inside     26.362 Ry
atom: Maximum radius for 4*pi*r*r*local-pseudopot. charge    2.25106
atom: Maximum radius for r*vlocal+2*Zval:    1.91306
GHOST: No ghost state for L =  0
GHOST: No ghost state for L =  1
GHOST: No ghost state for L =  2

KBgen: Kleinman-Bylander projectors: 
   l= 0   rc=  2.036604   el= -0.477180   Ekb= -6.081590   kbcos= -0.277285
   l= 1   rc=  2.195416   el=  0.001076   Ekb= -0.926943   kbcos= -0.034643
   l= 2   rc=  2.251056   el=  0.002010   Ekb= -0.130941   kbcos= -0.009788

KBgen: Total number of Kleinman-Bylander projectors:    9
atom: -------------------------------------------------------------------------

atom: SANKEY-TYPE ORBITALS:
atom: Selected multiple-zeta basis: split     

SPLIT: Orbitals with angular momentum L= 0

SPLIT: Basis orbitals for state 1s

SPLIT: PAO cut-off radius determined from an
SPLIT: energy shift=  0.002000 Ry

   izeta = 1
                 lambda =    1.000000
                     rc =    6.518340
                 energy =   -0.475305
                kinetic =    0.912139
    potential(screened) =   -1.387444
       potential(ionic) =   -1.907295

   izeta = 2
                 rmatch =    2.141150
              splitnorm =    0.620000
                 energy =    0.566467
                kinetic =    3.772856
    potential(screened) =   -3.206389
       potential(ionic) =   -3.759093

POLgen: Perturbative polarization orbital with L=  1

POLgen: Polarization orbital for state 1s

   izeta = 1
                     rc =    6.518340
                 energy =    0.533861
                kinetic =    1.121086
    potential(screened) =   -0.587225
       potential(ionic) =   -1.053027
atom: Total number of Sankey-type orbitals:  5

atm_pop: Valence configuration (for local Pseudopot. screening):
 1s( 1.00)                                                            
Vna: chval, zval:    1.00000   1.00000

Vna:  Cut-off radius for the neutral-atom potential:   6.518340

atom: _________________________________________________________________________

prinput: Basis input ----------------------------------------------------------

PAO.BasisType split     

%block ChemicalSpeciesLabel
    1    8 O                       # Species index, atomic number, species label
    2    7 N                       # Species index, atomic number, species label
    3   14 Si                      # Species index, atomic number, species label
    4    1 H                       # Species index, atomic number, species label
%endblock ChemicalSpeciesLabel

%block PAO.Basis                 # Define Basis set
O                     2                    # Species label, number of l-shells
 n=2   0   2                         # n, l, Nzeta 
   4.244      2.188   
   1.000      1.000   
 n=2   1   2 P   1                   # n, l, Nzeta, Polarization, NzetaPol
   5.315      2.161   
   1.000      1.000   
N                     2                    # Species label, number of l-shells
 n=2   0   2                         # n, l, Nzeta 
   4.730      2.532   
   1.000      1.000   
 n=2   1   2 P   1                   # n, l, Nzeta, Polarization, NzetaPol
   5.924      2.532   
   1.000      1.000   
Si                    2                    # Species label, number of l-shells
 n=3   0   2                         # n, l, Nzeta 
   6.430      3.998   
   1.000      1.000   
 n=3   1   2 P   1                   # n, l, Nzeta, Polarization, NzetaPol
   8.465      4.588   
   1.000      1.000   
H                     1                    # Species label, number of l-shells
 n=1   0   2 P   1                   # n, l, Nzeta, Polarization, NzetaPol
   6.518      2.141   
   1.000      1.000   
%endblock PAO.Basis

prinput: ----------------------------------------------------------------------

Dumping basis to NetCDF file O.ion.nc
Dumping basis to NetCDF file N.ion.nc
Dumping basis to NetCDF file Si.ion.nc
Dumping basis to NetCDF file H.ion.nc
coor:   Atomic-coordinates input format  =     Cartesian coordinates
coor:                                          (in Angstroms)

siesta: Atomic coordinates (Bohr) and species
siesta:      1.81163   7.18763   0.00000  1        1
siesta:     -5.74229   1.88609   0.00000  2        2
siesta:      3.90525   2.07693   0.00000  2        3
siesta:      1.94561  -3.46705   0.00000  2        4
siesta:     -3.98462  -3.55608   0.00000  2        5
siesta:      7.39339  -2.23157   0.00000  2        6
siesta:     -2.33502   1.97473   0.00000  3        7
siesta:     -0.94847  -1.94988   0.00000  3        8
siesta:      1.18951   4.21930   0.00000  3        9
siesta:      4.30868  -1.24399   0.00000  3       10
siesta:     -6.47196  -1.25161   0.00000  3       11
siesta:      5.60488   3.17902   0.00000  4       12
siesta:     -9.06356  -2.34086   0.00000  4       13
siesta:      7.74138  -4.18414   0.00000  4       14
siesta:      9.05578  -0.99994   0.00000  4       15
siesta:     -4.28375  -5.52253   0.00000  4       16
siesta:      8.12508   8.76052   0.00000  3       17
siesta:     11.76370  11.01237   0.00000  3       18
siesta:     10.88535   3.59296   0.00000  3       19
siesta:     14.79931   8.21721   0.00000  3       20
siesta:      8.31837   5.53031   0.00000  2       21
siesta:      5.14048  10.02707   0.00000  2       22
siesta:     14.00920   4.94442   0.00000  2       23
siesta:     12.34667  13.78018   0.00000  4       24
siesta:     17.61816   8.59512   0.00000  4       25
siesta:      4.79159  11.98270   0.00000  4       26
siesta:      3.45467   8.75852   0.00000  4       27
siesta:     10.86620   0.57274   0.00000  1       28
siesta:     15.47676   3.58036   0.00000  4       29

siesta: Automatic unit cell vectors (Ang):
siesta:   23.119875    0.000000    0.000000
siesta:    0.000000   18.824588    0.000000
siesta:    0.000000    0.000000    9.854683

siesta: System type = molecule  

initatomlists: Number of atoms, orbitals, and projectors:     29   297   394

siesta: ******************** Simulation parameters ****************************
siesta:
siesta: The following are some of the parameters of the simulation.
siesta: A complete list of the parameters used, including default values,
siesta: can be found in file out.fdf
siesta:
redata: Spin configuration                          = spin-orbit
redata: Number of spin components                   = 8
redata: Time-Reversal Symmetry                      = F
redata: Spin spiral                                 = F
############################################################
This spin-orbit implementation uses a local approximation.
From 4.2 and onwards the full non-local approximation is implemented
You are strongly advised to use >=4.2 versions!
############################################################
redata: Long output                                 =   F
redata: Number of Atomic Species                    =        4
redata: Charge density info will appear in .RHO file
redata: Write Mulliken Pop.                         = Atomic and Orbital charges
redata: Matel table size (NRTAB)                    =     1024
redata: Mesh Cutoff                                 =   340.0000 Ry
redata: Net charge of the system                    =     0.0000 |e|
redata: Min. number of SCF Iter                     =        1
redata: Max. number of SCF Iter                     =      200
redata: SCF mix quantity                            = Hamiltonian
redata: Mix DM or H after convergence               =   F
redata: Recompute H after scf cycle                 =   F
redata: Mix DM in first SCF step                    =   T
redata: Write Pulay info on disk                    =   F
redata: New DM Occupancy tolerance                  = 0.000000000001
redata: No kicks to SCF
redata: DM Mixing Weight for Kicks                  =     0.5000
redata: Require Harris convergence for SCF          =   F
redata: Harris energy tolerance for SCF             =     0.000100 eV
redata: Require DM convergence for SCF              =   T
redata: DM tolerance for SCF                        =     0.000008
redata: Require EDM convergence for SCF             =   F
redata: EDM tolerance for SCF                       =     0.001000 eV
redata: Require H convergence for SCF               =   T
redata: Hamiltonian tolerance for SCF               =     0.000001 eV
redata: Require (free) Energy convergence for SCF   =   F
redata: (free) Energy tolerance for SCF             =     0.000100 eV
redata: Using Saved Data (generic)                  =   F
redata: Use continuation files for DM               =   F
redata: Neglect nonoverlap interactions             =   F
redata: Method of Calculation                       = Diagonalization
redata: Electronic Temperature                      =   299.9978 K
redata: Fix the spin of the system                  =   F
redata: Dynamics option                             = Single-point calculation
mix.SCF: Pulay mixing                            = Pulay
mix.SCF:    Variant                              = stable
mix.SCF:    History steps                        = 6
mix.SCF:    Linear mixing weight                 =     0.250000
mix.SCF:    Mixing weight                        =     0.250000
mix.SCF:    SVD condition                        = 0.1000E-07
mix.SCF:    Restart steps                        = 24
mix.SCF:    Restart save steps                   = 3
mix.SCF: Spin-component mixing                   all
redata: Save all siesta data in one NC              =   F
redata: ***********************************************************************

%block SCF.Mixers
  Pulay
%endblock SCF.Mixers

%block SCF.Mixer.Pulay
  # Mixing method
  method pulay
  variant stable

  # Mixing options
  weight 0.2500
  weight.linear 0.2500
  history 6
  restart 24
  restart.save 3
%endblock SCF.Mixer.Pulay

DM_history_depth set to one: no extrapolation allowed by default for geometry relaxation
Size of DM history Fstack: 1
Total number of electrons:    98.000000
Total ionic charge:    98.000000

* ProcessorY, Blocksize:    2  24


* Orbital distribution balance (max,min):    81    72


Time-reversal symmetry not used.

siesta: k-grid: Number of k-points =     1
siesta: k-grid: Cutoff (effective) =     4.927 Ang
siesta: k-grid: Supercell and displacements
siesta: k-grid:    1   0   0      0.000
siesta: k-grid:    0   1   0      0.000
siesta: k-grid:    0   0   1      0.000

diag: Algorithm                                     = ELPA-1stage
diag: Parallel over k                               =   F
diag: Use parallel 2D distribution                  =   T
diag: Parallel block-size                           = 24
diag: Parallel distribution                         =     2 x     2
diag: Used triangular part                          = Lower
diag: Absolute tolerance                            =  0.100E-15
diag: Orthogonalization factor                      =  0.100E-05
diag: Memory factor                                 =  1.0000


ts: **************************************************************
ts: Save H and S matrices                           =    F
ts: Save DM and EDM matrices                        =    F
ts: Only save the overlap matrix S                  =    F
ts: **************************************************************

************************ Begin: TS CHECKS AND WARNINGS ************************
************************ End: TS CHECKS AND WARNINGS **************************


                     ====================================
                        Single-point calculation
                     ====================================

outcoor: Atomic coordinates (Ang):                          
    0.95867151    3.80352930    0.00000000   1       1  O
   -3.03868821    0.99807333    0.00000000   2       2  N
    2.06656775    1.09906577    0.00000000   2       3  N
    1.02956986   -1.83468085    0.00000000   2       4  N
   -2.10856766   -1.88179824    0.00000000   2       5  N
    3.91241107   -1.18089443    0.00000000   2       6  N
   -1.23563679    1.04498300    0.00000000   3       7  Si
   -0.50190924   -1.03183228    0.00000000   3       8  Si
    0.62946328    2.23275584    0.00000000   3       9  Si
    2.28005437   -0.65829354    0.00000000   3      10  Si
   -3.42481299   -0.66232416    0.00000000   3      11  Si
    2.96597416    1.68226399    0.00000000   4      12  H
   -4.79622939   -1.23872848    0.00000000   4      13  H
    4.09655941   -2.21414876    0.00000000   4      14  H
    4.79210868   -0.52914725    0.00000000   4      15  H
   -2.26686130   -2.92239373    0.00000000   4      16  H
    4.29960339    4.63586611    0.00000000   3      17  Si
    6.22508113    5.82749544    0.00000000   3      18  Si
    5.76027475    1.90131174    0.00000000   3      19  Si
    7.83145466    4.34835833    0.00000000   3      20  Si
    4.40188792    2.92651142    0.00000000   2      21  N
    2.72022530    5.30609560    0.00000000   2      22  N
    7.41334464    2.61647542    0.00000000   2      23  N
    6.53357196    7.29215680    0.00000000   4      24  H
    9.32312757    4.54833779    0.00000000   4      25  H
    2.53559885    6.34096933    0.00000000   4      26  H
    1.82813351    4.63480687    0.00000000   4      27  H
    5.75014415    0.30308322    0.00000000   1      28  O
    8.18994302    1.89464522    0.00000000   4      29  H

outcell: Unit cell vectors (Ang):
       23.119875    0.000000    0.000000
        0.000000   18.824588    0.000000
        0.000000    0.000000    9.854683

outcell: Cell vector modules (Ang)   :   23.119875   18.824588    9.854683
outcell: Cell angles (23,13,12) (deg):     90.0000     90.0000     90.0000
outcell: Cell volume (Ang**3)        :   4288.9763
<dSpData1D:S at geom step 0
  <sparsity:sparsity for geom step 0
    nrows_g=297 nrows=81 sparsity=.2399 nnzs=21158, refcount: 8>
  <dData1D:(new from dSpData1D) n=21158, refcount: 1>
refcount: 1>
new_DM -- step:     1
Initializing Density Matrix...
DM filled with atomic data:
<dSpData2D:DM initialized from atoms
  <sparsity:sparsity for geom step 0
    nrows_g=297 nrows=81 sparsity=.2399 nnzs=21158, refcount: 9>
  <dData2D:DM n=21158 m=8, refcount: 1>
refcount: 1>
     spin moment: S , {S} =   56.00000   0.00000   0.00000  56.00000
No. of atoms with KB's overlaping orbs in proc 0. Max # of overlaps:      29     215

Initializing spin-orbit part of the Hamiltonian
  Adding spin-orbit effects for O 
  Adding spin-orbit effects for N 
  Adding spin-orbit effects for Si
  Adding spin-orbit effects for H 


New grid distribution:   1
           1       1:  135    1:   54    1:   30
           2       1:  135    1:   54   31:   60
           3       1:  135   55:  108    1:   30
           4       1:  135   55:  108   31:   60

InitMesh: MESH =   270 x   216 x   120 =     6998400
InitMesh: (bp) =   135 x   108 x    60 =      874800
InitMesh: Mesh cutoff (required, used) =   340.000   363.880 Ry
ExtMesh (bp) on 0 =   243 x   158 x   142 =     5451948
New grid distribution:   2
           1      31:  135    1:   24    1:   60
           2       1:   30    1:   22    1:   60
           3      31:  135   25:  108    1:   60
           4       1:   30   23:  108    1:   60
New grid distribution:   3
           1      44:  135    1:   32    1:   60
           2       1:   43    1:   37    1:   60
           3      44:  135   33:  108    1:   60
           4       1:   43   38:  108    1:   60
Setting up quadratic distribution...
ExtMesh (bp) on 0 =   213 x   128 x   172 =     4689408
PhiOnMesh: Number of (b)points on node 0 =               151200
PhiOnMesh: nlist on node 0 =              2669301

stepf: Fermi-Dirac step function

siesta: Program's energy decomposition (eV):
siesta: Ebs     =      -606.459355
siesta: Eions   =      3585.165840
siesta: Ena     =       384.294816
siesta: Ekin    =      3381.867413
siesta: Enl     =     -3311.661420
siesta: Eso     =        -0.003493
siesta: Edftu   =         0.000000
siesta: DEna    =       156.533723
siesta: DUscf   =        79.168589
siesta: DUext   =         0.000000
siesta: Exc     =     -1208.171254
siesta: eta*DQ  =         0.000000
siesta: Emadel  =         0.000000
siesta: Emeta   =         0.000000
siesta: Emolmec =         0.000000
siesta: Ekinion =         0.000000
siesta: Eharris =     -4020.639914
siesta: Etot    =     -4103.137465
siesta: FreeEng =     -4103.139216

        iscf     Eharris(eV)        E_KS(eV)     FreeEng(eV)     dDmax    Ef(eV) dHmax(eV)
   scf:    1    -4020.639914    -4103.137465    -4103.139216  0.953894 -4.905975 20.247885
     spin moment: S , {S} =    2.01071  -0.00000   0.00000   2.01071
timer: Routine,Calls,Time,% = IterSCF        1      11.791  17.40
   scf:    2    -4150.583714    -4137.992052    -4137.993592  0.468734 -4.190691 10.675218
     spin moment: S , {S} =    1.99137  -0.00000  -0.00000   1.99137
   scf:    3    -4112.408247    -4135.377511    -4135.399706  0.428697 -4.230434 11.215662
     spin moment: S , {S} =    2.00015  -0.00000  -0.00000   2.00015
   scf:    4    -4150.582452    -4145.763962    -4145.763964  0.296063 -3.849144  5.572482
     spin moment: S , {S} =    0.00009   0.00000  -0.00000   0.00009
   scf:    5    -4146.914519    -4146.433414    -4146.433414  0.037086 -3.666304  4.404788
     spin moment: S , {S} =    0.00006   0.00000  -0.00000   0.00006
   scf:    6    -4147.276258    -4146.857507    -4146.857507  0.027696 -3.632164  2.087941
     spin moment: S , {S} =    0.00003  -0.00000  -0.00000   0.00003
   scf:    7    -4147.214768    -4147.037823    -4147.037823  0.021222 -3.673557  0.806211
     spin moment: S , {S} =    0.00001  -0.00000   0.00000   0.00001
   scf:    8    -4147.155672    -4147.095230    -4147.095230  0.012579 -3.761634  0.394586
     spin moment: S , {S} =    0.00000  -0.00000   0.00000   0.00000
   scf:    9    -4147.130262    -4147.112305    -4147.112305  0.006690 -3.778250  0.265394
     spin moment: S , {S} =    0.00000  -0.00000  -0.00000   0.00000
   scf:   10    -4147.152723    -4147.130263    -4147.130263  0.013447 -3.786542  0.120629
     spin moment: S , {S} =    0.00000   0.00000  -0.00000  -0.00000
   scf:   11    -4147.135273    -4147.132591    -4147.132591  0.005091 -3.781397  0.059139
     spin moment: S , {S} =    0.00000  -0.00000  -0.00000   0.00000
   scf:   12    -4147.134332    -4147.133416    -4147.133416  0.003043 -3.778090  0.036057
     spin moment: S , {S} =    0.00000  -0.00000  -0.00000   0.00000
   scf:   13    -4147.134368    -4147.133861    -4147.133861  0.002333 -3.775374  0.030061
     spin moment: S , {S} =    0.00000   0.00000  -0.00000   0.00000
   scf:   14    -4147.134852    -4147.134284    -4147.134284  0.003633 -3.775620  0.016410
     spin moment: S , {S} =    0.00000   0.00000  -0.00000   0.00000
   scf:   15    -4147.134622    -4147.134419    -4147.134419  0.002563 -3.774964  0.008278
     spin moment: S , {S} =    0.00000   0.00000  -0.00000   0.00000
   scf:   16    -4147.134477    -4147.134443    -4147.134443  0.001030 -3.775293  0.005312
     spin moment: S , {S} =    0.00000   0.00000  -0.00000   0.00000
   scf:   17    -4147.134460    -4147.134451    -4147.134451  0.000521 -3.775510  0.003169
     spin moment: S , {S} =    0.00000   0.00000  -0.00000   0.00000
   scf:   18    -4147.134459    -4147.134454    -4147.134454  0.000367 -3.775586  0.001635
     spin moment: S , {S} =    0.00000  -0.00000  -0.00000  -0.00000
   scf:   19    -4147.134458    -4147.134456    -4147.134456  0.000242 -3.775581  0.000706
     spin moment: S , {S} =    0.00000  -0.00000  -0.00000  -0.00000
   scf:   20    -4147.134457    -4147.134456    -4147.134456  0.000101 -3.775507  0.000375
     spin moment: S , {S} =    0.00000   0.00000  -0.00000  -0.00000
   scf:   21    -4147.134456    -4147.134456    -4147.134456  0.000088 -3.775454  0.000228
     spin moment: S , {S} =    0.00000   0.00000  -0.00000  -0.00000
   scf:   22    -4147.134456    -4147.134456    -4147.134456  0.000019 -3.775434  0.000119
     spin moment: S , {S} =    0.00000   0.00000  -0.00000  -0.00000
   scf:   23    -4147.134456    -4147.134456    -4147.134456  0.000007 -3.775430  0.000069
     spin moment: S , {S} =    0.00000   0.00000  -0.00000  -0.00000
   scf:   24    -4147.134456    -4147.134456    -4147.134456  0.000010 -3.775426  0.000028
     spin moment: S , {S} =    0.00000   0.00000  -0.00000  -0.00000
mix: Pulay -- resetting history
   scf:   25    -4147.134456    -4147.134456    -4147.134456  0.000004 -3.775426  0.000019
     spin moment: S , {S} =    0.00000   0.00000  -0.00000   0.00000
   scf:   26    -4147.134456    -4147.134456    -4147.134456  0.000001 -3.775426  0.000013
     spin moment: S , {S} =    0.00000   0.00000  -0.00000   0.00000
   scf:   27    -4147.134456    -4147.134456    -4147.134456  0.000001 -3.775426  0.000008
     spin moment: S , {S} =    0.00000   0.00000  -0.00000   0.00000
   scf:   28    -4147.134456    -4147.134456    -4147.134456  0.000001 -3.775426  0.000003
     spin moment: S , {S} =    0.00000   0.00000  -0.00000   0.00000
   scf:   29    -4147.134456    -4147.134456    -4147.134456  0.000000 -3.775426  0.000002
     spin moment: S , {S} =    0.00000   0.00000  -0.00000   0.00000
   scf:   30    -4147.134456    -4147.134456    -4147.134456  0.000000 -3.775426  0.000001
     spin moment: S , {S} =    0.00000   0.00000  -0.00000   0.00000

SCF Convergence by DM+H criterion
max |DM_out - DM_in|         :     0.0000002597
max |H_out - H_in|      (eV) :     0.0000008030
SCF cycle converged after 30 iterations

Using DM_out to compute the final energy and forces
No. of atoms with KB's overlaping orbs in proc 0. Max # of overlaps:      29     215

siesta: E_KS(eV) =            -4147.1345

siesta: E_KS - E_eggbox =     -4147.1345
     spin moment: S , {S} =    0.00000   0.00000  -0.00000   0.00000

siesta: Atomic forces (eV/Ang):
     1   -5.268195    0.817892   -0.000000
     2   -0.031022   -0.004977    0.000000
     3   -0.560071   -0.036932    0.000000
     4   -0.376374   -0.006419    0.000000
     5   -0.021707    0.060702   -0.000000
     6   -2.150378   -1.423802   -0.000000
     7   -0.011960    0.125487    0.000000
     8    0.181399   -0.151554   -0.000000
     9   -0.036995   -0.741018   -0.000000
    10    0.393726   -0.287905    0.000000
    11    0.013384    0.007605    0.000000
    12    0.319308    0.226811   -0.000000
    13   -0.155180    0.102743   -0.000000
    14   -0.157165   -0.242274   -0.000000
    15    0.063366    0.276966   -0.000000
    16   -0.027949   -0.177580    0.000000
    17   -0.380544    0.671031    0.000000
    18    0.104506   -0.114440    0.000000
    19    0.252003    0.586900    0.000000
    20    0.028222    0.218071   -0.000000
    21    0.337180   -0.327647   -0.000000
    22    2.642732    1.806350    0.000000
    23   -0.164403   -0.255985    0.000000
    24   -0.073937    0.121467    0.000000
    25    0.070728   -0.128861    0.000000
    26    0.277635    0.250658    0.000000
    27   -0.218384   -0.335664   -0.000000
    28   -0.779286    0.887577   -0.000000
    29    0.024428    0.064550   -0.000000
----------------------------------------
   Tot   -5.704933    1.989753    0.000000
----------------------------------------
   Max    5.268195
   Res    0.759301    sqrt( Sum f_i^2 / 3N )
----------------------------------------
   Max    5.268195    constrained

Stress tensor Voigt[x,y,z,yz,xz,xy] (kbar):       -3.82       -3.40       -0.10       -0.00        0.00       -3.61
(Free)E + p*V (eV/cell)    -4140.6135
Target enthalpy (eV/cell)    -4147.1345

mulliken: Atomic and Orbital Populations:

Species: O                   

Atom      Orb        Charge      Spin       Svec
----------------------------------------------------------------
    1  1 2s         1.65574   0.00000      0.000  -0.000   0.000
    1  2 2s         0.08559   0.00000     -0.000   0.000   0.000
    1  3 2py        1.27746   0.00000     -0.000   0.000   0.000
    1  4 2pz        1.65250   0.00000      0.000  -0.000   0.000
    1  5 2px        1.63524   0.00000      0.000  -0.000   0.000
    1  6 2py        0.13035   0.00000     -0.000  -0.000   0.000
    1  7 2pz       -0.01919   0.00000      0.000   0.000   0.000
    1  8 2px        0.00981   0.00000     -0.000   0.000   0.000
    1  9 3Pdxy      0.01103   0.00000     -0.000   0.000  -0.000
    1 10 3Pdyz      0.00672   0.00000      0.000   0.000   0.000
    1 11 3Pdz2      0.00258   0.00000      0.000   0.000   0.000
    1 12 3Pdxz      0.00021   0.00000     -0.000  -0.000   0.000
    1 13 3Pdx2-y2   0.00456   0.00000     -0.000  -0.000  -0.000
    1     Total     6.45257   0.00000      0.000  -0.000   0.000

   28  1 2s         1.68747   0.00000     -0.000   0.000   0.000
   28  2 2s         0.07541   0.00000      0.000  -0.000  -0.000
   28  3 2py        1.28713   0.00000      0.000   0.000   0.000
   28  4 2pz        1.63612   0.00000      0.000   0.000   0.000
   28  5 2px        1.66349   0.00000     -0.000   0.000   0.000
   28  6 2py        0.11641   0.00000     -0.000   0.000  -0.000
   28  7 2pz       -0.01803   0.00000      0.000  -0.000  -0.000
   28  8 2px       -0.00173   0.00000      0.000  -0.000  -0.000
   28  9 3Pdxy      0.01142   0.00000      0.000   0.000  -0.000
   28 10 3Pdyz      0.00778   0.00000     -0.000  -0.000  -0.000
   28 11 3Pdz2      0.00232   0.00000      0.000  -0.000  -0.000
   28 12 3Pdxz      0.00027   0.00000     -0.000  -0.000   0.000
   28 13 3Pdx2-y2   0.00598   0.00000      0.000   0.000   0.000
   28     Total     6.47405   0.00000      0.000   0.000   0.000

----------------------------------------------------------------
Total              12.92662   0.00000      0.000   0.000   0.000


Species: N                   

Atom      Orb        Charge      Spin       Svec
----------------------------------------------------------------
    2  1 2s         1.55315   0.00000      0.000   0.000   0.000
    2  2 2s         0.08380   0.00000     -0.000  -0.000   0.000
    2  3 2py        1.04096   0.00000     -0.000   0.000   0.000
    2  4 2pz        1.22497   0.00000      0.000   0.000   0.000
    2  5 2px        0.98857   0.00000      0.000   0.000   0.000
    2  6 2py        0.18841   0.00000      0.000  -0.000  -0.000
    2  7 2pz        0.05630   0.00000     -0.000  -0.000  -0.000
    2  8 2px        0.19551   0.00000     -0.000  -0.000  -0.000
    2  9 3Pdxy      0.00854   0.00000      0.000  -0.000   0.000
    2 10 3Pdyz      0.01119   0.00000     -0.000  -0.000  -0.000
    2 11 3Pdz2      0.00191   0.00000      0.000  -0.000  -0.000
    2 12 3Pdxz      0.00758   0.00000     -0.000  -0.000  -0.000
    2 13 3Pdx2-y2   0.00931   0.00000      0.000   0.000   0.000
    2     Total     5.37020   0.00000      0.000   0.000   0.000

    3  1 2s         1.37808   0.00000      0.000   0.000   0.000
    3  2 2s         0.12505   0.00000     -0.000  -0.000   0.000
    3  3 2py        0.93231   0.00000     -0.000   0.000   0.000
    3  4 2pz        1.52951   0.00000     -0.000   0.000   0.000
    3  5 2px        1.05793   0.00000      0.000  -0.000  -0.000
    3  6 2py        0.25960   0.00000      0.000  -0.000   0.000
    3  7 2pz        0.00634   0.00000     -0.000  -0.000   0.000
    3  8 2px        0.19670   0.00000     -0.000   0.000   0.000
    3  9 3Pdxy      0.00443   0.00000     -0.000  -0.000  -0.000
    3 10 3Pdyz      0.00385   0.00000     -0.000   0.000   0.000
    3 11 3Pdz2      0.00040   0.00000     -0.000  -0.000  -0.000
    3 12 3Pdxz      0.00289   0.00000     -0.000   0.000   0.000
    3 13 3Pdx2-y2   0.00240   0.00000      0.000   0.000   0.000
    3     Total     5.49951   0.00000      0.000   0.000   0.000

    4  1 2s         1.46384   0.00000      0.000   0.000  -0.000
    4  2 2s         0.11898   0.00000     -0.000  -0.000   0.000
    4  3 2py        1.12853   0.00000      0.000   0.000  -0.000
    4  4 2pz        1.28579   0.00000      0.000   0.000  -0.000
    4  5 2px        0.82583   0.00000     -0.000   0.000   0.000
    4  6 2py        0.15122   0.00000     -0.000  -0.000  -0.000
    4  7 2pz        0.05411   0.00000     -0.000  -0.000  -0.000
    4  8 2px        0.29109   0.00000     -0.000  -0.000  -0.000
    4  9 3Pdxy      0.00870   0.00000     -0.000  -0.000  -0.000
    4 10 3Pdyz      0.01049   0.00000      0.000  -0.000   0.000
    4 11 3Pdz2      0.00130   0.00000     -0.000   0.000  -0.000
    4 12 3Pdxz      0.00474   0.00000      0.000  -0.000  -0.000
    4 13 3Pdx2-y2   0.00791   0.00000      0.000   0.000   0.000
    4     Total     5.35253   0.00000      0.000   0.000  -0.000

    5  1 2s         1.37145   0.00000     -0.000   0.000   0.000
    5  2 2s         0.12999   0.00000      0.000  -0.000  -0.000
    5  3 2py        1.02772   0.00000     -0.000  -0.000   0.000
    5  4 2pz        1.49831   0.00000      0.000  -0.000   0.000
    5  5 2px        1.05673   0.00000     -0.000   0.000   0.000
    5  6 2py        0.20562   0.00000      0.000   0.000  -0.000
    5  7 2pz        0.01371   0.00000     -0.000   0.000  -0.000
    5  8 2px        0.20559   0.00000      0.000  -0.000  -0.000
    5  9 3Pdxy      0.00386   0.00000      0.000   0.000  -0.000
    5 10 3Pdyz      0.00245   0.00000      0.000   0.000  -0.000
    5 11 3Pdz2      0.00141   0.00000     -0.000  -0.000  -0.000
    5 12 3Pdxz      0.00652   0.00000      0.000   0.000  -0.000
    5 13 3Pdx2-y2   0.00557   0.00000     -0.000   0.000  -0.000
    5     Total     5.52895   0.00000     -0.000  -0.000   0.000

    6  1 2s         1.28743   0.00000     -0.000   0.000  -0.000
    6  2 2s         0.17366   0.00000      0.000  -0.000   0.000
    6  3 2py        1.07261   0.00000     -0.000  -0.000   0.000
    6  4 2pz        1.47356   0.00000     -0.000  -0.000   0.000
    6  5 2px        0.99519   0.00000      0.000  -0.000   0.000
    6  6 2py        0.19413   0.00000      0.000   0.000   0.000
    6  7 2pz        0.03783   0.00000      0.000   0.000   0.000
    6  8 2px        0.25118   0.00000     -0.000   0.000   0.000
    6  9 3Pdxy      0.00444   0.00000     -0.000  -0.000   0.000
    6 10 3Pdyz      0.00002   0.00000      0.000   0.000   0.000
    6 11 3Pdz2      0.00218   0.00000      0.000  -0.000  -0.000
    6 12 3Pdxz      0.00439   0.00000      0.000  -0.000  -0.000
    6 13 3Pdx2-y2   0.00472   0.00000     -0.000   0.000  -0.000
    6     Total     5.50136   0.00000     -0.000  -0.000   0.000

   21  1 2s         1.41298   0.00000      0.000  -0.000   0.000
   21  2 2s         0.12569   0.00000     -0.000   0.000  -0.000
   21  3 2py        0.90398   0.00000      0.000   0.000   0.000
   21  4 2pz        1.34379   0.00000      0.000  -0.000   0.000
   21  5 2px        1.15539   0.00000      0.000  -0.000   0.000
   21  6 2py        0.26857   0.00000     -0.000  -0.000  -0.000
   21  7 2pz        0.03762   0.00000      0.000   0.000  -0.000
   21  8 2px        0.16174   0.00000     -0.000  -0.000  -0.000
   21  9 3Pdxy      0.00732   0.00000      0.000   0.000  -0.000
   21 10 3Pdyz      0.00438   0.00000      0.000   0.000   0.000
   21 11 3Pdz2      0.00016   0.00000     -0.000  -0.000   0.000
   21 12 3Pdxz      0.00556   0.00000     -0.000   0.000  -0.000
   21 13 3Pdx2-y2   0.00572   0.00000     -0.000  -0.000   0.000
   21     Total     5.43289   0.00000      0.000  -0.000   0.000

   22  1 2s         1.31455   0.00000      0.000   0.000  -0.000
   22  2 2s         0.16465   0.00000     -0.000  -0.000  -0.000
   22  3 2py        1.07363   0.00000      0.000   0.000  -0.000
   22  4 2pz        1.42212   0.00000      0.000   0.000  -0.000
   22  5 2px        1.04272   0.00000      0.000   0.000  -0.000
   22  6 2py        0.19625   0.00000     -0.000   0.000  -0.000
   22  7 2pz        0.03730   0.00000      0.000  -0.000   0.000
   22  8 2px        0.22357   0.00000     -0.000   0.000  -0.000
   22  9 3Pdxy      0.00599   0.00000     -0.000  -0.000  -0.000
   22 10 3Pdyz      0.00011   0.00000      0.000   0.000  -0.000
   22 11 3Pdz2      0.00286   0.00000     -0.000  -0.000  -0.000
   22 12 3Pdxz      0.00483   0.00000     -0.000  -0.000  -0.000
   22 13 3Pdx2-y2   0.00524   0.00000      0.000   0.000  -0.000
   22     Total     5.49382   0.00000      0.000   0.000  -0.000

   23  1 2s         1.35989   0.00000      0.000   0.000   0.000
   23  2 2s         0.13562   0.00000     -0.000  -0.000  -0.000
   23  3 2py        1.01099   0.00000     -0.000   0.000   0.000
   23  4 2pz        1.53907   0.00000      0.000  -0.000   0.000
   23  5 2px        1.03981   0.00000      0.000   0.000   0.000
   23  6 2py        0.21736   0.00000      0.000  -0.000   0.000
   23  7 2pz        0.00441   0.00000     -0.000  -0.000   0.000
   23  8 2px        0.20785   0.00000     -0.000  -0.000   0.000
   23  9 3Pdxy      0.00523   0.00000      0.000   0.000   0.000
   23 10 3Pdyz      0.00468   0.00000     -0.000  -0.000   0.000
   23 11 3Pdz2      0.00078   0.00000     -0.000   0.000  -0.000
   23 12 3Pdxz      0.00241   0.00000     -0.000   0.000  -0.000
   23 13 3Pdx2-y2   0.00150   0.00000     -0.000   0.000  -0.000
   23     Total     5.52959   0.00000     -0.000  -0.000   0.000

----------------------------------------------------------------
Total              56.63548   0.00000      0.000   0.000   0.000


Species: Si                  

Atom      Orb        Charge      Spin       Svec
----------------------------------------------------------------
    7  1 3s         0.64151   0.00000      0.000  -0.000  -0.000
    7  2 3s         0.37657   0.00000      0.000   0.000  -0.000
    7  3 3py        0.46327   0.00000      0.000  -0.000  -0.000
    7  4 3pz        0.68464   0.00000     -0.000  -0.000  -0.000
    7  5 3px        0.11062   0.00000     -0.000   0.000  -0.000
    7  6 3py        0.28317   0.00000      0.000   0.000  -0.000
    7  7 3pz        0.26752   0.00000      0.000   0.000  -0.000
    7  8 3px        0.45006   0.00000      0.000  -0.000  -0.000
    7  9 3Pdxy      0.25274   0.00000      0.000  -0.000  -0.000
    7 10 3Pdyz      0.02860   0.00000     -0.000   0.000  -0.000
    7 11 3Pdz2      0.01081   0.00000      0.000  -0.000  -0.000
    7 12 3Pdxz      0.15396   0.00000      0.000   0.000   0.000
    7 13 3Pdx2-y2   0.11145   0.00000      0.000   0.000   0.000
    7     Total     3.83492   0.00000      0.000  -0.000  -0.000

    8  1 3s         0.65256   0.00000     -0.000   0.000  -0.000
    8  2 3s         0.37053   0.00000      0.000  -0.000  -0.000
    8  3 3py        0.40039   0.00000      0.000  -0.000  -0.000
    8  4 3pz        0.49108   0.00000      0.000   0.000  -0.000
    8  5 3px       -0.01401   0.00000      0.000  -0.000   0.000
    8  6 3py        0.30311   0.00000     -0.000   0.000  -0.000
    8  7 3pz        0.20750   0.00000      0.000  -0.000  -0.000
    8  8 3px        0.51145   0.00000     -0.000   0.000  -0.000
    8  9 3Pdxy      0.25053   0.00000      0.000   0.000  -0.000
    8 10 3Pdyz      0.11115   0.00000      0.000   0.000   0.000
    8 11 3Pdz2      0.01385   0.00000      0.000  -0.000  -0.000
    8 12 3Pdxz      0.15880   0.00000      0.000  -0.000  -0.000
    8 13 3Pdx2-y2   0.20422   0.00000      0.000   0.000  -0.000
    8     Total     3.66116   0.00000      0.000   0.000  -0.000

    9  1 3s         0.58229   0.00000     -0.000   0.000   0.000
    9  2 3s         0.37519   0.00000     -0.000  -0.000   0.000
    9  3 3py        0.12493   0.00000     -0.000  -0.000   0.000
    9  4 3pz        0.46347   0.00000     -0.000   0.000   0.000
    9  5 3px        0.32973   0.00000     -0.000   0.000   0.000
    9  6 3py        0.38263   0.00000      0.000   0.000   0.000
    9  7 3pz        0.19990   0.00000      0.000   0.000   0.000
    9  8 3px        0.30407   0.00000      0.000  -0.000  -0.000
    9  9 3Pdxy      0.27347   0.00000      0.000   0.000   0.000
    9 10 3Pdyz      0.18266   0.00000      0.000  -0.000   0.000
    9 11 3Pdz2      0.00945   0.00000     -0.000   0.000   0.000
    9 12 3Pdxz      0.11289   0.00000     -0.000  -0.000   0.000
    9 13 3Pdx2-y2   0.18259   0.00000      0.000   0.000  -0.000
    9     Total     3.52325   0.00000     -0.000   0.000   0.000

   10  1 3s         0.49430   0.00000      0.000  -0.000  -0.000
   10  2 3s         0.37217   0.00000      0.000  -0.000   0.000
   10  3 3py        0.24688   0.00000     -0.000  -0.000   0.000
   10  4 3pz        0.43282   0.00000      0.000  -0.000  -0.000
   10  5 3px        0.09114   0.00000     -0.000  -0.000  -0.000
   10  6 3py        0.31604   0.00000      0.000  -0.000  -0.000
   10  7 3pz        0.21167   0.00000     -0.000   0.000  -0.000
   10  8 3px        0.45611   0.00000      0.000   0.000   0.000
   10  9 3Pdxy      0.18530   0.00000     -0.000  -0.000  -0.000
   10 10 3Pdyz      0.12647   0.00000      0.000   0.000  -0.000
   10 11 3Pdz2      0.00930   0.00000     -0.000  -0.000  -0.000
   10 12 3Pdxz      0.18909   0.00000     -0.000   0.000  -0.000
   10 13 3Pdx2-y2   0.30924   0.00000      0.000  -0.000  -0.000
   10     Total     3.44054   0.00000     -0.000  -0.000  -0.000

   11  1 3s         0.55139   0.00000     -0.000   0.000  -0.000
   11  2 3s         0.38681   0.00000     -0.000  -0.000  -0.000
   11  3 3py        0.31153   0.00000      0.000  -0.000  -0.000
   11  4 3pz        0.52676   0.00000     -0.000  -0.000  -0.000
   11  5 3px        0.13155   0.00000     -0.000   0.000  -0.000
   11  6 3py        0.29927   0.00000     -0.000   0.000  -0.000
   11  7 3pz        0.17993   0.00000      0.000  -0.000  -0.000
   11  8 3px        0.44312   0.00000      0.000  -0.000  -0.000
   11  9 3Pdxy      0.23614   0.00000      0.000   0.000  -0.000
   11 10 3Pdyz      0.12974   0.00000     -0.000   0.000  -0.000
   11 11 3Pdz2      0.01000   0.00000     -0.000   0.000   0.000
   11 12 3Pdxz      0.05427   0.00000     -0.000  -0.000  -0.000
   11 13 3Pdx2-y2   0.19853   0.00000     -0.000  -0.000  -0.000
   11     Total     3.45904   0.00000     -0.000  -0.000  -0.000

   17  1 3s         0.64648   0.00000      0.000  -0.000   0.000
   17  2 3s         0.35345   0.00000     -0.000  -0.000  -0.000
   17  3 3py        0.23032   0.00000     -0.000   0.000  -0.000
   17  4 3pz        0.43796   0.00000     -0.000  -0.000   0.000
   17  5 3px        0.22338   0.00000      0.000  -0.000   0.000
   17  6 3py        0.36033   0.00000     -0.000  -0.000   0.000
   17  7 3pz        0.21168   0.00000      0.000   0.000  -0.000
   17  8 3px        0.39728   0.00000      0.000   0.000   0.000
   17  9 3Pdxy      0.27153   0.00000      0.000   0.000   0.000
   17 10 3Pdyz      0.12785   0.00000      0.000  -0.000  -0.000
   17 11 3Pdz2      0.00744   0.00000      0.000   0.000  -0.000
   17 12 3Pdxz      0.15033   0.00000      0.000   0.000  -0.000
   17 13 3Pdx2-y2   0.18965   0.00000     -0.000  -0.000  -0.000
   17     Total     3.60770   0.00000      0.000  -0.000   0.000

   18  1 3s         0.75562   0.00000     -0.000  -0.000  -0.000
   18  2 3s         0.33937   0.00000      0.000   0.000   0.000
   18  3 3py        0.07963   0.00000      0.000   0.000  -0.000
   18  4 3pz        0.79726   0.00000     -0.000  -0.000  -0.000
   18  5 3px        0.54286   0.00000     -0.000   0.000  -0.000
   18  6 3py        0.51821   0.00000     -0.000   0.000  -0.000
   18  7 3pz        0.19426   0.00000      0.000   0.000  -0.000
   18  8 3px        0.26074   0.00000      0.000  -0.000  -0.000
   18  9 3Pdxy      0.10593   0.00000      0.000   0.000   0.000
   18 10 3Pdyz      0.02647   0.00000      0.000  -0.000   0.000
   18 11 3Pdz2      0.00913   0.00000     -0.000   0.000   0.000
   18 12 3Pdxz      0.03423   0.00000     -0.000   0.000   0.000
   18 13 3Pdx2-y2   0.10399   0.00000     -0.000  -0.000  -0.000
   18     Total     3.76771   0.00000     -0.000  -0.000  -0.000

   19  1 3s         0.45042   0.00000      0.000  -0.000  -0.000
   19  2 3s         0.36549   0.00000     -0.000   0.000  -0.000
   19  3 3py        0.08526   0.00000      0.000   0.000  -0.000
   19  4 3pz        0.38563   0.00000     -0.000   0.000  -0.000
   19  5 3px        0.22423   0.00000     -0.000  -0.000  -0.000
   19  6 3py        0.43701   0.00000      0.000  -0.000  -0.000
   19  7 3pz        0.20186   0.00000     -0.000   0.000  -0.000
   19  8 3px        0.32184   0.00000      0.000   0.000  -0.000
   19  9 3Pdxy      0.30326   0.00000      0.000  -0.000  -0.000
   19 10 3Pdyz      0.17609   0.00000     -0.000   0.000  -0.000
   19 11 3Pdz2      0.00905   0.00000     -0.000   0.000   0.000
   19 12 3Pdxz      0.10770   0.00000     -0.000   0.000  -0.000
   19 13 3Pdx2-y2   0.24064   0.00000     -0.000  -0.000  -0.000
   19     Total     3.30848   0.00000     -0.000   0.000  -0.000

   20  1 3s         0.68402   0.00000     -0.000  -0.000  -0.000
   20  2 3s         0.37444   0.00000      0.000   0.000   0.000
   20  3 3py        0.34114   0.00000     -0.000  -0.000   0.000
   20  4 3pz        0.62021   0.00000      0.000   0.000   0.000
   20  5 3px        0.14152   0.00000      0.000  -0.000  -0.000
   20  6 3py        0.27859   0.00000     -0.000   0.000  -0.000
   20  7 3pz        0.15912   0.00000     -0.000  -0.000   0.000
   20  8 3px        0.50093   0.00000     -0.000   0.000   0.000
   20  9 3Pdxy      0.09837   0.00000      0.000   0.000   0.000
   20 10 3Pdyz      0.12654   0.00000     -0.000   0.000   0.000
   20 11 3Pdz2      0.00776   0.00000      0.000  -0.000  -0.000
   20 12 3Pdxz      0.02671   0.00000      0.000   0.000  -0.000
   20 13 3Pdx2-y2   0.17773   0.00000      0.000   0.000  -0.000
   20     Total     3.53708   0.00000      0.000   0.000   0.000

----------------------------------------------------------------
Total              88.77535   0.00000      0.000   0.000  -0.000


Species: H                   

Atom      Orb        Charge      Spin       Svec
----------------------------------------------------------------
   12  1 1s         0.48296   0.00000     -0.000  -0.000  -0.000
   12  2 1s         0.17582   0.00000      0.000   0.000  -0.000
   12  3 2Ppy       0.05581   0.00000     -0.000  -0.000  -0.000
   12  4 2Ppz       0.03474   0.00000     -0.000  -0.000  -0.000
   12  5 2Ppx       0.06396   0.00000      0.000   0.000   0.000
   12     Total     0.81330   0.00000     -0.000  -0.000  -0.000

   13  1 1s         1.01863   0.00000      0.000   0.000   0.000
   13  2 1s         0.09728   0.00000     -0.000  -0.000  -0.000
   13  3 2Ppy       0.01914   0.00000      0.000   0.000   0.000
   13  4 2Ppz       0.02004   0.00000      0.000  -0.000  -0.000
   13  5 2Ppx       0.03329   0.00000     -0.000  -0.000   0.000
   13     Total     1.18838   0.00000      0.000  -0.000   0.000

   14  1 1s         0.50078   0.00000      0.000   0.000  -0.000
   14  2 1s         0.19395   0.00000      0.000   0.000  -0.000
   14  3 2Ppy       0.02240   0.00000      0.000   0.000   0.000
   14  4 2Ppz       0.04979   0.00000      0.000   0.000  -0.000
   14  5 2Ppx       0.02519   0.00000      0.000   0.000  -0.000
   14     Total     0.79212   0.00000      0.000   0.000  -0.000

   15  1 1s         0.37830   0.00000      0.000  -0.000  -0.000
   15  2 1s         0.19895   0.00000     -0.000  -0.000  -0.000
   15  3 2Ppy       0.07651   0.00000     -0.000  -0.000   0.000
   15  4 2Ppz       0.05919   0.00000      0.000  -0.000  -0.000
   15  5 2Ppx       0.11983   0.00000     -0.000   0.000  -0.000
   15     Total     0.83278   0.00000      0.000  -0.000  -0.000

   16  1 1s         0.50319   0.00000      0.000   0.000  -0.000
   16  2 1s         0.19054   0.00000     -0.000   0.000  -0.000
   16  3 2Ppy       0.02896   0.00000      0.000  -0.000  -0.000
   16  4 2Ppz       0.03934   0.00000     -0.000   0.000  -0.000
   16  5 2Ppx       0.02415   0.00000     -0.000   0.000  -0.000
   16     Total     0.78617   0.00000      0.000   0.000  -0.000

   24  1 1s         1.05781   0.00000     -0.000  -0.000   0.000
   24  2 1s         0.07587   0.00000      0.000   0.000  -0.000
   24  3 2Ppy       0.03075   0.00000      0.000   0.000  -0.000
   24  4 2Ppz       0.02982   0.00000      0.000   0.000  -0.000
   24  5 2Ppx       0.01791   0.00000     -0.000   0.000   0.000
   24     Total     1.21216   0.00000      0.000   0.000   0.000

   25  1 1s         1.04555   0.00000     -0.000   0.000   0.000
   25  2 1s         0.08539   0.00000      0.000  -0.000   0.000
   25  3 2Ppy       0.01143   0.00000      0.000   0.000  -0.000
   25  4 2Ppz       0.01927   0.00000     -0.000  -0.000   0.000
   25  5 2Ppx       0.03577   0.00000      0.000   0.000  -0.000
   25     Total     1.19741   0.00000     -0.000   0.000   0.000

   26  1 1s         0.50485   0.00000     -0.000  -0.000   0.000
   26  2 1s         0.19253   0.00000      0.000  -0.000  -0.000
   26  3 2Ppy       0.02554   0.00000      0.000  -0.000   0.000
   26  4 2Ppz       0.04852   0.00000      0.000  -0.000  -0.000
   26  5 2Ppx       0.02538   0.00000     -0.000   0.000  -0.000
   26     Total     0.79681   0.00000     -0.000  -0.000  -0.000

   27  1 1s         0.35963   0.00000      0.000  -0.000   0.000
   27  2 1s         0.20435   0.00000     -0.000   0.000  -0.000
   27  3 2Ppy       0.08885   0.00000     -0.000   0.000   0.000
   27  4 2Ppz       0.06011   0.00000      0.000   0.000   0.000
   27  5 2Ppx       0.12582   0.00000      0.000  -0.000  -0.000
   27     Total     0.83877   0.00000      0.000  -0.000   0.000

   29  1 1s         0.49060   0.00000     -0.000   0.000  -0.000
   29  2 1s         0.18807   0.00000      0.000   0.000  -0.000
   29  3 2Ppy       0.02477   0.00000     -0.000  -0.000   0.000
   29  4 2Ppz       0.03512   0.00000     -0.000  -0.000  -0.000
   29  5 2Ppx       0.02820   0.00000      0.000  -0.000  -0.000
   29     Total     0.76674   0.00000     -0.000  -0.000  -0.000

----------------------------------------------------------------
Total              98.00000   0.00000      0.000  -0.000   0.000


siesta: Eigenvalues (eV):
ik =     1
  -23.6153  -23.6153  -23.2737  -23.2737  -21.5655  -21.5655  -21.2726  -21.2726  -20.7837  -20.7837
  -20.4314  -20.4314  -20.0044  -20.0044  -19.6396  -19.6396  -19.4524  -19.4524  -19.3295  -19.3295
  -14.7696  -14.7696  -13.9346  -13.9346  -13.3570  -13.3570  -13.2979  -13.2979  -13.1203  -13.1203
  -12.9056  -12.9056  -12.4648  -12.4648  -12.1632  -12.1632  -12.1001  -12.1001  -11.9893  -11.9893
  -10.9629  -10.9629  -10.7728  -10.7728  -10.5520  -10.5520  -10.2291  -10.2291  -10.1444  -10.1444
   -9.7586   -9.7586   -9.1623   -9.1623   -8.9182   -8.9182   -8.8508   -8.8508   -8.8331   -8.8331
   -8.4277   -8.4277   -8.4094   -8.4094   -8.2755   -8.2755   -8.0053   -8.0053   -7.7349   -7.7349
   -7.6335   -7.6335   -7.5934   -7.5934   -7.4104   -7.4104   -7.2850   -7.2850   -6.9605   -6.9605
   -6.7822   -6.7822   -6.7027   -6.7027   -6.5123   -6.5123   -6.4173   -6.4173   -6.1721   -6.1721
   -5.9434   -5.9434   -5.7940   -5.7940   -5.5076   -5.5076   -4.3295   -4.3295   -3.2219   -3.2219
   -2.3831   -2.3831   -2.2484   -2.2484   -2.1632   -2.1632   -1.9346   -1.9346   -1.9087   -1.9087
   -1.8372   -1.8372   -1.6466   -1.6466   -1.5424   -1.5424   -1.1939   -1.1939   -0.9932   -0.9932
   -0.9382   -0.9382   -0.5404   -0.5404   -0.4024   -0.4024   -0.2901   -0.2901    0.4374    0.4374
    0.5110    0.5110    0.5460    0.5460    0.7305    0.7305    1.0393    1.0393    1.1475    1.1475
    1.4028    1.4028    1.4163    1.4163    1.5799    1.5799    1.6648    1.6648    2.0825    2.0825
    2.2034    2.2034    2.6469    2.6469    2.6983    2.6983    2.7736    2.7736    2.9162    2.9162
    3.0912    3.0912    3.2544    3.2544    3.4296    3.4296    3.5552    3.5552    3.7827    3.7827
    3.9713    3.9713    4.1007    4.1007    4.1318    4.1318    4.3191    4.3191    4.5695    4.5695
    4.6194    4.6194    4.8097    4.8097    4.9935    4.9935    5.0096    5.0096    5.3267    5.3267
    5.3507    5.3507    5.6500    5.6500    5.7349    5.7349    5.8951    5.8951    5.9626    5.9626
    6.1817    6.1817    6.4078    6.4078    6.4521    6.4521    6.5589    6.5589    6.7100    6.7100
    7.0334    7.0334    7.1531    7.1531    7.2344    7.2344    7.3592    7.3592    7.3673    7.3673
    7.5886    7.5886    7.7175    7.7175    7.7872    7.7872    8.0574    8.0574    8.1219    8.1219
    8.3089    8.3089    8.6329    8.6329    8.6484    8.6484    8.7921    8.7921    8.8177    8.8177
    8.9955    8.9955    9.1373    9.1373    9.4713    9.4713    9.5917    9.5917    9.8763    9.8763
    9.9049    9.9049   10.0723   10.0723   10.1355   10.1355   10.3875   10.3875   10.5075   10.5075
   10.9208   10.9208   11.0341   11.0341   11.3507   11.3507   11.4278   11.4278   11.4729   11.4729
   11.4901   11.4901   11.9257   11.9257   12.3943   12.3943   12.5773   12.5773   12.5812   12.5812
   12.6957   12.6957   12.9326   12.9326   13.3823   13.3823   13.6902   13.6902   13.7120   13.7120
   13.7141   13.7141   13.9645   13.9645   14.2906   14.2906   14.4007   14.4007   14.5042   14.5042
   15.0414   15.0414   15.2193   15.2193   15.4027   15.4027   15.5936   15.5936   15.6080   15.6080
   16.1647   16.1647   16.7854   16.7854   16.8086   16.8086   17.1784   17.1784   17.3162   17.3162
   17.6499   17.6499   17.9155   17.9155   18.7647   18.7647   19.1445   19.1445   19.6399   19.6399
   19.9106   19.9106   20.2651   20.2651   20.4881   20.4881   21.1338   21.1338   21.1842   21.1842
   21.4236   21.4236   22.2300   22.2300   22.5214   22.5214   23.2338   23.2338   23.5602   23.5602
   23.8470   23.8470   24.1984   24.1984   24.4647   24.4647   25.0357   25.0357   25.2803   25.2803
   26.4236   26.4236   26.7214   26.7214   27.3225   27.3225   28.1323   28.1323   29.0383   29.0383
   29.5000   29.5000   29.6982   29.6982   30.2633   30.2633   30.4537   30.4537   30.9095   30.9095
   30.9513   30.9513   31.0364   31.0364   31.4845   31.4845   31.8397   31.8397   31.9153   31.9153
   33.7213   33.7213   34.0289   34.0289   34.0301   34.0301   34.2470   34.2470   35.4414   35.4414
   35.5867   35.5867   35.6149   35.6149   36.5188   36.5188   36.7737   36.7737   36.9411   36.9411
   37.1746   37.1746   37.5907   37.5907   38.1313   38.1313   38.9836   38.9836   39.0452   39.0452
   39.5661   39.5661   39.7262   39.7262   39.8686   39.8686   40.4472   40.4472   40.5784   40.5784
   40.9338   40.9338   41.1937   41.1937   42.0269   42.0269   42.3184   42.3184   42.3320   42.3320
   42.6936   42.6936   43.3507   43.3507   43.5518   43.5518   43.6487   43.6487   44.0534   44.0534
   44.7649   44.7649   44.8567   44.8567   44.8633   44.8633   45.2746   45.2746   45.5019   45.5019
   45.5840   45.5840   46.3318   46.3318   46.7440   46.7440   47.0232   47.0232   47.1517   47.1517
   48.0803   48.0803   48.3480   48.3480   49.9183   49.9183   50.0770   50.0770   50.3558   50.3558
   50.7339   50.7339   50.7556   50.7556   51.0060   51.0060   51.7022   51.7022   52.7746   52.7746
   53.4467   53.4467   53.5930   53.5930   54.1762   54.1762   54.8916   54.8916   55.2100   55.2100
   55.7317   55.7317   55.9952   55.9952   56.6320   56.6320   57.2738   57.2738   57.4712   57.4712
   57.9641   57.9641   58.0713   58.0713   58.8718   58.8718   59.8148   59.8148   60.5833   60.5833
   60.8439   60.8439   61.3034   61.3034   62.0735   62.0735   63.0025   63.0025   63.3273   63.3273
   65.0072   65.0072   65.1479   65.1479   66.1052   66.1052   66.6966   66.6966   67.4679   67.4679
   68.7000   68.7000   69.7026   69.7026   71.3045   71.3045   72.8610   72.8610   75.4829   75.4829
   76.8080   76.8080   78.6042   78.6042   79.1430   79.1430   80.2817   80.2817   90.2927   90.2927
   92.3858   92.3858   92.8219   92.8219   96.0132   96.0132   99.4120   99.4120   99.7571   99.7571
  102.6357  102.6357  104.2694  104.2694  106.6862  106.6862  108.8025  108.8025  112.1107  112.1107
  119.4690  119.4690  120.9634  120.9634  126.4642  126.4642  129.8646  129.8646  141.8303  141.8303
  145.5233  145.5233  148.4349  148.4349
siesta: Fermi energy =      -3.775426 eV

siesta: Program's energy decomposition (eV):
siesta: Ebs     =     -1139.103142
siesta: Eions   =      3585.165840
siesta: Ena     =       384.294816
siesta: Ekin    =      2926.435355
siesta: Enl     =     -2808.410833
siesta: Eso     =        -0.004389
siesta: Edftu   =         0.000000
siesta: DEna    =        48.515566
siesta: DUscf   =        13.845569
siesta: DUext   =         0.000000
siesta: Exc     =     -1126.644700
siesta: eta*DQ  =         0.000000
siesta: Emadel  =         0.000000
siesta: Emeta   =         0.000000
siesta: Emolmec =         0.000000
siesta: Ekinion =         0.000000
siesta: Eharris =     -4147.134456
siesta: Etot    =     -4147.134456
siesta: FreeEng =     -4147.134456

siesta: Final energy (eV):
siesta:  Band Struct. =   -1139.103142
siesta:       Kinetic =    2926.435355
siesta:       Hartree =    9281.362594
siesta:       Edftu   =       0.000000
siesta:       Eso     =      -0.004389
siesta:    Ext. field =       0.000000
siesta:   Exch.-corr. =   -1126.644700
siesta:  Ion-electron =  -21165.360071
siesta:       Ion-ion =    5937.076754
siesta:       Ekinion =       0.000000
siesta:         Total =   -4147.134456
siesta:         Fermi =      -3.775426

siesta: Atomic forces (eV/Ang):
siesta:      1   -5.268195    0.817892   -0.000000
siesta:      2   -0.031022   -0.004977    0.000000
siesta:      3   -0.560071   -0.036932    0.000000
siesta:      4   -0.376374   -0.006419    0.000000
siesta:      5   -0.021707    0.060702   -0.000000
siesta:      6   -2.150378   -1.423802   -0.000000
siesta:      7   -0.011960    0.125487    0.000000
siesta:      8    0.181399   -0.151554   -0.000000
siesta:      9   -0.036995   -0.741018   -0.000000
siesta:     10    0.393726   -0.287905    0.000000
siesta:     11    0.013384    0.007605    0.000000
siesta:     12    0.319308    0.226811   -0.000000
siesta:     13   -0.155180    0.102743   -0.000000
siesta:     14   -0.157165   -0.242274   -0.000000
siesta:     15    0.063366    0.276966   -0.000000
siesta:     16   -0.027949   -0.177580    0.000000
siesta:     17   -0.380544    0.671031    0.000000
siesta:     18    0.104506   -0.114440    0.000000
siesta:     19    0.252003    0.586900    0.000000
siesta:     20    0.028222    0.218071   -0.000000
siesta:     21    0.337180   -0.327647   -0.000000
siesta:     22    2.642732    1.806350    0.000000
siesta:     23   -0.164403   -0.255985    0.000000
siesta:     24   -0.073937    0.121467    0.000000
siesta:     25    0.070728   -0.128861    0.000000
siesta:     26    0.277635    0.250658    0.000000
siesta:     27   -0.218384   -0.335664   -0.000000
siesta:     28   -0.779286    0.887577   -0.000000
siesta:     29    0.024428    0.064550   -0.000000
siesta: ----------------------------------------
siesta:    Tot   -5.704933    1.989753    0.000000

siesta: Stress tensor (static) (eV/Ang**3):
siesta:    -0.002382   -0.002251   -0.000000
siesta:    -0.002251   -0.002119   -0.000000
siesta:     0.000000   -0.000000   -0.000060

siesta: Cell volume =       4288.976333 Ang**3

siesta: Pressure (static):
siesta:                Solid            Molecule  Units
siesta:           0.00001656         -0.00000160  Ry/Bohr**3
siesta:           0.00152040         -0.00014665  eV/Ang**3
siesta:           2.43597093         -0.23496913  kBar
(Free)E+ p_basis*V_orbitals  =       -4127.284039
(Free)Eharris+ p_basis*V_orbitals  =       -4127.284039
     spin moment: S , {S} =    0.00000   0.00000  -0.00000   0.00000

siesta: Electric dipole (a.u.)  =    1.587792    0.182567    0.000000
siesta: Electric dipole (Debye) =    4.035767    0.464038    0.000000

cite: Please see "GC.bib" for an exhaustive BiBTeX file.
cite: Please clearly indicate Siesta version in published work: v4.1.5-1-g384057250
cite: This calculation has made use of the following articles
cite: which are encouraged to be cited in a published work.
        Primary SIESTA paper
          DOI: www.doi.org/10.1088/0953-8984/14/11/302
        Spin-orbit coupling (on-site approximation)
          DOI: www.doi.org/10.1088/0953-8984/19/19/489001


WARNING: alloc-realloc-dealloc name mismatch
         Name: atomlist isa
         Size:              -116. Bytes
         Node:     0
         Subsequent mismatches will not be reported
>> End of run:   4-JUL-2023   8:59:07
Job completed
