Siesta Version  : v4.1.5-1-g384057250
Architecture    : gcc
Compiler version: GNU Fortran (Debian 10.2.1-6) 10.2.1 20210110
Compiler flags  : mpifort -O2 -fPIC -ftree-vectorize -fallow-argument-mismatch
PP flags        : -DFC_HAVE_ABORT -DMPI -DSIESTA__FLOOK -DSIESTA__METIS -DSIESTA__MUMPS -DCDF -DNCDF -DNCDF_4 -DNCDF_PARALLEL -DSIESTA__MRRR -DSIESTA__ELPA
Libraries       : libncdf.a libfdict.a  -lflookall -ldl -lnetcdff -lnetcdf -lhdf5_hl -lhdf5 -lhdf5_fortran -lz -lscalapack-openmpi -lopenblas -lmetis -lzmumps -lcmumps -ldmumps -lmumps_common -lpord -lsmumps -lesmumps -lscotch -lscotcherr -fopenmp -lelpa
PARALLEL version
NetCDF support
NetCDF-4 support
NetCDF-4 MPI-IO support
METIS ordering support
Lua support

* Running on 6 nodes in parallel
>> Start of run:  16-OCT-2023  19:14:25

                           ***********************       
                           *  WELCOME TO SIESTA  *       
                           ***********************       

reinit: Reading from standard input
reinit: Dumped input in INPUT_TMP.21295
************************** Dump of input data file ****************************
# mpirun -np 4 siesta-4.1.5 < GC.fdf > GC.out &
SystemLabel      GC
NumberOfAtoms    29
NumberOfSpecies  4
%block ChemicalSpeciesLabel
    1    1  H
    2    7  N
    3   14  Si
    4    8  O
%endblock ChemicalSpeciesLabel
############################################
# This overrides Defaults.fdf configuration
############################################
MD.TypeOfRun                CG # CG, Verlet
MD.Steps                    0
MaxSCFIterations            600
AtomicCoordinatesFormat NotScaledCartesianAng
%block AtomicCoordinatesAndAtomicSpecies
    -1.2267445597746267 6.962755643184425 0.0  1  1  H
    -1.9332312897746267 6.172719463184425 0.0  2  2  N
    -3.663518199774627 6.614083373184425 0.0  3  3  Si
    -3.8192978797746266 8.104075633184426 0.0  1  4  H
    -5.186839819774627 5.055175853184425 0.0  3  5  Si
    -6.6700274497746275 5.298006213184426 0.0  1  6  H
    -3.988448959774627 3.141899693184425 0.0  3  7  Si
    -4.754474419774627 1.609182953184425 0.0  2  8  N
    -4.164227869774627 0.6519699231844251 0.0  1  9  H
    -5.806096739774627 1.5287227231844251 0.0  1  10  H
    -2.2722488997746266 3.197074003184425 0.0  2  11  N
    -1.1972262797746267 4.527412843184425 0.0  3  12  Si
    0.41144704022537315 4.508602583184425 0.0  4  13  O
    5.6164483 -7.44953905 0.0  1  14  H
    4.58206954 -7.2320376 0.0  2  15  N
    3.29666389 -8.492636 0.0  3  16  Si
    3.80117524 -9.90371886 -0.0  1  17  H
    1.65934232 -8.01362137 0.0  2  18  N
    1.68097912 -6.20463398 -0.0  3  19  Si
    0.54543521 -4.28636135 0.0  3  20  Si
    -1.03431493 -3.94450034 0.0  4  21  O
    1.73226934 -2.87719605 0.0  2  22  N
    1.20957366 -1.92961761 -0.0  1  23  H
    3.50853448 -2.77677601 0.0  3  24  Si
    4.13684451 -1.17938608 0.0  2  25  N
    3.54296161 -0.26248101 0.0  1  26  H
    5.18364407 -1.05231197 -0.0  1  27  H
    4.63288658 -4.07521596 -0.0  2  28  N
    3.79410501 -5.58634043 0.0  3  29  Si
%endblock AtomicCoordinatesAndAtomicSpecies
%include ../../../../Defaults.fdf
************************** End of input data file *****************************

reinit: -----------------------------------------------------------------------
reinit: System Name: 
reinit: -----------------------------------------------------------------------
reinit: System Label: GC
reinit: -----------------------------------------------------------------------

initatom: Reading input for the pseudopotentials and atomic orbitals ----------
Species number:   1 Atomic number:    1 Label: H
Species number:   2 Atomic number:    7 Label: N
Species number:   3 Atomic number:   14 Label: Si
Species number:   4 Atomic number:    8 Label: O

Ground state valence configuration:   1s01
Reading pseudopotential information in formatted form from H.psf

Pseudopotential generated from a relativistic atomic calculation

Valence configuration for pseudopotential generation:
1s( 1.00) rc: 0.01
2p( 0.00) rc: 0.60
3d( 0.00) rc: 1.99
4f( 0.00) rc: 2.49
Ground state valence configuration:   2s02  2p03
Reading pseudopotential information in formatted form from N.psf

Pseudopotential generated from a relativistic atomic calculation

Valence configuration for pseudopotential generation:
2s( 2.00) rc: 0.94
2p( 3.00) rc: 0.59
3d( 0.00) rc: 3.46
4f( 0.00) rc: 2.47
Ground state valence configuration:   3s02  3p02
Reading pseudopotential information in formatted form from Si.psf

Pseudopotential generated from a relativistic atomic calculation

Valence configuration for pseudopotential generation:
3s( 2.00) rc: 1.67
3p( 2.00) rc: 2.04
3d( 0.00) rc: 2.89
4f( 0.00) rc: 2.49
Ground state valence configuration:   2s02  2p04
Reading pseudopotential information in formatted form from O.psf

Pseudopotential generated from a relativistic atomic calculation

Valence configuration for pseudopotential generation:
2s( 2.00) rc: 0.45
2p( 4.00) rc: 0.92
3d( 0.00) rc: 2.24
4f( 0.00) rc: 0.25
For H, standard SIESTA heuristics set lmxkb to 2
 (one more than the basis l, including polarization orbitals).
Use PS.lmax or PS.KBprojectors blocks to override.
For N, standard SIESTA heuristics set lmxkb to 3
 (one more than the basis l, including polarization orbitals).
Use PS.lmax or PS.KBprojectors blocks to override.
For Si, standard SIESTA heuristics set lmxkb to 3
 (one more than the basis l, including polarization orbitals).
Use PS.lmax or PS.KBprojectors blocks to override.
For O, standard SIESTA heuristics set lmxkb to 3
 (one more than the basis l, including polarization orbitals).
Use PS.lmax or PS.KBprojectors blocks to override.

<basis_specs>
===============================================================================
H                    Z=   1    Mass=  1.0100        Charge= 0.17977+309
Lmxo=0 Lmxkb= 2    BasisType=split      Semic=F
L=0  Nsemic=0  Cnfigmx=1
          i=1  nzeta=2  polorb=1  (1s)
            splnorm:   0.62000    
               vcte:    0.0000    
               rinn:    0.0000    
               qcoe:    0.0000    
               qyuk:    0.0000    
               qwid:   0.10000E-01
                rcs:    0.0000      0.0000    
            lambdas:    1.0000      1.0000    
-------------------------------------------------------------------------------
L=0  Nkbl=1  erefs: 0.17977+309
L=1  Nkbl=1  erefs: 0.17977+309
L=2  Nkbl=1  erefs: 0.17977+309
===============================================================================
</basis_specs>

atom: Called for H                     (Z =   1)

read_vps: Pseudopotential generation method:
read_vps: ATM4.2.7  Troullier-Martins                       
Valence charge for ps generation:    1.00000

xc_check: Exchange-correlation functional:
xc_check: GGA Perdew, Burke & Ernzerhof 1996
V l=0 = -2*Zval/r beyond r=  0.0098
V l=1 = -2*Zval/r beyond r=  0.5817
V l=2 = -2*Zval/r beyond r=  1.9372
All V_l potentials equal beyond r=  1.9372
This should be close to max(r_c) in ps generation
All pots = -2*Zval/r beyond r=  1.9372

VLOCAL1: 99.0% of the norm of Vloc inside     11.567 Ry
VLOCAL1: 99.9% of the norm of Vloc inside     26.362 Ry
atom: Maximum radius for 4*pi*r*r*local-pseudopot. charge    2.25106
atom: Maximum radius for r*vlocal+2*Zval:    1.91306
GHOST: No ghost state for L =  0
GHOST: No ghost state for L =  1
GHOST: No ghost state for L =  2

KBgen: Kleinman-Bylander projectors: 
   l= 0   rc=  2.036604   el= -0.477180   Ekb= -6.081590   kbcos= -0.277285
   l= 1   rc=  2.195416   el=  0.001076   Ekb= -0.926943   kbcos= -0.034643
   l= 2   rc=  2.251056   el=  0.002010   Ekb= -0.130941   kbcos= -0.009788

KBgen: Total number of Kleinman-Bylander projectors:    9
atom: -------------------------------------------------------------------------

atom: SANKEY-TYPE ORBITALS:
atom: Selected multiple-zeta basis: split     

SPLIT: Orbitals with angular momentum L= 0

SPLIT: Basis orbitals for state 1s

SPLIT: PAO cut-off radius determined from an
SPLIT: energy shift=  0.002000 Ry

   izeta = 1
                 lambda =    1.000000
                     rc =    6.518340
                 energy =   -0.475305
                kinetic =    0.912139
    potential(screened) =   -1.387444
       potential(ionic) =   -1.907295

   izeta = 2
                 rmatch =    2.141150
              splitnorm =    0.620000
                 energy =    0.566467
                kinetic =    3.772856
    potential(screened) =   -3.206389
       potential(ionic) =   -3.759093

POLgen: Perturbative polarization orbital with L=  1

POLgen: Polarization orbital for state 1s

   izeta = 1
                     rc =    6.518340
                 energy =    0.533861
                kinetic =    1.121086
    potential(screened) =   -0.587225
       potential(ionic) =   -1.053027
atom: Total number of Sankey-type orbitals:  5

atm_pop: Valence configuration (for local Pseudopot. screening):
 1s( 1.00)                                                            
Vna: chval, zval:    1.00000   1.00000

Vna:  Cut-off radius for the neutral-atom potential:   6.518340

atom: _________________________________________________________________________

<basis_specs>
===============================================================================
N                    Z=   7    Mass=  14.010        Charge= 0.17977+309
Lmxo=1 Lmxkb= 3    BasisType=split      Semic=F
L=0  Nsemic=0  Cnfigmx=2
          i=1  nzeta=2  polorb=0  (2s)
            splnorm:   0.28000    
               vcte:    0.0000    
               rinn:    0.0000    
               qcoe:    0.0000    
               qyuk:    0.0000    
               qwid:   0.10000E-01
                rcs:    0.0000      0.0000    
            lambdas:    1.0000      1.0000    
L=1  Nsemic=0  Cnfigmx=2
          i=1  nzeta=2  polorb=1  (2p)
            splnorm:   0.28000    
               vcte:    0.0000    
               rinn:    0.0000    
               qcoe:    0.0000    
               qyuk:    0.0000    
               qwid:   0.10000E-01
                rcs:    0.0000      0.0000    
            lambdas:    1.0000      1.0000    
-------------------------------------------------------------------------------
L=0  Nkbl=1  erefs: 0.17977+309
L=1  Nkbl=1  erefs: 0.17977+309
L=2  Nkbl=1  erefs: 0.17977+309
L=3  Nkbl=1  erefs: 0.17977+309
===============================================================================
</basis_specs>

atom: Called for N                     (Z =   7)

read_vps: Pseudopotential generation method:
read_vps: ATM4.2.7  Troullier-Martins                       
Valence charge for ps generation:    5.00000

xc_check: Exchange-correlation functional:
xc_check: GGA Perdew, Burke & Ernzerhof 1996
V l=0 = -2*Zval/r beyond r=  1.2889
V l=1 = -2*Zval/r beyond r=  1.2889
V l=2 = -2*Zval/r beyond r=  3.4178
V l=3 = -2*Zval/r beyond r=  2.4084
All V_l potentials equal beyond r=  3.3753
This should be close to max(r_c) in ps generation
All pots = -2*Zval/r beyond r=  3.4178

VLOCAL1: 99.0% of the norm of Vloc inside      3.810 Ry
VLOCAL1: 99.9% of the norm of Vloc inside      8.683 Ry
atom: Maximum radius for 4*pi*r*r*local-pseudopot. charge    4.02088
atom: Maximum radius for r*vlocal+2*Zval:    3.54838
GHOST: No ghost state for L =  0
GHOST: No ghost state for L =  1
GHOST: No ghost state for L =  2
GHOST: No ghost state for L =  3

KBgen: Kleinman-Bylander projectors: 
   l= 0   rc=  3.417763   el= -1.365098   Ekb= -4.433130   kbcos= -0.707855
   l= 1   rc=  3.375302   el= -0.521201   Ekb=-13.264039   kbcos= -0.535594
   l= 2   rc=  3.872880   el=  0.001991   Ekb= -0.641094   kbcos= -0.062456
   l= 3   rc=  3.970931   el=  0.003093   Ekb= -0.474517   kbcos= -0.018236

KBgen: Total number of Kleinman-Bylander projectors:   16
atom: -------------------------------------------------------------------------

atom: SANKEY-TYPE ORBITALS:
atom: Selected multiple-zeta basis: split     

SPLIT: Orbitals with angular momentum L= 0

SPLIT: Basis orbitals for state 2s

SPLIT: PAO cut-off radius determined from an
SPLIT: energy shift=  0.002000 Ry

   izeta = 1
                 lambda =    1.000000
                     rc =    4.730425
                 energy =   -1.363399
                kinetic =    1.245246
    potential(screened) =   -2.608645
       potential(ionic) =   -8.121105

   izeta = 2
                 rmatch =    2.531849
              splitnorm =    0.280000
                 energy =   -0.959908
                kinetic =    2.409435
    potential(screened) =   -3.369343
       potential(ionic) =   -9.427975

SPLIT: Orbitals with angular momentum L= 1

SPLIT: Basis orbitals for state 2p

SPLIT: PAO cut-off radius determined from an
SPLIT: energy shift=  0.002000 Ry

   izeta = 1
                 lambda =    1.000000
                     rc =    5.924108
                 energy =   -0.519262
                kinetic =    3.672940
    potential(screened) =   -4.192202
       potential(ionic) =   -9.518354

   izeta = 2
                 rmatch =    2.531849
              splitnorm =    0.280000
                 energy =   -0.104258
                kinetic =    6.807538
    potential(screened) =   -6.911796
       potential(ionic) =  -13.149920

POLgen: Perturbative polarization orbital with L=  2

POLgen: Polarization orbital for state 2p

   izeta = 1
                     rc =    5.924108
                 energy =    1.427508
                kinetic =    2.872379
    potential(screened) =   -1.444871
       potential(ionic) =   -5.563644
atom: Total number of Sankey-type orbitals: 13

atm_pop: Valence configuration (for local Pseudopot. screening):
 2s( 2.00)                                                            
 2p( 3.00)                                                            
Vna: chval, zval:    5.00000   5.00000

Vna:  Cut-off radius for the neutral-atom potential:   5.924108

atom: _________________________________________________________________________

<basis_specs>
===============================================================================
Si                   Z=  14    Mass=  28.090        Charge= 0.17977+309
Lmxo=1 Lmxkb= 3    BasisType=split      Semic=F
L=0  Nsemic=0  Cnfigmx=3
          i=1  nzeta=2  polorb=0  (3s)
            splnorm:   0.28000    
               vcte:    0.0000    
               rinn:    0.0000    
               qcoe:    0.0000    
               qyuk:    0.0000    
               qwid:   0.10000E-01
                rcs:    0.0000      0.0000    
            lambdas:    1.0000      1.0000    
L=1  Nsemic=0  Cnfigmx=3
          i=1  nzeta=2  polorb=1  (3p)
            splnorm:   0.28000    
               vcte:    0.0000    
               rinn:    0.0000    
               qcoe:    0.0000    
               qyuk:    0.0000    
               qwid:   0.10000E-01
                rcs:    0.0000      0.0000    
            lambdas:    1.0000      1.0000    
-------------------------------------------------------------------------------
L=0  Nkbl=1  erefs: 0.17977+309
L=1  Nkbl=1  erefs: 0.17977+309
L=2  Nkbl=1  erefs: 0.17977+309
L=3  Nkbl=1  erefs: 0.17977+309
===============================================================================
</basis_specs>

atom: Called for Si                    (Z =  14)

read_vps: Pseudopotential generation method:
read_vps: ATM4.2.7  Troullier-Martins                       
Valence charge for ps generation:    4.00000

xc_check: Exchange-correlation functional:
xc_check: GGA Perdew, Burke & Ernzerhof 1996
V l=0 = -2*Zval/r beyond r=  2.7826
V l=1 = -2*Zval/r beyond r=  2.7826
V l=2 = -2*Zval/r beyond r=  2.9253
V l=3 = -2*Zval/r beyond r=  2.7826
All V_l potentials equal beyond r=  2.8530
This should be close to max(r_c) in ps generation
All pots = -2*Zval/r beyond r=  2.9253

VLOCAL1: 99.0% of the norm of Vloc inside      5.333 Ry
VLOCAL1: 99.9% of the norm of Vloc inside     12.154 Ry
atom: Maximum radius for 4*pi*r*r*local-pseudopot. charge    3.39869
atom: Maximum radius for r*vlocal+2*Zval:    2.96205
GHOST: No ghost state for L =  0
GHOST: No ghost state for L =  1
GHOST: No ghost state for L =  2
GHOST: No ghost state for L =  3

KBgen: Kleinman-Bylander projectors: 
   l= 0   rc=  3.075247   el= -0.794092   Ekb=  5.879390   kbcos=  0.167461
   l= 1   rc=  3.153101   el= -0.300068   Ekb=  2.642817   kbcos=  0.058301
   l= 2   rc=  3.273594   el=  0.001958   Ekb= -1.185135   kbcos= -0.104411
   l= 3   rc=  3.232927   el=  0.003046   Ekb= -0.497174   kbcos= -0.015889

KBgen: Total number of Kleinman-Bylander projectors:   16
atom: -------------------------------------------------------------------------

atom: SANKEY-TYPE ORBITALS:
atom: Selected multiple-zeta basis: split     

SPLIT: Orbitals with angular momentum L= 0

SPLIT: Basis orbitals for state 3s

SPLIT: PAO cut-off radius determined from an
SPLIT: energy shift=  0.002000 Ry

   izeta = 1
                 lambda =    1.000000
                     rc =    6.429618
                 energy =   -0.792283
                kinetic =    0.525293
    potential(screened) =   -1.317576
       potential(ionic) =   -3.744923

   izeta = 2
                 rmatch =    3.998416
              splitnorm =    0.280000
                 energy =   -0.583081
                kinetic =    1.069570
    potential(screened) =   -1.652651
       potential(ionic) =   -4.235185

SPLIT: Orbitals with angular momentum L= 1

SPLIT: Basis orbitals for state 3p

SPLIT: PAO cut-off radius determined from an
SPLIT: energy shift=  0.002000 Ry

   izeta = 1
                 lambda =    1.000000
                     rc =    8.464845
                 energy =   -0.298236
                kinetic =    0.785360
    potential(screened) =   -1.083596
       potential(ionic) =   -3.273779

   izeta = 2
                 rmatch =    4.587816
              splitnorm =    0.280000
                 energy =   -0.131871
                kinetic =    1.403687
    potential(screened) =   -1.535557
       potential(ionic) =   -4.015310

POLgen: Perturbative polarization orbital with L=  2

POLgen: Polarization orbital for state 3p

   izeta = 1
                     rc =    8.464845
                 energy =    0.321949
                kinetic =    1.055677
    potential(screened) =   -0.733728
       potential(ionic) =   -2.672950
atom: Total number of Sankey-type orbitals: 13

atm_pop: Valence configuration (for local Pseudopot. screening):
 3s( 2.00)                                                            
 3p( 2.00)                                                            
Vna: chval, zval:    4.00000   4.00000

Vna:  Cut-off radius for the neutral-atom potential:   8.464845

atom: _________________________________________________________________________

<basis_specs>
===============================================================================
O                    Z=   8    Mass=  16.000        Charge= 0.17977+309
Lmxo=1 Lmxkb= 3    BasisType=split      Semic=F
L=0  Nsemic=0  Cnfigmx=2
          i=1  nzeta=2  polorb=0  (2s)
            splnorm:   0.28000    
               vcte:    0.0000    
               rinn:    0.0000    
               qcoe:    0.0000    
               qyuk:    0.0000    
               qwid:   0.10000E-01
                rcs:    0.0000      0.0000    
            lambdas:    1.0000      1.0000    
L=1  Nsemic=0  Cnfigmx=2
          i=1  nzeta=2  polorb=1  (2p)
            splnorm:   0.28000    
               vcte:    0.0000    
               rinn:    0.0000    
               qcoe:    0.0000    
               qyuk:    0.0000    
               qwid:   0.10000E-01
                rcs:    0.0000      0.0000    
            lambdas:    1.0000      1.0000    
-------------------------------------------------------------------------------
L=0  Nkbl=1  erefs: 0.17977+309
L=1  Nkbl=1  erefs: 0.17977+309
L=2  Nkbl=1  erefs: 0.17977+309
L=3  Nkbl=1  erefs: 0.17977+309
===============================================================================
</basis_specs>

atom: Called for O                     (Z =   8)

read_vps: Pseudopotential generation method:
read_vps: ATM4.2.7  Troullier-Martins                       
Valence charge for ps generation:    6.00000

xc_check: Exchange-correlation functional:
xc_check: GGA Perdew, Burke & Ernzerhof 1996
V l=0 = -2*Zval/r beyond r=  1.1000
V l=1 = -2*Zval/r beyond r=  1.1000
V l=2 = -2*Zval/r beyond r=  2.2154
V l=3 = -2*Zval/r beyond r=  1.1000
All V_l potentials equal beyond r=  2.2154
This should be close to max(r_c) in ps generation
All pots = -2*Zval/r beyond r=  2.2154

VLOCAL1: 99.0% of the norm of Vloc inside      8.845 Ry
VLOCAL1: 99.9% of the norm of Vloc inside     20.157 Ry
atom: Maximum radius for 4*pi*r*r*local-pseudopot. charge    2.67231
atom: Maximum radius for r*vlocal+2*Zval:    2.32897
GHOST: No ghost state for L =  0
GHOST: No ghost state for L =  1
GHOST: No ghost state for L =  2
GHOST: No ghost state for L =  3

KBgen: Kleinman-Bylander projectors: 
   l= 0   rc=  2.243238   el= -1.759686   Ekb=**********   kbcos= -0.171774
   l= 1   rc=  2.328968   el= -0.663873   Ekb=-14.506792   kbcos= -0.519897
   l= 2   rc=  2.573941   el=  0.002031   Ekb= -1.137373   kbcos= -0.019581
   l= 3   rc=  2.606321   el=  0.003153   Ekb= -1.013546   kbcos= -0.003122

KBgen: Total number of Kleinman-Bylander projectors:   16
atom: -------------------------------------------------------------------------

atom: SANKEY-TYPE ORBITALS:
atom: Selected multiple-zeta basis: split     

SPLIT: Orbitals with angular momentum L= 0

SPLIT: Basis orbitals for state 2s

SPLIT: PAO cut-off radius determined from an
SPLIT: energy shift=  0.002000 Ry

   izeta = 1
                 lambda =    1.000000
                     rc =    4.243912
                 energy =   -1.758270
                kinetic =    3.286084
    potential(screened) =   -5.044353
       potential(ionic) =  -12.921184

   izeta = 2
                 rmatch =    2.187845
              splitnorm =    0.280000
                 energy =   -0.885018
                kinetic =    8.134434
    potential(screened) =   -9.019452
       potential(ionic) =  -17.710645

SPLIT: Orbitals with angular momentum L= 1

SPLIT: Basis orbitals for state 2p

SPLIT: PAO cut-off radius determined from an
SPLIT: energy shift=  0.002000 Ry

   izeta = 1
                 lambda =    1.000000
                     rc =    5.314825
                 energy =   -0.661986
                kinetic =    4.917472
    potential(screened) =   -5.579458
       potential(ionic) =  -13.236259

   izeta = 2
                 rmatch =    2.160663
              splitnorm =    0.280000
                 energy =   -0.068760
                kinetic =    9.183374
    potential(screened) =   -9.252135
       potential(ionic) =  -18.274251

POLgen: Perturbative polarization orbital with L=  2

POLgen: Polarization orbital for state 2p

   izeta = 1
                     rc =    5.314825
                 energy =    1.970580
                kinetic =    3.886128
    potential(screened) =   -1.915547
       potential(ionic) =   -7.749584
atom: Total number of Sankey-type orbitals: 13

atm_pop: Valence configuration (for local Pseudopot. screening):
 2s( 2.00)                                                            
 2p( 4.00)                                                            
Vna: chval, zval:    6.00000   6.00000

Vna:  Cut-off radius for the neutral-atom potential:   5.314825

atom: _________________________________________________________________________

prinput: Basis input ----------------------------------------------------------

PAO.BasisType split     

%block ChemicalSpeciesLabel
    1    1 H                       # Species index, atomic number, species label
    2    7 N                       # Species index, atomic number, species label
    3   14 Si                      # Species index, atomic number, species label
    4    8 O                       # Species index, atomic number, species label
%endblock ChemicalSpeciesLabel

%block PAO.Basis                 # Define Basis set
H                     1                    # Species label, number of l-shells
 n=1   0   2 P   1                   # n, l, Nzeta, Polarization, NzetaPol
   6.518      2.141   
   1.000      1.000   
N                     2                    # Species label, number of l-shells
 n=2   0   2                         # n, l, Nzeta 
   4.730      2.532   
   1.000      1.000   
 n=2   1   2 P   1                   # n, l, Nzeta, Polarization, NzetaPol
   5.924      2.532   
   1.000      1.000   
Si                    2                    # Species label, number of l-shells
 n=3   0   2                         # n, l, Nzeta 
   6.430      3.998   
   1.000      1.000   
 n=3   1   2 P   1                   # n, l, Nzeta, Polarization, NzetaPol
   8.465      4.588   
   1.000      1.000   
O                     2                    # Species label, number of l-shells
 n=2   0   2                         # n, l, Nzeta 
   4.244      2.188   
   1.000      1.000   
 n=2   1   2 P   1                   # n, l, Nzeta, Polarization, NzetaPol
   5.315      2.161   
   1.000      1.000   
%endblock PAO.Basis

prinput: ----------------------------------------------------------------------

Dumping basis to NetCDF file H.ion.nc
Dumping basis to NetCDF file N.ion.nc
Dumping basis to NetCDF file Si.ion.nc
Dumping basis to NetCDF file O.ion.nc
coor:   Atomic-coordinates input format  =     Cartesian coordinates
coor:                                          (in Angstroms)

siesta: Atomic coordinates (Bohr) and species
siesta:     -2.31821  13.15771   0.00000  1        1
siesta:     -3.65328  11.66475   0.00000  2        2
siesta:     -6.92305  12.49881   0.00000  3        3
siesta:     -7.21743  15.31449   0.00000  1        4
siesta:     -9.80171   9.55290   0.00000  3        5
siesta:    -12.60453  10.01178   0.00000  1        6
siesta:     -7.53708   5.93733   0.00000  3        7
siesta:     -8.98466   3.04092   0.00000  2        8
siesta:     -7.86925   1.23205   0.00000  1        9
siesta:    -10.97194   2.88887   0.00000  1       10
siesta:     -4.29393   6.04160   0.00000  2       11
siesta:     -2.26243   8.55557   0.00000  3       12
siesta:      0.77752   8.52003   0.00000  4       13
siesta:     10.61355 -14.07759   0.00000  1       14
siesta:      8.65886 -13.66658   0.00000  2       15
siesta:      6.22979 -16.04876   0.00000  3       16
siesta:      7.18318 -18.71532  -0.00000  1       17
siesta:      3.13570 -15.14356   0.00000  2       18
siesta:      3.17659 -11.72506  -0.00000  3       19
siesta:      1.03072  -8.10005   0.00000  3       20
siesta:     -1.95457  -7.45403   0.00000  4       21
siesta:      3.27352  -5.43711   0.00000  2       22
siesta:      2.28576  -3.64645  -0.00000  1       23
siesta:      6.63017  -5.24735   0.00000  3       24
siesta:      7.81751  -2.22872   0.00000  2       25
siesta:      6.69523  -0.49602   0.00000  1       26
siesta:      9.79567  -1.98858  -0.00000  1       27
siesta:      8.75489  -7.70105  -0.00000  2       28
siesta:      7.16982 -10.55666   0.00000  3       29

siesta: Automatic unit cell vectors (Ang):
siesta:   21.103706    0.000000    0.000000
siesta:    0.000000   27.397157    0.000000
siesta:    0.000000    0.000000    9.854683

siesta: System type = molecule  

initatomlists: Number of atoms, orbitals, and projectors:     29   297   394

siesta: ******************** Simulation parameters ****************************
siesta:
siesta: The following are some of the parameters of the simulation.
siesta: A complete list of the parameters used, including default values,
siesta: can be found in file out.fdf
siesta:
redata: Spin configuration                          = spin-orbit
redata: Number of spin components                   = 8
redata: Time-Reversal Symmetry                      = F
redata: Spin spiral                                 = F
############################################################
This spin-orbit implementation uses a local approximation.
From 4.2 and onwards the full non-local approximation is implemented
You are strongly advised to use >=4.2 versions!
############################################################
redata: Long output                                 =   F
redata: Number of Atomic Species                    =        4
redata: Charge density info will appear in .RHO file
redata: Write Mulliken Pop.                         = NO
redata: Matel table size (NRTAB)                    =     1024
redata: Mesh Cutoff                                 =   340.0000 Ry
redata: Net charge of the system                    =     0.0000 |e|
redata: Min. number of SCF Iter                     =        1
redata: Max. number of SCF Iter                     =      600
redata: SCF convergence failure will abort job
redata: SCF mix quantity                            = Hamiltonian
redata: Mix DM or H after convergence               =   F
redata: Recompute H after scf cycle                 =   F
redata: Mix DM in first SCF step                    =   T
redata: Write Pulay info on disk                    =   F
redata: New DM Occupancy tolerance                  = 0.000000000001
redata: No kicks to SCF
redata: DM Mixing Weight for Kicks                  =     0.5000
redata: Require Harris convergence for SCF          =   F
redata: Harris energy tolerance for SCF             =     0.000100 eV
redata: Require DM convergence for SCF              =   T
redata: DM tolerance for SCF                        =     0.000008
redata: Require EDM convergence for SCF             =   F
redata: EDM tolerance for SCF                       =     0.001000 eV
redata: Require H convergence for SCF               =   T
redata: Hamiltonian tolerance for SCF               =     0.000001 eV
redata: Require (free) Energy convergence for SCF   =   F
redata: (free) Energy tolerance for SCF             =     0.000100 eV
redata: Using Saved Data (generic)                  =   F
redata: Use continuation files for DM               =   T
redata: Neglect nonoverlap interactions             =   F
redata: Method of Calculation                       = Diagonalization
redata: Electronic Temperature                      =   299.9978 K
redata: Fix the spin of the system                  =   F
redata: Dynamics option                             = Single-point calculation
mix.SCF: Pulay mixing                            = Pulay
mix.SCF:    Variant                              = stable
mix.SCF:    History steps                        = 6
mix.SCF:    Linear mixing weight                 =     0.250000
mix.SCF:    Mixing weight                        =     0.250000
mix.SCF:    SVD condition                        = 0.1000E-07
mix.SCF:    Restart steps                        = 24
mix.SCF:    Restart save steps                   = 3
mix.SCF: Spin-component mixing                   all
redata: Save all siesta data in one NC              =   F
redata: ***********************************************************************

%block SCF.Mixers
  Pulay
%endblock SCF.Mixers

%block SCF.Mixer.Pulay
  # Mixing method
  method pulay
  variant stable

  # Mixing options
  weight 0.2500
  weight.linear 0.2500
  history 6
  restart 24
  restart.save 3
%endblock SCF.Mixer.Pulay

DM_history_depth set to one: no extrapolation allowed by default for geometry relaxation
Size of DM history Fstack: 1
Total number of electrons:    98.000000
Total ionic charge:    98.000000

* ProcessorY, Blocksize:    2  24


* Orbital distribution balance (max,min):    57    48


Time-reversal symmetry not used.

siesta: k-grid: Number of k-points =     1
siesta: k-grid: Cutoff (effective) =     4.927 Ang
siesta: k-grid: Supercell and displacements
siesta: k-grid:    1   0   0      0.000
siesta: k-grid:    0   1   0      0.000
siesta: k-grid:    0   0   1      0.000

diag: Algorithm                                     = ELPA-1stage
diag: Parallel over k                               =   F
diag: Use parallel 2D distribution                  =   T
diag: Parallel block-size                           = 24
diag: Parallel distribution                         =     2 x     3
diag: Used triangular part                          = Lower
diag: Absolute tolerance                            =  0.100E-15
diag: Orthogonalization factor                      =  0.100E-05
diag: Memory factor                                 =  1.0000


ts: **************************************************************
ts: Save H and S matrices                           =    F
ts: Save DM and EDM matrices                        =    F
ts: Only save the overlap matrix S                  =    F
ts: **************************************************************

************************ Begin: TS CHECKS AND WARNINGS ************************
************************ End: TS CHECKS AND WARNINGS **************************


                     ====================================
                        Single-point calculation
                     ====================================

outcoor: Atomic coordinates (Ang):                          
   -1.22674456    6.96275564    0.00000000   1       1  H
   -1.93323129    6.17271946    0.00000000   2       2  N
   -3.66351820    6.61408337    0.00000000   3       3  Si
   -3.81929788    8.10407563    0.00000000   1       4  H
   -5.18683982    5.05517585    0.00000000   3       5  Si
   -6.67002745    5.29800621    0.00000000   1       6  H
   -3.98844896    3.14189969    0.00000000   3       7  Si
   -4.75447442    1.60918295    0.00000000   2       8  N
   -4.16422787    0.65196992    0.00000000   1       9  H
   -5.80609674    1.52872272    0.00000000   1      10  H
   -2.27224890    3.19707400    0.00000000   2      11  N
   -1.19722628    4.52741284    0.00000000   3      12  Si
    0.41144704    4.50860258    0.00000000   4      13  O
    5.61644830   -7.44953905    0.00000000   1      14  H
    4.58206954   -7.23203760    0.00000000   2      15  N
    3.29666389   -8.49263600    0.00000000   3      16  Si
    3.80117524   -9.90371886    0.00000000   1      17  H
    1.65934232   -8.01362137    0.00000000   2      18  N
    1.68097912   -6.20463398    0.00000000   3      19  Si
    0.54543521   -4.28636135    0.00000000   3      20  Si
   -1.03431493   -3.94450034    0.00000000   4      21  O
    1.73226934   -2.87719605    0.00000000   2      22  N
    1.20957366   -1.92961761    0.00000000   1      23  H
    3.50853448   -2.77677601    0.00000000   3      24  Si
    4.13684451   -1.17938608    0.00000000   2      25  N
    3.54296161   -0.26248101    0.00000000   1      26  H
    5.18364407   -1.05231197    0.00000000   1      27  H
    4.63288658   -4.07521596    0.00000000   2      28  N
    3.79410501   -5.58634043    0.00000000   3      29  Si

outcell: Unit cell vectors (Ang):
       21.103706    0.000000    0.000000
        0.000000   27.397157    0.000000
        0.000000    0.000000    9.854683

outcell: Cell vector modules (Ang)   :   21.103706   27.397157    9.854683
outcell: Cell angles (23,13,12) (deg):     90.0000     90.0000     90.0000
outcell: Cell volume (Ang**3)        :   5697.7960
<dSpData1D:S at geom step 0
  <sparsity:sparsity for geom step 0
    nrows_g=297 nrows=57 sparsity=.0950 nnzs=8377, refcount: 8>
  <dData1D:(new from dSpData1D) n=8377, refcount: 1>
refcount: 1>
new_DM -- step:     1
Initializing Density Matrix...

Attempting to read DM from file... Failed...
DM filled with atomic data:
<dSpData2D:DM initialized from atoms
  <sparsity:sparsity for geom step 0
    nrows_g=297 nrows=57 sparsity=.0950 nnzs=8377, refcount: 9>
  <dData2D:DM n=8377 m=8, refcount: 1>
refcount: 1>
     spin moment: S , {S} =   56.00000   0.00000   0.00000  56.00000
No. of atoms with KB's overlaping orbs in proc 0. Max # of overlaps:      28     142

Initializing spin-orbit part of the Hamiltonian
  Adding spin-orbit effects for H 
  Adding spin-orbit effects for N 
  Adding spin-orbit effects for Si
  Adding spin-orbit effects for O 


New grid distribution:   1
           1       1:  120    1:   80    1:   20
           2       1:  120    1:   80   21:   40
           3       1:  120    1:   80   41:   60
           4       1:  120   81:  160    1:   20
           5       1:  120   81:  160   21:   40
           6       1:  120   81:  160   41:   60

InitMesh: MESH =   240 x   320 x   120 =     9216000
InitMesh: (bp) =   120 x   160 x    60 =     1152000
InitMesh: Mesh cutoff (required, used) =   340.000   357.443 Ry
ExtMesh (bp) on 0 =   224 x   188 x   132 =     5558784
New grid distribution:   2
           1       1:   89    1:  113    1:   60
           2      90:  120   28:  113    1:   60
           3      90:  120    1:   27    1:   60
           4       1:   15  114:  160    1:   60
           5      16:  120  134:  160    1:   60
           6      16:  120  114:  133    1:   60
New grid distribution:   3
           1       1:   74    1:   94    1:   60
           2      75:  120   31:   94    1:   60
           3      75:  120    1:   30    1:   60
           4       1:   20   95:  160    1:   60
           5      21:  120   95:  133    1:   60
           6      21:  120  134:  160    1:   60
Setting up quadratic distribution...
ExtMesh (bp) on 0 =   193 x   221 x   172 =     7336316
PhiOnMesh: Number of (b)points on node 0 =               603420
PhiOnMesh: nlist on node 0 =              2565896

stepf: Fermi-Dirac step function

siesta: Program's energy decomposition (eV):
siesta: Ebs     =      -625.087464
siesta: Eions   =      3585.165840
siesta: Ena     =       381.828398
siesta: Ekin    =      3368.691247
siesta: Enl     =     -3297.054283
siesta: Eso     =        -0.003411
siesta: Edftu   =         0.000000
siesta: DEna    =       153.487461
siesta: DUscf   =        81.857120
siesta: DUext   =         0.000000
siesta: Exc     =     -1204.003903
siesta: eta*DQ  =         0.000000
siesta: Emadel  =         0.000000
siesta: Emeta   =         0.000000
siesta: Emolmec =         0.000000
siesta: Ekinion =         0.000000
siesta: Eharris =     -4020.603208
siesta: Etot    =     -4100.363210
siesta: FreeEng =     -4100.364242

        iscf     Eharris(eV)        E_KS(eV)     FreeEng(eV)     dDmax    Ef(eV) dHmax(eV)
   scf:    1    -4020.603208    -4100.363210    -4100.364242  0.965694 -4.903699 21.961021
     spin moment: S , {S} =    2.00581   0.00000   0.00000   2.00581
timer: Routine,Calls,Time,% = IterSCF        1       6.629  25.23
   scf:    2    -4146.730021    -4135.691859    -4135.694186  0.449778 -4.220940 11.336842
     spin moment: S , {S} =    1.98680  -0.00000   0.00000   1.98680
   scf:    3    -4106.524577    -4133.080832    -4133.093513  0.421773 -4.338764 12.141967
     spin moment: S , {S} =    2.11939  -0.00000   0.00000   2.11939
   scf:    4    -4149.570974    -4144.865347    -4144.865348  0.322554 -3.917312  7.413965
     spin moment: S , {S} =    0.00010   0.00000  -0.00000   0.00010
   scf:    5    -4146.221644    -4145.647237    -4145.647237  0.036192 -3.728358  4.740674
     spin moment: S , {S} =    0.00006  -0.00000   0.00000   0.00006
   scf:    6    -4146.425450    -4146.045742    -4146.045742  0.024324 -3.628800  2.316747
     spin moment: S , {S} =    0.00003   0.00000  -0.00000   0.00003
   scf:    7    -4146.402112    -4146.220086    -4146.220086  0.021426 -3.527801  0.891158
     spin moment: S , {S} =    0.00001   0.00000   0.00000   0.00001
   scf:    8    -4146.340091    -4146.278119    -4146.278119  0.012256 -3.771652  0.504685
     spin moment: S , {S} =    0.00000   0.00000  -0.00000   0.00000
   scf:    9    -4146.316815    -4146.296790    -4146.296790  0.006554 -3.727054  0.384129
     spin moment: S , {S} =    0.00000   0.00000  -0.00000   0.00000
   scf:   10    -4146.348744    -4146.316240    -4146.316240  0.021897 -3.787453  0.234244
     spin moment: S , {S} =    0.00000  -0.00000  -0.00000  -0.00000
   scf:   11    -4146.320143    -4146.318195    -4146.318195  0.005763 -3.773542  0.064858
     spin moment: S , {S} =    0.00000   0.00000  -0.00000  -0.00000
   scf:   12    -4146.319404    -4146.318813    -4146.318813  0.001027 -3.768741  0.028760
     spin moment: S , {S} =    0.00000   0.00000  -0.00000  -0.00000
   scf:   13    -4146.319312    -4146.319059    -4146.319059  0.001221 -3.768326  0.018804
     spin moment: S , {S} =    0.00000   0.00000  -0.00000  -0.00000
   scf:   14    -4146.319328    -4146.319187    -4146.319187  0.000949 -3.765648  0.010629
     spin moment: S , {S} =    0.00000   0.00000  -0.00000  -0.00000
   scf:   15    -4146.319288    -4146.319234    -4146.319234  0.000799 -3.767054  0.007762
     spin moment: S , {S} =    0.00000   0.00000  -0.00000  -0.00000
   scf:   16    -4146.319298    -4146.319263    -4146.319263  0.000797 -3.766426  0.005638
     spin moment: S , {S} =    0.00000   0.00000  -0.00000   0.00000
   scf:   17    -4146.319281    -4146.319271    -4146.319271  0.000417 -3.766340  0.004132
     spin moment: S , {S} =    0.00000   0.00000  -0.00000   0.00000
   scf:   18    -4146.319280    -4146.319275    -4146.319275  0.000300 -3.766534  0.002694
     spin moment: S , {S} =    0.00000   0.00000  -0.00000   0.00000
   scf:   19    -4146.319280    -4146.319277    -4146.319277  0.000232 -3.766698  0.001803
     spin moment: S , {S} =    0.00000   0.00000  -0.00000   0.00000
   scf:   20    -4146.319279    -4146.319278    -4146.319278  0.000135 -3.766721  0.001266
     spin moment: S , {S} =    0.00000   0.00000  -0.00000   0.00000
   scf:   21    -4146.319280    -4146.319279    -4146.319279  0.000182 -3.766687  0.000631
     spin moment: S , {S} =    0.00000   0.00000  -0.00000   0.00000
   scf:   22    -4146.319279    -4146.319279    -4146.319279  0.000114 -3.766655  0.000236
     spin moment: S , {S} =    0.00000   0.00000  -0.00000   0.00000
   scf:   23    -4146.319279    -4146.319279    -4146.319279  0.000029 -3.766653  0.000186
     spin moment: S , {S} =    0.00000   0.00000  -0.00000   0.00000
   scf:   24    -4146.319279    -4146.319279    -4146.319279  0.000011 -3.766662  0.000105
     spin moment: S , {S} =    0.00000   0.00000  -0.00000   0.00000
mix: Pulay -- resetting history
   scf:   25    -4146.319279    -4146.319279    -4146.319279  0.000006 -3.766667  0.000043
     spin moment: S , {S} =    0.00000   0.00000  -0.00000   0.00000
   scf:   26    -4146.319279    -4146.319279    -4146.319279  0.000003 -3.766668  0.000030
     spin moment: S , {S} =    0.00000   0.00000  -0.00000   0.00000
   scf:   27    -4146.319279    -4146.319279    -4146.319279  0.000002 -3.766665  0.000020
     spin moment: S , {S} =    0.00000   0.00000  -0.00000  -0.00000
   scf:   28    -4146.319279    -4146.319279    -4146.319279  0.000002 -3.766664  0.000010
     spin moment: S , {S} =    0.00000   0.00000  -0.00000  -0.00000
   scf:   29    -4146.319279    -4146.319279    -4146.319279  0.000001 -3.766663  0.000006
     spin moment: S , {S} =    0.00000   0.00000  -0.00000  -0.00000
   scf:   30    -4146.319279    -4146.319279    -4146.319279  0.000001 -3.766663  0.000002
     spin moment: S , {S} =    0.00000   0.00000  -0.00000  -0.00000
   scf:   31    -4146.319279    -4146.319279    -4146.319279  0.000000 -3.766663  0.000002
     spin moment: S , {S} =    0.00000   0.00000  -0.00000  -0.00000
   scf:   32    -4146.319279    -4146.319279    -4146.319279  0.000000 -3.766663  0.000001
     spin moment: S , {S} =    0.00000   0.00000  -0.00000  -0.00000
   scf:   33    -4146.319279    -4146.319279    -4146.319279  0.000000 -3.766663  0.000001
     spin moment: S , {S} =    0.00000   0.00000  -0.00000  -0.00000

SCF Convergence by DM+H criterion
max |DM_out - DM_in|         :     0.0000001081
max |H_out - H_in|      (eV) :     0.0000005020
SCF cycle converged after 33 iterations

Using DM_out to compute the final energy and forces
No. of atoms with KB's overlaping orbs in proc 0. Max # of overlaps:      28     142

siesta: E_KS(eV) =            -4146.3193

siesta: E_KS - E_eggbox =     -4146.3193
     spin moment: S , {S} =    0.00000   0.00000  -0.00000  -0.00000

siesta: Atomic forces (eV/Ang):
     1    0.030460   -0.092073    0.000000
     2   -0.534486    0.357757    0.000000
     3    0.436421   -0.022168    0.000000
     4   -0.087624    0.131555   -0.000000
     5   -0.213434   -0.225745    0.000000
     6   -0.083429    0.127181   -0.000000
     7    1.213943    1.071003   -0.000000
     8    0.774226   -2.347002   -0.000000
     9   -1.275149    1.849594    0.000000
    10    0.161954   -0.159542    0.000000
    11   -1.036943   -0.340104   -0.000000
    12    1.255310   -0.232505   -0.000000
    13    3.017069    2.554798    0.000000
    14    0.146476    0.010782    0.000000
    15    0.119891    0.039180   -0.000000
    16    0.022176   -0.016964   -0.000000
    17   -0.083386   -0.001967    0.000000
    18   -0.012004    0.049708    0.000000
    19    0.262415    0.030206   -0.000000
    20   -1.394677   -0.196853    0.000000
    21   -1.854387    1.213253    0.000000
    22    0.367619    0.787144   -0.000000
    23    0.231095   -0.620862    0.000000
    24   -0.340167   -1.007208    0.000000
    25   -0.471800    1.595210    0.000000
    26    0.774882   -1.183031    0.000000
    27   -0.091315    0.225416   -0.000000
    28    0.034731    0.751757   -0.000000
    29   -0.315397   -0.429463    0.000000
----------------------------------------
   Tot    1.054468    3.919058    0.000000
----------------------------------------
   Max    3.017069
   Res    0.743161    sqrt( Sum f_i^2 / 3N )
----------------------------------------
   Max    3.017069    constrained

Stress tensor Voigt[x,y,z,yz,xz,xy] (kbar):        1.18        0.36       -0.09       -0.00        0.00       -1.16
(Free)E + p*V (eV/cell)    -4148.0372
Target enthalpy (eV/cell)    -4146.3193

siesta: Eigenvalues (eV):
ik =     1
  -21.9496  -21.9496  -21.7556  -21.7556  -21.6054  -21.6054  -21.5628  -21.5628  -21.2492  -21.2492
  -20.9968  -20.9968  -20.8840  -20.8840  -19.8564  -19.8564  -19.3765  -19.3765  -19.3597  -19.3597
  -14.7343  -14.7343  -13.9276  -13.9276  -13.3295  -13.3295  -13.2313  -13.2313  -13.0891  -13.0891
  -12.9420  -12.9420  -12.8799  -12.8799  -12.5247  -12.5247  -12.4263  -12.4263  -12.0210  -12.0210
  -11.4774  -11.4774  -10.7939  -10.7939  -10.7913  -10.7913  -10.7746  -10.7746  -10.0600  -10.0600
   -9.5364   -9.5364   -9.2993   -9.2993   -8.8691   -8.8691   -8.7170   -8.7170   -8.6861   -8.6861
   -8.6615   -8.6615   -8.3845   -8.3845   -8.2107   -8.2107   -7.8431   -7.8431   -7.6441   -7.6441
   -7.5462   -7.5462   -7.3727   -7.3727   -7.2933   -7.2933   -6.9315   -6.9315   -6.7223   -6.7223
   -6.5337   -6.5337   -6.4569   -6.4569   -6.1302   -6.1302   -6.1087   -6.1087   -6.0700   -6.0700
   -5.6797   -5.6797   -5.6077   -5.6077   -5.4296   -5.4296   -4.3228   -4.3228   -3.2101   -3.2101
   -2.3296   -2.3296   -2.3178   -2.3178   -2.2848   -2.2848   -1.9461   -1.9461   -1.8725   -1.8725
   -1.8329   -1.8329   -1.7716   -1.7716   -1.6058   -1.6058   -1.5722   -1.5722   -0.9567   -0.9567
   -0.9436   -0.9436   -0.8318   -0.8318   -0.4348   -0.4348   -0.1308   -0.1308    0.0141    0.0141
    0.2480    0.2480    0.3883    0.3883    0.5317    0.5317    0.7135    0.7135    0.7518    0.7518
    0.9497    0.9497    1.1925    1.1925    1.3396    1.3396    1.3497    1.3497    1.4561    1.4561
    1.6951    1.6951    1.8257    1.8257    1.9165    1.9165    2.2796    2.2796    2.7109    2.7109
    2.7177    2.7177    2.8251    2.8251    2.9450    2.9450    3.1619    3.1619    3.3459    3.3459
    3.3558    3.3558    3.6972    3.6972    3.7890    3.7890    4.1249    4.1249    4.2168    4.2168
    4.4503    4.4503    4.4662    4.4662    4.5611    4.5611    4.5980    4.5980    4.7657    4.7657
    4.9236    4.9236    4.9495    4.9495    5.2085    5.2085    5.5344    5.5344    5.6462    5.6462
    5.7252    5.7252    5.7967    5.7967    5.8232    5.8232    5.8835    5.8835    5.9542    5.9542
    6.1893    6.1893    6.3354    6.3354    6.6516    6.6516    6.6531    6.6531    6.8619    6.8619
    7.0483    7.0483    7.1478    7.1478    7.3950    7.3950    7.4764    7.4764    7.7354    7.7354
    7.8196    7.8196    7.9696    7.9696    8.1191    8.1191    8.2320    8.2320    8.3117    8.3117
    8.4478    8.4478    8.6831    8.6831    8.8199    8.8199    8.9230    8.9230    9.1593    9.1593
    9.1651    9.1651    9.1867    9.1867    9.7625    9.7625    9.8079    9.8079    9.8408    9.8408
   10.0302   10.0302   10.1921   10.1921   10.4181   10.4181   10.6948   10.6948   10.7575   10.7575
   10.9035   10.9035   10.9410   10.9410   11.2130   11.2130   11.6629   11.6629   11.6759   11.6759
   11.7936   11.7936   11.8871   11.8871   12.0187   12.0187   12.3321   12.3321   12.7434   12.7434
   12.7548   12.7548   12.7706   12.7706   13.2350   13.2350   13.4763   13.4763   13.5987   13.5987
   13.8247   13.8247   14.1374   14.1374   14.2300   14.2300   14.5744   14.5744   14.7151   14.7151
   14.9022   14.9022   15.3726   15.3726   15.9773   15.9773   16.4259   16.4259   16.7382   16.7382
   16.8895   16.8895   17.3409   17.3409   17.6147   17.6147   18.1269   18.1269   18.3678   18.3678
   18.5827   18.5827   19.2416   19.2416   19.3270   19.3270   19.8463   19.8463   20.3055   20.3055
   20.9882   20.9882   21.2658   21.2658   21.9045   21.9045   22.2854   22.2854   22.2912   22.2912
   22.9029   22.9029   23.1874   23.1874   23.6483   23.6483   23.8034   23.8034   23.8804   23.8804
   24.8427   24.8427   25.3007   25.3007   26.0068   26.0068   26.6622   26.6622   27.3575   27.3575
   28.0790   28.0790   28.8920   28.8920   29.1743   29.1743   29.3320   29.3320   29.6391   29.6391
   29.9141   29.9141   30.0345   30.0345   30.1986   30.1986   30.6567   30.6567   30.7868   30.7868
   30.9812   30.9812   31.2297   31.2297   31.5322   31.5322   31.6607   31.6607   32.0500   32.0500
   32.5855   32.5855   33.7559   33.7559   34.5797   34.5797   34.6917   34.6917   34.9640   34.9640
   35.0229   35.0229   35.1244   35.1244   35.4839   35.4839   35.5759   35.5759   35.9544   35.9544
   36.6974   36.6974   36.7663   36.7663   37.0091   37.0091   37.2043   37.2043   37.4414   37.4414
   38.2074   38.2074   38.2897   38.2897   39.2917   39.2917   39.3966   39.3966   39.7272   39.7272
   40.3911   40.3911   40.5041   40.5041   40.5144   40.5144   40.6608   40.6608   40.8558   40.8558
   40.8867   40.8867   41.2186   41.2186   42.4824   42.4824   42.7759   42.7759   42.9034   42.9034
   43.2902   43.2902   43.8049   43.8049   43.8454   43.8454   43.9488   43.9488   44.3344   44.3344
   44.6213   44.6213   44.7255   44.7255   44.9882   44.9882   45.3506   45.3506   46.0872   46.0872
   46.1395   46.1395   46.9500   46.9500   47.2921   47.2921   48.8586   48.8586   49.0021   49.0021
   49.3837   49.3837   50.2807   50.2807   50.4828   50.4828   51.0112   51.0112   51.0235   51.0235
   51.6084   51.6084   51.6760   51.6760   52.6763   52.6763   52.6772   52.6772   54.2308   54.2308
   54.3114   54.3114   54.4542   54.4542   54.4771   54.4771   55.6368   55.6368   55.7061   55.7061
   55.8082   55.8082   55.8971   55.8971   56.4210   56.4211   57.9836   57.9836   58.2852   58.2852
   58.5559   58.5559   60.0685   60.0685   60.2153   60.2153   60.3926   60.3926   61.0547   61.0547
   61.8596   61.8596   61.8756   61.8756   62.0686   62.0686   64.6867   64.6867   66.5787   66.5787
   66.7205   66.7205   67.0883   67.0883   68.1090   68.1090   68.4023   68.4023   70.8183   70.8183
   73.7032   73.7032   80.1725   80.1725   91.0090   91.0090   92.0702   92.0702   93.1737   93.1737
   98.2115   98.2115   98.5120   98.5120   99.6064   99.6064  102.9598  102.9598  103.5503  103.5503
  109.9815  109.9815  111.5146  111.5146  123.9827  123.9827  126.2600  126.2600  129.0469  129.0469
  135.0699  135.0699  138.1289  138.1289
siesta: Fermi energy =      -3.766663 eV

siesta: Program's energy decomposition (eV):
siesta: Ebs     =     -1135.311996
siesta: Eions   =      3585.165840
siesta: Ena     =       381.828398
siesta: Ekin    =      2902.703248
siesta: Enl     =     -2787.292662
siesta: Eso     =        -0.004278
siesta: Edftu   =         0.000000
siesta: DEna    =        46.874086
siesta: DUscf   =        14.360117
siesta: DUext   =         0.000000
siesta: Exc     =     -1119.622349
siesta: eta*DQ  =         0.000000
siesta: Emadel  =         0.000000
siesta: Emeta   =         0.000000
siesta: Emolmec =         0.000000
siesta: Ekinion =         0.000000
siesta: Eharris =     -4146.319279
siesta: Etot    =     -4146.319279
siesta: FreeEng =     -4146.319279

siesta: Final energy (eV):
siesta:  Band Struct. =   -1135.311996
siesta:       Kinetic =    2902.703248
siesta:       Hartree =    8096.897761
siesta:       Edftu   =       0.000000
siesta:       Eso     =      -0.004278
siesta:    Ext. field =       0.000000
siesta:   Exch.-corr. =   -1119.622349
siesta:  Ion-electron =  -18778.418845
siesta:       Ion-ion =    4752.125183
siesta:       Ekinion =       0.000000
siesta:         Total =   -4146.319279
siesta:         Fermi =      -3.766663

siesta: Atomic forces (eV/Ang):
siesta:      1    0.030460   -0.092073    0.000000
siesta:      2   -0.534486    0.357757    0.000000
siesta:      3    0.436421   -0.022168    0.000000
siesta:      4   -0.087624    0.131555   -0.000000
siesta:      5   -0.213434   -0.225745    0.000000
siesta:      6   -0.083429    0.127181   -0.000000
siesta:      7    1.213943    1.071003   -0.000000
siesta:      8    0.774226   -2.347002   -0.000000
siesta:      9   -1.275149    1.849594    0.000000
siesta:     10    0.161954   -0.159542    0.000000
siesta:     11   -1.036943   -0.340104   -0.000000
siesta:     12    1.255310   -0.232505   -0.000000
siesta:     13    3.017069    2.554798    0.000000
siesta:     14    0.146476    0.010782    0.000000
siesta:     15    0.119891    0.039180   -0.000000
siesta:     16    0.022176   -0.016964   -0.000000
siesta:     17   -0.083386   -0.001967    0.000000
siesta:     18   -0.012004    0.049708    0.000000
siesta:     19    0.262415    0.030206   -0.000000
siesta:     20   -1.394677   -0.196853    0.000000
siesta:     21   -1.854387    1.213253    0.000000
siesta:     22    0.367619    0.787144   -0.000000
siesta:     23    0.231095   -0.620862    0.000000
siesta:     24   -0.340167   -1.007208    0.000000
siesta:     25   -0.471800    1.595210    0.000000
siesta:     26    0.774882   -1.183031    0.000000
siesta:     27   -0.091315    0.225416   -0.000000
siesta:     28    0.034731    0.751757   -0.000000
siesta:     29   -0.315397   -0.429463    0.000000
siesta: ----------------------------------------
siesta:    Tot    1.054468    3.919058    0.000000

siesta: Stress tensor (static) (eV/Ang**3):
siesta:     0.000735   -0.000723   -0.000000
siesta:    -0.000723    0.000227    0.000000
siesta:     0.000000   -0.000000   -0.000057

siesta: Cell volume =       5697.795999 Ang**3

siesta: Pressure (static):
siesta:                Solid            Molecule  Units
siesta:          -0.00000328         -0.00000954  Ry/Bohr**3
siesta:          -0.00030151         -0.00087574  eV/Ang**3
siesta:          -0.48307941         -1.40311323  kBar
(Free)E+ p_basis*V_orbitals  =       -4126.468861
(Free)Eharris+ p_basis*V_orbitals  =       -4126.468861
     spin moment: S , {S} =    0.00000   0.00000  -0.00000  -0.00000

siesta: Electric dipole (a.u.)  =    0.049668    1.503941    0.000000
siesta: Electric dipole (Debye) =    0.126244    3.822639    0.000000

cite: Please see "GC.bib" for an exhaustive BiBTeX file.
cite: Please clearly indicate Siesta version in published work: v4.1.5-1-g384057250
cite: This calculation has made use of the following articles
cite: which are encouraged to be cited in a published work.
        Primary SIESTA paper
          DOI: www.doi.org/10.1088/0953-8984/14/11/302
        Spin-orbit coupling (on-site approximation)
          DOI: www.doi.org/10.1088/0953-8984/19/19/489001


WARNING: alloc-realloc-dealloc name mismatch
         Name: atomlist isa
         Size:              -116. Bytes
         Node:     0
         Subsequent mismatches will not be reported
>> End of run:  16-OCT-2023  19:16:48
Job completed
