Siesta Version  : v4.1.5-1-g384057250
Architecture    : gcc
Compiler version: GNU Fortran (Debian 12.2.0-14) 12.2.0
Compiler flags  : mpifort -O2 -fPIC -ftree-vectorize -fallow-argument-mismatch
PP flags        : -DFC_HAVE_ABORT -DMPI -DSIESTA__FLOOK -DSIESTA__METIS -DSIESTA__MUMPS -DCDF -DNCDF -DNCDF_4 -DNCDF_PARALLEL -DSIESTA__MRRR -DSIESTA__ELPA
Libraries       : libncdf.a libfdict.a  -lflookall -ldl -lnetcdff -lnetcdf -lz -lscalapack-openmpi -lopenblas -lmetis -lzmumps -lcmumps -ldmumps -lmumps_common -lpord -lsmumps -lesmumps -lscotch -lscotcherr -fopenmp -lelpa
PARALLEL version
NetCDF support
NetCDF-4 support
NetCDF-4 MPI-IO support
METIS ordering support
Lua support

* Running on 32 nodes in parallel
>> Start of run:  16-OCT-2023  21:13:06

                           ***********************       
                           *  WELCOME TO SIESTA  *       
                           ***********************       

reinit: Reading from standard input
reinit: Dumped input in INPUT_TMP.00303
************************** Dump of input data file ****************************
# mpirun -np 4 siesta-4.1.5 < AT.fdf > AT.out &
SystemLabel      AT
NumberOfAtoms    30
NumberOfSpecies  4
%block ChemicalSpeciesLabel
    1    1  H
    2    7  N
    3   14  Si
    4    8  O
%endblock ChemicalSpeciesLabel
############################################
# This overrides Defaults.fdf configuration
############################################
MD.TypeOfRun                Verlet # CG, Verlet
MD.Steps                    0
MaxSCFIterations            300
AtomicCoordinatesFormat NotScaledCartesianAng
%block AtomicCoordinatesAndAtomicSpecies
    2.28494382 -5.19529124 0.0  1  1  H
    1.37433094 -4.6647107 0.0  2  2  N
    -0.21830245 -5.49458215 0.0  3  3  Si
    -0.17484108 -6.98516892 0.0  1  4  H
    -1.66171682 -4.58600741 0.0  2  5  N
    -1.09026419 -2.87456374 0.0  3  6  Si
    -1.53038332 -0.70765692 0.0  3  7  Si
    -3.14415959 -0.09186471 0.0  2  8  N
    -3.40268075 0.95848335 0.0  1  9  H
    -3.95073599 -0.76720972 0.0  1  10  H
    -0.17836637 0.41349951 0.0  2  11  N
    1.49520211 -0.0473996 0.0  3  12  Si
    2.45603905 1.10727302 0.0  1  13  H
    2.30451743 -1.58574382 0.0  2  14  N
    1.10725559 -2.84610319 0.0  3  15  Si
    0.01225059888691038 11.548994970375386 0.0  1  16  H
    -0.7964600811130896 10.856789090375386 0.0  2  17  N
    -2.45304992111309 11.569909190375386 0.0  3  18  Si
    -2.35618475111309 13.080634400375384 0.0  1  19  H
    -4.17920627111309 10.226861060375384 0.0  3  20  Si
    -6.53366052111309 10.218874130375386 0.0  3  21  Si
    -7.09607864111309 10.953363780375385 -1.20183078  1  22  H
    -6.83347427111309 8.739783000375386 -0.08618332  1  23  H
    -7.09619110111309 10.783706590375385 1.28814761  1  24  H
    -3.2498156311130897 8.156289830375385 0.0  3  25  Si
    -4.19928399111309 6.867753700375385 0.0  4  26  O
    -1.4588707611130896 7.982554360375385 0.0  2  27  N
    -1.1278794011130895 6.950197380375386 0.0  1  28  H
    -0.15041254111308966 9.177100780375385 0.0  3  29  Si
    1.4155243888869102 8.909853930375386 0.0  4  30  O
%endblock AtomicCoordinatesAndAtomicSpecies
%include ../../../../Defaults.fdf
************************** End of input data file *****************************

reinit: -----------------------------------------------------------------------
reinit: System Name: 
reinit: -----------------------------------------------------------------------
reinit: System Label: AT
reinit: -----------------------------------------------------------------------

initatom: Reading input for the pseudopotentials and atomic orbitals ----------
Species number:   1 Atomic number:    1 Label: H
Species number:   2 Atomic number:    7 Label: N
Species number:   3 Atomic number:   14 Label: Si
Species number:   4 Atomic number:    8 Label: O

Ground state valence configuration:   1s01
Reading pseudopotential information in formatted form from H.psf

Pseudopotential generated from a relativistic atomic calculation

Valence configuration for pseudopotential generation:
1s( 1.00) rc: 0.01
2p( 0.00) rc: 0.60
3d( 0.00) rc: 1.99
4f( 0.00) rc: 2.49
Ground state valence configuration:   2s02  2p03
Reading pseudopotential information in formatted form from N.psf

Pseudopotential generated from a relativistic atomic calculation

Valence configuration for pseudopotential generation:
2s( 2.00) rc: 0.94
2p( 3.00) rc: 0.59
3d( 0.00) rc: 3.46
4f( 0.00) rc: 2.47
Ground state valence configuration:   3s02  3p02
Reading pseudopotential information in formatted form from Si.psf

Pseudopotential generated from a relativistic atomic calculation

Valence configuration for pseudopotential generation:
3s( 2.00) rc: 1.67
3p( 2.00) rc: 2.04
3d( 0.00) rc: 2.89
4f( 0.00) rc: 2.49
Ground state valence configuration:   2s02  2p04
Reading pseudopotential information in formatted form from O.psf

Pseudopotential generated from a relativistic atomic calculation

Valence configuration for pseudopotential generation:
2s( 2.00) rc: 0.45
2p( 4.00) rc: 0.92
3d( 0.00) rc: 2.24
4f( 0.00) rc: 0.25
For H, standard SIESTA heuristics set lmxkb to 2
 (one more than the basis l, including polarization orbitals).
Use PS.lmax or PS.KBprojectors blocks to override.
For N, standard SIESTA heuristics set lmxkb to 3
 (one more than the basis l, including polarization orbitals).
Use PS.lmax or PS.KBprojectors blocks to override.
For Si, standard SIESTA heuristics set lmxkb to 3
 (one more than the basis l, including polarization orbitals).
Use PS.lmax or PS.KBprojectors blocks to override.
For O, standard SIESTA heuristics set lmxkb to 3
 (one more than the basis l, including polarization orbitals).
Use PS.lmax or PS.KBprojectors blocks to override.

<basis_specs>
===============================================================================
H                    Z=   1    Mass=  1.0100        Charge= 0.17977+309
Lmxo=0 Lmxkb= 2    BasisType=split      Semic=F
L=0  Nsemic=0  Cnfigmx=1
          i=1  nzeta=2  polorb=1  (1s)
            splnorm:   0.62000    
               vcte:    0.0000    
               rinn:    0.0000    
               qcoe:    0.0000    
               qyuk:    0.0000    
               qwid:   0.10000E-01
                rcs:    0.0000      0.0000    
            lambdas:    1.0000      1.0000    
-------------------------------------------------------------------------------
L=0  Nkbl=1  erefs: 0.17977+309
L=1  Nkbl=1  erefs: 0.17977+309
L=2  Nkbl=1  erefs: 0.17977+309
===============================================================================
</basis_specs>

atom: Called for H                     (Z =   1)

read_vps: Pseudopotential generation method:
read_vps: ATM4.2.7  Troullier-Martins                       
Valence charge for ps generation:    1.00000

xc_check: Exchange-correlation functional:
xc_check: GGA Perdew, Burke & Ernzerhof 1996
V l=0 = -2*Zval/r beyond r=  0.0098
V l=1 = -2*Zval/r beyond r=  0.5817
V l=2 = -2*Zval/r beyond r=  1.9372
All V_l potentials equal beyond r=  1.9372
This should be close to max(r_c) in ps generation
All pots = -2*Zval/r beyond r=  1.9372

VLOCAL1: 99.0% of the norm of Vloc inside     11.567 Ry
VLOCAL1: 99.9% of the norm of Vloc inside     26.362 Ry
atom: Maximum radius for 4*pi*r*r*local-pseudopot. charge    2.25106
atom: Maximum radius for r*vlocal+2*Zval:    1.91306
GHOST: No ghost state for L =  0
GHOST: No ghost state for L =  1
GHOST: No ghost state for L =  2

KBgen: Kleinman-Bylander projectors: 
   l= 0   rc=  2.036604   el= -0.477180   Ekb= -6.081590   kbcos= -0.277285
   l= 1   rc=  2.195416   el=  0.001076   Ekb= -0.926943   kbcos= -0.034643
   l= 2   rc=  2.251056   el=  0.002010   Ekb= -0.130941   kbcos= -0.009788

KBgen: Total number of Kleinman-Bylander projectors:    9
atom: -------------------------------------------------------------------------

atom: SANKEY-TYPE ORBITALS:
atom: Selected multiple-zeta basis: split     

SPLIT: Orbitals with angular momentum L= 0

SPLIT: Basis orbitals for state 1s

SPLIT: PAO cut-off radius determined from an
SPLIT: energy shift=  0.002000 Ry

   izeta = 1
                 lambda =    1.000000
                     rc =    6.518340
                 energy =   -0.475305
                kinetic =    0.912139
    potential(screened) =   -1.387444
       potential(ionic) =   -1.907295

   izeta = 2
                 rmatch =    2.141150
              splitnorm =    0.620000
                 energy =    0.566467
                kinetic =    3.772856
    potential(screened) =   -3.206389
       potential(ionic) =   -3.759093

POLgen: Perturbative polarization orbital with L=  1

POLgen: Polarization orbital for state 1s

   izeta = 1
                     rc =    6.518340
                 energy =    0.533861
                kinetic =    1.121086
    potential(screened) =   -0.587225
       potential(ionic) =   -1.053027
atom: Total number of Sankey-type orbitals:  5

atm_pop: Valence configuration (for local Pseudopot. screening):
 1s( 1.00)                                                            
Vna: chval, zval:    1.00000   1.00000

Vna:  Cut-off radius for the neutral-atom potential:   6.518340

atom: _________________________________________________________________________

<basis_specs>
===============================================================================
N                    Z=   7    Mass=  14.010        Charge= 0.17977+309
Lmxo=1 Lmxkb= 3    BasisType=split      Semic=F
L=0  Nsemic=0  Cnfigmx=2
          i=1  nzeta=2  polorb=0  (2s)
            splnorm:   0.28000    
               vcte:    0.0000    
               rinn:    0.0000    
               qcoe:    0.0000    
               qyuk:    0.0000    
               qwid:   0.10000E-01
                rcs:    0.0000      0.0000    
            lambdas:    1.0000      1.0000    
L=1  Nsemic=0  Cnfigmx=2
          i=1  nzeta=2  polorb=1  (2p)
            splnorm:   0.28000    
               vcte:    0.0000    
               rinn:    0.0000    
               qcoe:    0.0000    
               qyuk:    0.0000    
               qwid:   0.10000E-01
                rcs:    0.0000      0.0000    
            lambdas:    1.0000      1.0000    
-------------------------------------------------------------------------------
L=0  Nkbl=1  erefs: 0.17977+309
L=1  Nkbl=1  erefs: 0.17977+309
L=2  Nkbl=1  erefs: 0.17977+309
L=3  Nkbl=1  erefs: 0.17977+309
===============================================================================
</basis_specs>

atom: Called for N                     (Z =   7)

read_vps: Pseudopotential generation method:
read_vps: ATM4.2.7  Troullier-Martins                       
Valence charge for ps generation:    5.00000

xc_check: Exchange-correlation functional:
xc_check: GGA Perdew, Burke & Ernzerhof 1996
V l=0 = -2*Zval/r beyond r=  1.2889
V l=1 = -2*Zval/r beyond r=  1.2889
V l=2 = -2*Zval/r beyond r=  3.4178
V l=3 = -2*Zval/r beyond r=  2.4084
All V_l potentials equal beyond r=  3.3753
This should be close to max(r_c) in ps generation
All pots = -2*Zval/r beyond r=  3.4178

VLOCAL1: 99.0% of the norm of Vloc inside      3.810 Ry
VLOCAL1: 99.9% of the norm of Vloc inside      8.683 Ry
atom: Maximum radius for 4*pi*r*r*local-pseudopot. charge    4.02088
atom: Maximum radius for r*vlocal+2*Zval:    3.54838
GHOST: No ghost state for L =  0
GHOST: No ghost state for L =  1
GHOST: No ghost state for L =  2
GHOST: No ghost state for L =  3

KBgen: Kleinman-Bylander projectors: 
   l= 0   rc=  3.417763   el= -1.365098   Ekb= -4.433130   kbcos= -0.707855
   l= 1   rc=  3.375302   el= -0.521201   Ekb=-13.264039   kbcos= -0.535594
   l= 2   rc=  3.872880   el=  0.001991   Ekb= -0.641094   kbcos= -0.062456
   l= 3   rc=  3.970931   el=  0.003093   Ekb= -0.474517   kbcos= -0.018236

KBgen: Total number of Kleinman-Bylander projectors:   16
atom: -------------------------------------------------------------------------

atom: SANKEY-TYPE ORBITALS:
atom: Selected multiple-zeta basis: split     

SPLIT: Orbitals with angular momentum L= 0

SPLIT: Basis orbitals for state 2s

SPLIT: PAO cut-off radius determined from an
SPLIT: energy shift=  0.002000 Ry

   izeta = 1
                 lambda =    1.000000
                     rc =    4.730425
                 energy =   -1.363399
                kinetic =    1.245246
    potential(screened) =   -2.608645
       potential(ionic) =   -8.121105

   izeta = 2
                 rmatch =    2.531849
              splitnorm =    0.280000
                 energy =   -0.959908
                kinetic =    2.409435
    potential(screened) =   -3.369343
       potential(ionic) =   -9.427975

SPLIT: Orbitals with angular momentum L= 1

SPLIT: Basis orbitals for state 2p

SPLIT: PAO cut-off radius determined from an
SPLIT: energy shift=  0.002000 Ry

   izeta = 1
                 lambda =    1.000000
                     rc =    5.924108
                 energy =   -0.519262
                kinetic =    3.672940
    potential(screened) =   -4.192202
       potential(ionic) =   -9.518354

   izeta = 2
                 rmatch =    2.531849
              splitnorm =    0.280000
                 energy =   -0.104258
                kinetic =    6.807538
    potential(screened) =   -6.911796
       potential(ionic) =  -13.149920

POLgen: Perturbative polarization orbital with L=  2

POLgen: Polarization orbital for state 2p

   izeta = 1
                     rc =    5.924108
                 energy =    1.427508
                kinetic =    2.872379
    potential(screened) =   -1.444871
       potential(ionic) =   -5.563644
atom: Total number of Sankey-type orbitals: 13

atm_pop: Valence configuration (for local Pseudopot. screening):
 2s( 2.00)                                                            
 2p( 3.00)                                                            
Vna: chval, zval:    5.00000   5.00000

Vna:  Cut-off radius for the neutral-atom potential:   5.924108

atom: _________________________________________________________________________

<basis_specs>
===============================================================================
Si                   Z=  14    Mass=  28.090        Charge= 0.17977+309
Lmxo=1 Lmxkb= 3    BasisType=split      Semic=F
L=0  Nsemic=0  Cnfigmx=3
          i=1  nzeta=2  polorb=0  (3s)
            splnorm:   0.28000    
               vcte:    0.0000    
               rinn:    0.0000    
               qcoe:    0.0000    
               qyuk:    0.0000    
               qwid:   0.10000E-01
                rcs:    0.0000      0.0000    
            lambdas:    1.0000      1.0000    
L=1  Nsemic=0  Cnfigmx=3
          i=1  nzeta=2  polorb=1  (3p)
            splnorm:   0.28000    
               vcte:    0.0000    
               rinn:    0.0000    
               qcoe:    0.0000    
               qyuk:    0.0000    
               qwid:   0.10000E-01
                rcs:    0.0000      0.0000    
            lambdas:    1.0000      1.0000    
-------------------------------------------------------------------------------
L=0  Nkbl=1  erefs: 0.17977+309
L=1  Nkbl=1  erefs: 0.17977+309
L=2  Nkbl=1  erefs: 0.17977+309
L=3  Nkbl=1  erefs: 0.17977+309
===============================================================================
</basis_specs>

atom: Called for Si                    (Z =  14)

read_vps: Pseudopotential generation method:
read_vps: ATM4.2.7  Troullier-Martins                       
Valence charge for ps generation:    4.00000

xc_check: Exchange-correlation functional:
xc_check: GGA Perdew, Burke & Ernzerhof 1996
V l=0 = -2*Zval/r beyond r=  2.7826
V l=1 = -2*Zval/r beyond r=  2.7826
V l=2 = -2*Zval/r beyond r=  2.9253
V l=3 = -2*Zval/r beyond r=  2.7826
All V_l potentials equal beyond r=  2.8530
This should be close to max(r_c) in ps generation
All pots = -2*Zval/r beyond r=  2.9253

VLOCAL1: 99.0% of the norm of Vloc inside      5.333 Ry
VLOCAL1: 99.9% of the norm of Vloc inside     12.154 Ry
atom: Maximum radius for 4*pi*r*r*local-pseudopot. charge    3.39869
atom: Maximum radius for r*vlocal+2*Zval:    2.96205
GHOST: No ghost state for L =  0
GHOST: No ghost state for L =  1
GHOST: No ghost state for L =  2
GHOST: No ghost state for L =  3

KBgen: Kleinman-Bylander projectors: 
   l= 0   rc=  3.075247   el= -0.794092   Ekb=  5.879390   kbcos=  0.167461
   l= 1   rc=  3.153101   el= -0.300068   Ekb=  2.642817   kbcos=  0.058301
   l= 2   rc=  3.273594   el=  0.001958   Ekb= -1.185135   kbcos= -0.104411
   l= 3   rc=  3.232927   el=  0.003046   Ekb= -0.497174   kbcos= -0.015889

KBgen: Total number of Kleinman-Bylander projectors:   16
atom: -------------------------------------------------------------------------

atom: SANKEY-TYPE ORBITALS:
atom: Selected multiple-zeta basis: split     

SPLIT: Orbitals with angular momentum L= 0

SPLIT: Basis orbitals for state 3s

SPLIT: PAO cut-off radius determined from an
SPLIT: energy shift=  0.002000 Ry

   izeta = 1
                 lambda =    1.000000
                     rc =    6.429618
                 energy =   -0.792283
                kinetic =    0.525293
    potential(screened) =   -1.317576
       potential(ionic) =   -3.744923

   izeta = 2
                 rmatch =    3.998416
              splitnorm =    0.280000
                 energy =   -0.583081
                kinetic =    1.069570
    potential(screened) =   -1.652651
       potential(ionic) =   -4.235185

SPLIT: Orbitals with angular momentum L= 1

SPLIT: Basis orbitals for state 3p

SPLIT: PAO cut-off radius determined from an
SPLIT: energy shift=  0.002000 Ry

   izeta = 1
                 lambda =    1.000000
                     rc =    8.464845
                 energy =   -0.298236
                kinetic =    0.785360
    potential(screened) =   -1.083596
       potential(ionic) =   -3.273779

   izeta = 2
                 rmatch =    4.587816
              splitnorm =    0.280000
                 energy =   -0.131871
                kinetic =    1.403687
    potential(screened) =   -1.535557
       potential(ionic) =   -4.015310

POLgen: Perturbative polarization orbital with L=  2

POLgen: Polarization orbital for state 3p

   izeta = 1
                     rc =    8.464845
                 energy =    0.321949
                kinetic =    1.055677
    potential(screened) =   -0.733728
       potential(ionic) =   -2.672950
atom: Total number of Sankey-type orbitals: 13

atm_pop: Valence configuration (for local Pseudopot. screening):
 3s( 2.00)                                                            
 3p( 2.00)                                                            
Vna: chval, zval:    4.00000   4.00000

Vna:  Cut-off radius for the neutral-atom potential:   8.464845

atom: _________________________________________________________________________

<basis_specs>
===============================================================================
O                    Z=   8    Mass=  16.000        Charge= 0.17977+309
Lmxo=1 Lmxkb= 3    BasisType=split      Semic=F
L=0  Nsemic=0  Cnfigmx=2
          i=1  nzeta=2  polorb=0  (2s)
            splnorm:   0.28000    
               vcte:    0.0000    
               rinn:    0.0000    
               qcoe:    0.0000    
               qyuk:    0.0000    
               qwid:   0.10000E-01
                rcs:    0.0000      0.0000    
            lambdas:    1.0000      1.0000    
L=1  Nsemic=0  Cnfigmx=2
          i=1  nzeta=2  polorb=1  (2p)
            splnorm:   0.28000    
               vcte:    0.0000    
               rinn:    0.0000    
               qcoe:    0.0000    
               qyuk:    0.0000    
               qwid:   0.10000E-01
                rcs:    0.0000      0.0000    
            lambdas:    1.0000      1.0000    
-------------------------------------------------------------------------------
L=0  Nkbl=1  erefs: 0.17977+309
L=1  Nkbl=1  erefs: 0.17977+309
L=2  Nkbl=1  erefs: 0.17977+309
L=3  Nkbl=1  erefs: 0.17977+309
===============================================================================
</basis_specs>

atom: Called for O                     (Z =   8)

read_vps: Pseudopotential generation method:
read_vps: ATM4.2.7  Troullier-Martins                       
Valence charge for ps generation:    6.00000

xc_check: Exchange-correlation functional:
xc_check: GGA Perdew, Burke & Ernzerhof 1996
V l=0 = -2*Zval/r beyond r=  1.1000
V l=1 = -2*Zval/r beyond r=  1.1000
V l=2 = -2*Zval/r beyond r=  2.2154
V l=3 = -2*Zval/r beyond r=  1.1000
All V_l potentials equal beyond r=  2.2154
This should be close to max(r_c) in ps generation
All pots = -2*Zval/r beyond r=  2.2154

VLOCAL1: 99.0% of the norm of Vloc inside      8.845 Ry
VLOCAL1: 99.9% of the norm of Vloc inside     20.157 Ry
atom: Maximum radius for 4*pi*r*r*local-pseudopot. charge    2.67231
atom: Maximum radius for r*vlocal+2*Zval:    2.32897
GHOST: No ghost state for L =  0
GHOST: No ghost state for L =  1
GHOST: No ghost state for L =  2
GHOST: No ghost state for L =  3

KBgen: Kleinman-Bylander projectors: 
   l= 0   rc=  2.243238   el= -1.759686   Ekb=**********   kbcos= -0.171774
   l= 1   rc=  2.328968   el= -0.663873   Ekb=-14.506792   kbcos= -0.519897
   l= 2   rc=  2.573941   el=  0.002031   Ekb= -1.137373   kbcos= -0.019581
   l= 3   rc=  2.606321   el=  0.003153   Ekb= -1.013546   kbcos= -0.003122

KBgen: Total number of Kleinman-Bylander projectors:   16
atom: -------------------------------------------------------------------------

atom: SANKEY-TYPE ORBITALS:
atom: Selected multiple-zeta basis: split     

SPLIT: Orbitals with angular momentum L= 0

SPLIT: Basis orbitals for state 2s

SPLIT: PAO cut-off radius determined from an
SPLIT: energy shift=  0.002000 Ry

   izeta = 1
                 lambda =    1.000000
                     rc =    4.243912
                 energy =   -1.758270
                kinetic =    3.286084
    potential(screened) =   -5.044353
       potential(ionic) =  -12.921184

   izeta = 2
                 rmatch =    2.187845
              splitnorm =    0.280000
                 energy =   -0.885018
                kinetic =    8.134434
    potential(screened) =   -9.019452
       potential(ionic) =  -17.710645

SPLIT: Orbitals with angular momentum L= 1

SPLIT: Basis orbitals for state 2p

SPLIT: PAO cut-off radius determined from an
SPLIT: energy shift=  0.002000 Ry

   izeta = 1
                 lambda =    1.000000
                     rc =    5.314825
                 energy =   -0.661986
                kinetic =    4.917472
    potential(screened) =   -5.579458
       potential(ionic) =  -13.236259

   izeta = 2
                 rmatch =    2.160663
              splitnorm =    0.280000
                 energy =   -0.068760
                kinetic =    9.183374
    potential(screened) =   -9.252135
       potential(ionic) =  -18.274251

POLgen: Perturbative polarization orbital with L=  2

POLgen: Polarization orbital for state 2p

   izeta = 1
                     rc =    5.314825
                 energy =    1.970580
                kinetic =    3.886128
    potential(screened) =   -1.915547
       potential(ionic) =   -7.749584
atom: Total number of Sankey-type orbitals: 13

atm_pop: Valence configuration (for local Pseudopot. screening):
 2s( 2.00)                                                            
 2p( 4.00)                                                            
Vna: chval, zval:    6.00000   6.00000

Vna:  Cut-off radius for the neutral-atom potential:   5.314825

atom: _________________________________________________________________________

prinput: Basis input ----------------------------------------------------------

PAO.BasisType split     

%block ChemicalSpeciesLabel
    1    1 H                       # Species index, atomic number, species label
    2    7 N                       # Species index, atomic number, species label
    3   14 Si                      # Species index, atomic number, species label
    4    8 O                       # Species index, atomic number, species label
%endblock ChemicalSpeciesLabel

%block PAO.Basis                 # Define Basis set
H                     1                    # Species label, number of l-shells
 n=1   0   2 P   1                   # n, l, Nzeta, Polarization, NzetaPol
   6.518      2.141   
   1.000      1.000   
N                     2                    # Species label, number of l-shells
 n=2   0   2                         # n, l, Nzeta 
   4.730      2.532   
   1.000      1.000   
 n=2   1   2 P   1                   # n, l, Nzeta, Polarization, NzetaPol
   5.924      2.532   
   1.000      1.000   
Si                    2                    # Species label, number of l-shells
 n=3   0   2                         # n, l, Nzeta 
   6.430      3.998   
   1.000      1.000   
 n=3   1   2 P   1                   # n, l, Nzeta, Polarization, NzetaPol
   8.465      4.588   
   1.000      1.000   
O                     2                    # Species label, number of l-shells
 n=2   0   2                         # n, l, Nzeta 
   4.244      2.188   
   1.000      1.000   
 n=2   1   2 P   1                   # n, l, Nzeta, Polarization, NzetaPol
   5.315      2.161   
   1.000      1.000   
%endblock PAO.Basis

prinput: ----------------------------------------------------------------------

Dumping basis to NetCDF file H.ion.nc
Dumping basis to NetCDF file N.ion.nc
Dumping basis to NetCDF file Si.ion.nc
Dumping basis to NetCDF file O.ion.nc
coor:   Atomic-coordinates input format  =     Cartesian coordinates
coor:                                          (in Angstroms)

siesta: Atomic coordinates (Bohr) and species
siesta:      4.31792  -9.81768   0.00000  1        1
siesta:      2.59711  -8.81503   0.00000  2        2
siesta:     -0.41253 -10.38326   0.00000  3        3
siesta:     -0.33040 -13.20006   0.00000  1        4
siesta:     -3.14019  -8.66630   0.00000  2        5
siesta:     -2.06030  -5.43214   0.00000  3        6
siesta:     -2.89201  -1.33728   0.00000  3        7
siesta:     -5.94160  -0.17360   0.00000  2        8
siesta:     -6.43014   1.81127   0.00000  1        9
siesta:     -7.46581  -1.44982   0.00000  1       10
siesta:     -0.33706   0.78140   0.00000  2       11
siesta:      2.82552  -0.08957   0.00000  3       12
siesta:      4.64124   2.09244   0.00000  1       13
siesta:      4.35491  -2.99662   0.00000  2       14
siesta:      2.09241  -5.37836   0.00000  3       15
siesta:      0.02315  21.82445   0.00000  1       16
siesta:     -1.50509  20.51637   0.00000  2       17
siesta:     -4.63559  21.86397   0.00000  3       18
siesta:     -4.45255  24.71883   0.00000  1       19
siesta:     -7.89756  19.32597   0.00000  3       20
siesta:    -12.34683  19.31088   0.00000  3       21
siesta:    -13.40965  20.69887  -2.27113  1       22
siesta:    -12.91340  16.51580  -0.16286  1       23
siesta:    -13.40986  20.37826   2.43425  1       24
siesta:     -6.14126  15.41316   0.00000  3       25
siesta:     -7.93550  12.97818   0.00000  4       26
siesta:     -2.75687  15.08485   0.00000  2       27
siesta:     -2.13138  13.13397   0.00000  1       28
siesta:     -0.28424  17.34221   0.00000  3       29
siesta:      2.67495  16.83719   0.00000  4       30

siesta: Automatic unit cell vectors (Ang):
siesta:   18.686432    0.000000    0.000000
siesta:    0.000000   29.660966    0.000000
siesta:    0.000000    0.000000   10.327559

siesta: System type = molecule  

initatomlists: Number of atoms, orbitals, and projectors:     30   302   403

siesta: ******************** Simulation parameters ****************************
siesta:
siesta: The following are some of the parameters of the simulation.
siesta: A complete list of the parameters used, including default values,
siesta: can be found in file out.fdf
siesta:
redata: Spin configuration                          = spin-orbit
redata: Number of spin components                   = 8
redata: Time-Reversal Symmetry                      = F
redata: Spin spiral                                 = F
############################################################
This spin-orbit implementation uses a local approximation.
From 4.2 and onwards the full non-local approximation is implemented
You are strongly advised to use >=4.2 versions!
############################################################
redata: Long output                                 =   F
redata: Number of Atomic Species                    =        4
redata: Charge density info will appear in .RHO file
redata: Write Mulliken Pop.                         = NO
redata: Matel table size (NRTAB)                    =     1024
redata: Mesh Cutoff                                 =   340.0000 Ry
redata: Net charge of the system                    =     0.0000 |e|
redata: Min. number of SCF Iter                     =        1
redata: Max. number of SCF Iter                     =      300
redata: SCF convergence failure will abort job
redata: SCF mix quantity                            = Hamiltonian
redata: Mix DM or H after convergence               =   F
redata: Recompute H after scf cycle                 =   F
redata: Mix DM in first SCF step                    =   T
redata: Write Pulay info on disk                    =   F
redata: New DM Occupancy tolerance                  = 0.000000000001
redata: No kicks to SCF
redata: DM Mixing Weight for Kicks                  =     0.5000
redata: Require Harris convergence for SCF          =   F
redata: Harris energy tolerance for SCF             =     0.000100 eV
redata: Require DM convergence for SCF              =   T
redata: DM tolerance for SCF                        =     0.000008
redata: Require EDM convergence for SCF             =   F
redata: EDM tolerance for SCF                       =     0.001000 eV
redata: Require H convergence for SCF               =   T
redata: Hamiltonian tolerance for SCF               =     0.000001 eV
redata: Require (free) Energy convergence for SCF   =   F
redata: (free) Energy tolerance for SCF             =     0.000100 eV
redata: Using Saved Data (generic)                  =   F
redata: Use continuation files for DM               =   T
redata: Neglect nonoverlap interactions             =   F
redata: Method of Calculation                       = Diagonalization
redata: Electronic Temperature                      =   299.9978 K
redata: Fix the spin of the system                  =   F
redata: Dynamics option                             = Verlet MD run
redata: Initial MD time step                        =        1
redata:   Final MD time step                        =        1
redata: Length of MD time step                      =     0.5000 fs
redata: Initial Temperature of MD run               =     0.0000 K
redata: Perform a MD quench                         =   F
mix.SCF: Pulay mixing                            = Pulay
mix.SCF:    Variant                              = stable
mix.SCF:    History steps                        = 6
mix.SCF:    Linear mixing weight                 =     0.250000
mix.SCF:    Mixing weight                        =     0.250000
mix.SCF:    SVD condition                        = 0.1000E-07
mix.SCF:    Restart steps                        = 24
mix.SCF:    Restart save steps                   = 3
mix.SCF: Spin-component mixing                   all
redata: Save all siesta data in one NC              =   F
redata: ***********************************************************************

%block SCF.Mixers
  Pulay
%endblock SCF.Mixers

%block SCF.Mixer.Pulay
  # Mixing method
  method pulay
  variant stable

  # Mixing options
  weight 0.2500
  weight.linear 0.2500
  history 6
  restart 24
  restart.save 3
%endblock SCF.Mixer.Pulay

Size of DM history Fstack: 3
Total number of electrons:    98.000000
Total ionic charge:    98.000000

* ProcessorY, Blocksize:    4   9


* Orbital distribution balance (max,min):    18     9


Time-reversal symmetry not used.

siesta: k-grid: Number of k-points =     1
siesta: k-grid: Cutoff (effective) =     5.164 Ang
siesta: k-grid: Supercell and displacements
siesta: k-grid:    1   0   0      0.000
siesta: k-grid:    0   1   0      0.000
siesta: k-grid:    0   0   1      0.000

diag: Algorithm                                     = ELPA-1stage
diag: Parallel over k                               =   F
diag: Use parallel 2D distribution                  =   T
diag: Parallel block-size                           = 9
diag: Parallel distribution                         =     4 x     8
diag: Used triangular part                          = Lower
diag: Absolute tolerance                            =  0.100E-15
diag: Orthogonalization factor                      =  0.100E-05
diag: Memory factor                                 =  1.0000


ts: **************************************************************
ts: Save H and S matrices                           =    F
ts: Save DM and EDM matrices                        =    F
ts: Only save the overlap matrix S                  =    F
ts: **************************************************************

************************ Begin: TS CHECKS AND WARNINGS ************************
************************ End: TS CHECKS AND WARNINGS **************************


                     ====================================
                        Begin MD step =      1
                     ====================================

outcoor: Atomic coordinates (Ang):                          
    2.28494382   -5.19529124    0.00000000   1       1  H
    1.37433094   -4.66471070    0.00000000   2       2  N
   -0.21830245   -5.49458215    0.00000000   3       3  Si
   -0.17484108   -6.98516892    0.00000000   1       4  H
   -1.66171682   -4.58600741    0.00000000   2       5  N
   -1.09026419   -2.87456374    0.00000000   3       6  Si
   -1.53038332   -0.70765692    0.00000000   3       7  Si
   -3.14415959   -0.09186471    0.00000000   2       8  N
   -3.40268075    0.95848335    0.00000000   1       9  H
   -3.95073599   -0.76720972    0.00000000   1      10  H
   -0.17836637    0.41349951    0.00000000   2      11  N
    1.49520211   -0.04739960    0.00000000   3      12  Si
    2.45603905    1.10727302    0.00000000   1      13  H
    2.30451743   -1.58574382    0.00000000   2      14  N
    1.10725559   -2.84610319    0.00000000   3      15  Si
    0.01225060   11.54899497    0.00000000   1      16  H
   -0.79646008   10.85678909    0.00000000   2      17  N
   -2.45304992   11.56990919    0.00000000   3      18  Si
   -2.35618475   13.08063440    0.00000000   1      19  H
   -4.17920627   10.22686106    0.00000000   3      20  Si
   -6.53366052   10.21887413    0.00000000   3      21  Si
   -7.09607864   10.95336378   -1.20183078   1      22  H
   -6.83347427    8.73978300   -0.08618332   1      23  H
   -7.09619110   10.78370659    1.28814761   1      24  H
   -3.24981563    8.15628983    0.00000000   3      25  Si
   -4.19928399    6.86775370    0.00000000   4      26  O
   -1.45887076    7.98255436    0.00000000   2      27  N
   -1.12787940    6.95019738    0.00000000   1      28  H
   -0.15041254    9.17710078    0.00000000   3      29  Si
    1.41552439    8.90985393    0.00000000   4      30  O

outcell: Unit cell vectors (Ang):
       18.686432    0.000000    0.000000
        0.000000   29.660966    0.000000
        0.000000    0.000000   10.327559

outcell: Cell vector modules (Ang)   :   18.686432   29.660966   10.327559
outcell: Cell angles (23,13,12) (deg):     90.0000     90.0000     90.0000
outcell: Cell volume (Ang**3)        :   5724.1285
<dSpData1D:S at geom step 1
  <sparsity:sparsity for geom step 1
    nrows_g=302 nrows=18 sparsity=.0275 nnzs=2511, refcount: 8>
  <dData1D:(new from dSpData1D) n=2511, refcount: 1>
refcount: 1>
new_DM -- step:     1
Initializing Density Matrix...

Attempting to read DM from file... Failed...
DM filled with atomic data:
<dSpData2D:DM initialized from atoms
  <sparsity:sparsity for geom step 1
    nrows_g=302 nrows=18 sparsity=.0275 nnzs=2511, refcount: 9>
  <dData2D:DM n=2511 m=8, refcount: 1>
refcount: 1>
     spin moment: S , {S} =   56.00000   0.00000   0.00000  56.00000
No. of atoms with KB's overlaping orbs in proc 0. Max # of overlaps:      20     134

Initializing spin-orbit part of the Hamiltonian
  Adding spin-orbit effects for H 
  Adding spin-orbit effects for N 
  Adding spin-orbit effects for Si
  Adding spin-orbit effects for O 


New grid distribution:   1
           1       1:  108    1:   45    1:    8
           2       1:  108    1:   45    9:   16
           3       1:  108    1:   45   17:   24
           4       1:  108    1:   45   25:   32
           5       1:  108    1:   45   33:   39
           6       1:  108    1:   45   40:   46
           7       1:  108    1:   45   47:   53
           8       1:  108    1:   45   54:   60
           9       1:  108   46:   90    1:    8
          10       1:  108   46:   90    9:   16
          11       1:  108   46:   90   17:   24
          12       1:  108   46:   90   25:   32
          13       1:  108   46:   90   33:   39
          14       1:  108   46:   90   40:   46
          15       1:  108   46:   90   47:   53
          16       1:  108   46:   90   54:   60
          17       1:  108   91:  135    1:    8
          18       1:  108   91:  135    9:   16
          19       1:  108   91:  135   17:   24
          20       1:  108   91:  135   25:   32
          21       1:  108   91:  135   33:   39
          22       1:  108   91:  135   40:   46
          23       1:  108   91:  135   47:   53
          24       1:  108   91:  135   54:   60
          25       1:  108  136:  180    1:    8
          26       1:  108  136:  180    9:   16
          27       1:  108  136:  180   17:   24
          28       1:  108  136:  180   25:   32
          29       1:  108  136:  180   33:   39
          30       1:  108  136:  180   40:   46
          31       1:  108  136:  180   47:   53
          32       1:  108  136:  180   54:   60

InitMesh: MESH =   216 x   360 x   120 =     9331200
InitMesh: (bp) =   108 x   180 x    60 =     1166400
InitMesh: Mesh cutoff (required, used) =   340.000   369.281 Ry
ExtMesh (bp) on 0 =   212 x   157 x   116 =     3860944
New grid distribution:   2
           1       1:   33    1:   53    1:   19
           2      88:   98    1:   53    1:   19
           3      98:  108   54:   72    1:   21
           4       1:   46    1:   53   20:   60
           5      47:   87    1:   53   20:   60
           6      10:   80  161:  180    1:   20
           7      99:  108    1:   53    1:   19
           8      88:   97   54:   72    1:   21
           9      34:   87    1:   53    1:   19
          10       1:   72   54:   72    1:   22
          11      73:   87   54:   72    1:   22
          12      73:   87   54:   72   23:   60
          13       1:   72   54:   72   23:   60
          14      88:   98    1:   53   20:   60
          15      98:  108   54:   72   22:   60
          16      88:   97   54:   72   22:   60
          17      81:   99   73:  159    1:   20
          18       1:    9   73:  160    1:   20
          19     100:  108  160:  180    1:   20
          20      10:   80   73:  160   21:   60
          21      81:   99   73:  159   21:   60
          22       1:    9   73:  160   21:   60
          23      81:   99  160:  180    1:   20
          24       1:    9  161:  180    1:   20
          25      10:   80   73:  160    1:   20
          26     100:  108   73:  159    1:   20
          27       1:    9  161:  180   21:   60
          28     100:  108   73:  159   21:   60
          29      10:   80  161:  180   21:   60
          30      99:  108    1:   53   20:   60
          31      81:   99  160:  180   21:   60
          32     100:  108  160:  180   21:   60
New grid distribution:   3
           1       1:   49   47:   70    1:   25
           2      91:  108   42:   70   27:   60
           3       1:   15    1:   46    1:   24
           4      16:   73    1:   46   25:   60
           5      16:   73    1:   46    1:   24
           6      74:   92    1:   41   24:   60
           7      93:  108    1:   41   24:   60
           8      92:  108    1:   41    1:   23
           9      17:   76   71:  147    1:   25
          10      96:  108  143:  180   26:   60
          11      50:   73   47:   70    1:   25
          12       1:   50   47:   70   26:   60
          13      17:   76  148:  180    1:   25
          14       1:   15    1:   46   25:   60
          15      51:   73   47:   70   26:   60
          16      74:   90   42:   70   27:   60
          17      77:   95   71:  142    1:   24
          18      96:  108   71:  142    1:   24
          19      91:  108   42:   70    1:   26
          20      17:   76   71:  147   26:   60
          21      77:   95   71:  142   25:   60
          22      96:  108   71:  142   25:   60
          23      74:   91    1:   41    1:   23
          24       1:   16  148:  180    1:   25
          25       1:   16   71:  147    1:   25
          26      77:   94  143:  180    1:   25
          27      95:  108  143:  180    1:   25
          28      16:   76  148:  180   26:   60
          29       1:   16   71:  147   26:   60
          30      77:   95  143:  180   26:   60
          31       1:   15  148:  180   26:   60
          32      74:   90   42:   70    1:   26
Setting up quadratic distribution...
ExtMesh (bp) on 0 =   137 x   165 x   127 =     2870835
PhiOnMesh: Number of (b)points on node 0 =                33231
PhiOnMesh: nlist on node 0 =               446639

stepf: Fermi-Dirac step function

siesta: Program's energy decomposition (eV):
siesta: Ebs     =      -650.287555
siesta: Eions   =      3553.971015
siesta: Ena     =       374.984508
siesta: Ekin    =      3171.004801
siesta: Enl     =     -2984.409915
siesta: Eso     =        -0.003884
siesta: Edftu   =         0.000000
siesta: DEna    =       129.710862
siesta: DUscf   =        75.706227
siesta: DUext   =         0.000000
siesta: Exc     =     -1168.575211
siesta: eta*DQ  =         0.000000
siesta: Emadel  =         0.000000
siesta: Emeta   =         0.000000
siesta: Emolmec =         0.000000
siesta: Ekinion =         0.000000
siesta: Eharris =     -3884.402696
siesta: Etot    =     -3955.553626
siesta: FreeEng =     -3955.556917

        iscf     Eharris(eV)        E_KS(eV)     FreeEng(eV)     dDmax    Ef(eV) dHmax(eV)
   scf:    1    -3884.402696    -3955.553626    -3955.556917  0.970542 -4.935149 21.491883
     spin moment: S , {S} =    2.02334  -0.00000  -0.00000   2.02334
timer: Routine,Calls,Time,% = IterSCF        1       4.733  10.41
   scf:    2    -3996.413036    -3988.715424    -3988.715442  0.466862 -4.312173 11.941048
     spin moment: S , {S} =    2.00005   0.00000  -0.00000   2.00005
   scf:    3    -3959.776111    -3985.871181    -3985.896469  0.418597 -4.226948 11.456256
     spin moment: S , {S} =    1.97401  -0.00000  -0.00001   1.97401
   scf:    4    -4002.123877    -3997.239473    -3997.239473  0.244281 -3.930730  6.252429
     spin moment: S , {S} =    0.00010  -0.00000   0.00000   0.00010
   scf:    5    -3998.601484    -3998.003094    -3998.003094  0.039046 -3.839779  3.866937
     spin moment: S , {S} =    0.00006  -0.00000   0.00000   0.00006
   scf:    6    -3998.773179    -3998.391684    -3998.391684  0.025463 -3.826873  1.907000
     spin moment: S , {S} =    0.00003  -0.00000   0.00000   0.00003
   scf:    7    -3998.788157    -3998.583081    -3998.583081  0.023096 -3.857368  0.740633
     spin moment: S , {S} =    0.00001  -0.00000   0.00000   0.00001
   scf:    8    -3998.714217    -3998.645995    -3998.645995  0.012550 -3.921354  0.454053
     spin moment: S , {S} =    0.00000  -0.00000   0.00000   0.00000
   scf:    9    -3998.694915    -3998.669326    -3998.669326  0.007091 -3.935226  0.363556
     spin moment: S , {S} =    0.00000  -0.00000   0.00000   0.00000
   scf:   10    -3998.728278    -3998.690050    -3998.690050  0.022959 -3.961316  0.198047
     spin moment: S , {S} =    0.00000  -0.00000  -0.00000  -0.00000
   scf:   11    -3998.694501    -3998.692413    -3998.692413  0.004358 -3.947761  0.068400
     spin moment: S , {S} =    0.00000  -0.00000  -0.00000  -0.00000
   scf:   12    -3998.693110    -3998.692787    -3998.692787  0.001422 -3.945510  0.040658
     spin moment: S , {S} =    0.00000  -0.00000  -0.00000  -0.00000
   scf:   13    -3998.693389    -3998.693085    -3998.693085  0.000756 -3.943793  0.021439
     spin moment: S , {S} =    0.00000  -0.00000  -0.00000  -0.00000
   scf:   14    -3998.693410    -3998.693242    -3998.693242  0.000805 -3.942871  0.012963
     spin moment: S , {S} =    0.00000  -0.00000  -0.00000  -0.00000
   scf:   15    -3998.693368    -3998.693302    -3998.693302  0.000604 -3.942617  0.007690
     spin moment: S , {S} =    0.00000  -0.00000  -0.00000  -0.00000
   scf:   16    -3998.693367    -3998.693332    -3998.693332  0.000558 -3.942585  0.003421
     spin moment: S , {S} =    0.00000   0.00000  -0.00000  -0.00000
   scf:   17    -3998.693344    -3998.693338    -3998.693338  0.000247 -3.942684  0.002934
     spin moment: S , {S} =    0.00000   0.00000  -0.00000   0.00000
   scf:   18    -3998.693343    -3998.693340    -3998.693340  0.000183 -3.942740  0.001976
     spin moment: S , {S} =    0.00000   0.00000  -0.00000   0.00000
   scf:   19    -3998.693343    -3998.693341    -3998.693341  0.000162 -3.942756  0.001308
     spin moment: S , {S} =    0.00000   0.00000  -0.00000   0.00000
   scf:   20    -3998.693342    -3998.693341    -3998.693342  0.000074 -3.942776  0.000916
     spin moment: S , {S} =    0.00000   0.00000  -0.00000   0.00000
   scf:   21    -3998.693342    -3998.693342    -3998.693342  0.000065 -3.942797  0.000607
     spin moment: S , {S} =    0.00000   0.00000   0.00000   0.00000
   scf:   22    -3998.693342    -3998.693342    -3998.693342  0.000067 -3.942807  0.000286
     spin moment: S , {S} =    0.00000   0.00000   0.00000   0.00000
   scf:   23    -3998.693342    -3998.693342    -3998.693342  0.000031 -3.942803  0.000188
     spin moment: S , {S} =    0.00000   0.00000   0.00000   0.00000
   scf:   24    -3998.693342    -3998.693342    -3998.693342  0.000029 -3.942802  0.000080
     spin moment: S , {S} =    0.00000   0.00000   0.00000   0.00000
mix: Pulay -- resetting history
   scf:   25    -3998.693342    -3998.693342    -3998.693342  0.000017 -3.942808  0.000034
     spin moment: S , {S} =    0.00000   0.00000   0.00000   0.00000
   scf:   26    -3998.693342    -3998.693342    -3998.693342  0.000003 -3.942807  0.000026
     spin moment: S , {S} =    0.00000   0.00000   0.00000   0.00000
   scf:   27    -3998.693342    -3998.693342    -3998.693342  0.000002 -3.942803  0.000013
     spin moment: S , {S} =    0.00000   0.00000   0.00000   0.00000
   scf:   28    -3998.693342    -3998.693342    -3998.693342  0.000001 -3.942802  0.000009
     spin moment: S , {S} =    0.00000   0.00000   0.00000   0.00000
   scf:   29    -3998.693342    -3998.693342    -3998.693342  0.000000 -3.942801  0.000004
     spin moment: S , {S} =    0.00000   0.00000   0.00000   0.00000
   scf:   30    -3998.693342    -3998.693342    -3998.693342  0.000000 -3.942801  0.000003
     spin moment: S , {S} =    0.00000   0.00000   0.00000  -0.00000
   scf:   31    -3998.693342    -3998.693342    -3998.693342  0.000000 -3.942801  0.000002
     spin moment: S , {S} =    0.00000   0.00000   0.00000  -0.00000
   scf:   32    -3998.693342    -3998.693342    -3998.693342  0.000000 -3.942801  0.000002
     spin moment: S , {S} =    0.00000   0.00000   0.00000  -0.00000
   scf:   33    -3998.693342    -3998.693342    -3998.693342  0.000000 -3.942800  0.000001
     spin moment: S , {S} =    0.00000   0.00000   0.00000  -0.00000
   scf:   34    -3998.693342    -3998.693342    -3998.693342  0.000000 -3.942800  0.000001
     spin moment: S , {S} =    0.00000   0.00000   0.00000  -0.00000

SCF Convergence by DM+H criterion
max |DM_out - DM_in|         :     0.0000001242
max |H_out - H_in|      (eV) :     0.0000006219
SCF cycle converged after 34 iterations

Using DM_out to compute the final energy and forces
No. of atoms with KB's overlaping orbs in proc 0. Max # of overlaps:      20     134

siesta: E_KS(eV) =            -3998.6933

siesta: E_KS - E_eggbox =     -3998.6933
     spin moment: S , {S} =    0.00000   0.00000   0.00000  -0.00000

siesta: Atomic forces (eV/Ang):
     1    0.127877    0.014497   -0.000000
     2   -0.035658    0.025737    0.000000
     3   -0.028426   -0.008368   -0.000000
     4    0.065184   -0.202581   -0.000000
     5    0.006828   -0.031130    0.000000
     6   -0.188663    0.019017    0.000000
     7    1.055305   -0.018708   -0.000000
     8   -0.649520    1.409900   -0.000000
     9    0.220657   -1.038900   -0.000000
    10   -0.157102    0.169338    0.000000
    11   -0.231496   -0.407111    0.000000
    12   -0.281008    0.055022    0.000000
    13   -0.135521   -0.034112   -0.000000
    14    0.034428   -0.129035   -0.000000
    15    0.108922    0.106714    0.000000
    16   -0.161618   -0.143435   -0.000945
    17    0.061485   -0.100269   -0.000805
    18   -0.172391    0.037681    0.005214
    19    0.127588   -0.067566   -0.001438
    20    0.128105    0.084330   -0.000955
    21    0.029786   -0.031281   -0.007396
    22    0.139227    0.150090    0.011449
    23   -0.000427   -0.120535   -0.013544
    24    0.098429    0.181867   -0.046507
    25   -0.672701   -0.399846    0.001016
    26   -0.845303   -2.813839    0.000502
    27    0.400554   -0.461356   -0.000550
    28   -0.163148    0.681488   -0.000071
    29    0.124980    0.184542   -0.000227
    30   -1.442535   -2.198996    0.000263
----------------------------------------
   Tot   -2.436162   -5.086846   -0.053993
----------------------------------------
   Max    2.813839
   Res    0.499816    sqrt( Sum f_i^2 / 3N )
----------------------------------------
   Max    2.813839    constrained

Stress tensor Voigt[x,y,z,yz,xz,xy] (kbar):        0.43        0.68       -0.04       -0.02        0.00        0.30
(Free)E + p*V (eV/cell)    -3999.9665
Target enthalpy (eV/cell)    -3998.6933

siesta: Stress tensor (static) (eV/Ang**3):
         0.000266    0.000185    0.000001
         0.000185    0.000424   -0.000010
         0.000001   -0.000010   -0.000023

siesta: Pressure (static):         -0.35634731  kBar

siesta: Stress tensor (total) (eV/Ang**3):
         0.000266    0.000185    0.000001
         0.000185    0.000424   -0.000010
         0.000001   -0.000010   -0.000023

siesta: Pressure (total):         -0.35634731  kBar

siesta: Temp_ion =       0.000 K

siesta: Eigenvalues (eV):
ik =     1
  -22.9226  -22.9226  -22.3703  -22.3703  -21.7786  -21.7786  -21.3302  -21.3302  -21.1845  -21.1845
  -21.0782  -21.0782  -19.5470  -19.5470  -19.3985  -19.3985  -18.7582  -18.7582  -15.0483  -15.0483
  -14.1284  -14.1284  -13.8030  -13.8030  -13.6203  -13.6203  -13.1159  -13.1159  -13.0535  -13.0535
  -12.6889  -12.6889  -12.3002  -12.3002  -11.9465  -11.9465  -11.7570  -11.7570  -11.5367  -11.5367
  -11.1397  -11.1397  -10.6587  -10.6587  -10.3629  -10.3629   -9.5690   -9.5690   -9.3299   -9.3299
   -9.3077   -9.3077   -9.1168   -9.1168   -9.0718   -9.0718   -8.9556   -8.9556   -8.6414   -8.6414
   -8.4260   -8.4260   -8.3870   -8.3870   -8.2935   -8.2935   -8.0746   -8.0746   -8.0495   -8.0495
   -7.7501   -7.7501   -7.5396   -7.5396   -7.4551   -7.4551   -7.3188   -7.3188   -6.9886   -6.9886
   -6.9060   -6.9060   -6.7618   -6.7618   -6.5682   -6.5682   -6.3222   -6.3222   -6.3070   -6.3070
   -5.9511   -5.9511   -5.7316   -5.7316   -5.6944   -5.6944   -4.3688   -4.3688   -3.5168   -3.5168
   -2.7253   -2.7253   -2.3369   -2.3369   -2.2423   -2.2423   -2.1582   -2.1582   -2.1012   -2.1012
   -2.0124   -2.0124   -1.8581   -1.8581   -1.7408   -1.7408   -1.6659   -1.6659   -1.5594   -1.5594
   -1.1952   -1.1952   -0.7272   -0.7272   -0.4608   -0.4608   -0.3589   -0.3589   -0.1950   -0.1950
   -0.0265   -0.0265    0.0365    0.0365    0.2180    0.2180    0.4251    0.4251    0.4755    0.4755
    0.4877    0.4877    0.7118    0.7118    1.0658    1.0658    1.1259    1.1259    1.2429    1.2429
    1.4288    1.4288    1.5382    1.5382    1.7709    1.7709    1.9193    1.9193    2.0321    2.0321
    2.2930    2.2930    2.6645    2.6645    2.6903    2.6903    2.7217    2.7217    2.7780    2.7780
    2.9329    2.9329    2.9624    2.9624    3.1073    3.1073    3.2321    3.2321    3.2787    3.2787
    3.5221    3.5221    3.8776    3.8776    4.0597    4.0597    4.0713    4.0713    4.2052    4.2052
    4.3193    4.3193    4.5383    4.5383    4.5451    4.5451    4.7613    4.7613    4.9269    4.9269
    5.0374    5.0374    5.0729    5.0729    5.5416    5.5416    5.6150    5.6150    5.6669    5.6669
    5.7327    5.7327    6.0134    6.0134    6.0210    6.0210    6.1820    6.1820    6.1954    6.1954
    6.4847    6.4847    6.5562    6.5562    6.7925    6.7925    7.0125    7.0125    7.0670    7.0670
    7.1163    7.1163    7.3367    7.3367    7.5001    7.5001    7.8113    7.8113    7.8309    7.8309
    7.9497    7.9497    8.1053    8.1053    8.2261    8.2261    8.2354    8.2354    8.6473    8.6473
    8.7883    8.7883    8.8793    8.8793    8.9479    8.9479    9.1452    9.1452    9.5144    9.5144
    9.5782    9.5782    9.7029    9.7029    9.7683    9.7683    9.7761    9.7761    9.9056    9.9056
   10.1398   10.1398   10.3161   10.3161   10.6015   10.6015   10.8493   10.8493   10.9019   10.9019
   11.2587   11.2587   11.2765   11.2765   11.5289   11.5289   11.5622   11.5622   11.6114   11.6114
   11.8932   11.8932   12.1687   12.1687   12.2917   12.2917   12.3680   12.3680   12.6028   12.6028
   12.7900   12.7900   12.9144   12.9144   13.0103   13.0103   13.1368   13.1368   13.3248   13.3248
   13.3658   13.3658   13.5950   13.5950   14.4508   14.4508   14.6020   14.6020   14.6336   14.6336
   14.6730   14.6730   14.7938   14.7938   15.1358   15.1358   16.0776   16.0776   16.5451   16.5451
   16.6438   16.6438   16.7741   16.7741   16.9955   16.9955   17.1564   17.1564   17.3033   17.3033
   18.0837   18.0837   18.2216   18.2216   18.4430   18.4430   18.6959   18.6959   18.7200   18.7200
   18.7221   18.7221   19.5137   19.5137   19.7511   19.7511   19.9894   19.9894   20.2093   20.2093
   20.5808   20.5808   21.0583   21.0583   21.0882   21.0882   21.6875   21.6875   22.1693   22.1693
   22.2466   22.2466   22.8323   22.8323   22.8635   22.8635   23.0386   23.0386   23.8191   23.8191
   24.5667   24.5667   24.7021   24.7021   24.8009   24.8009   25.6655   25.6655   25.9340   25.9340
   26.0005   26.0005   26.4561   26.4561   26.5127   26.5127   27.7476   27.7476   28.0125   28.0125
   28.2830   28.2830   28.4488   28.4488   29.1021   29.1021   29.4606   29.4606   30.3301   30.3301
   30.6986   30.6986   30.7541   30.7541   30.7982   30.7982   31.2518   31.2518   31.5115   31.5115
   31.7305   31.7305   31.9002   31.9002   32.0456   32.0456   33.3370   33.3370   33.3546   33.3546
   33.6893   33.6893   34.0005   34.0005   34.4867   34.4867   34.7602   34.7602   34.8792   34.8792
   35.4514   35.4514   35.9687   35.9687   36.0127   36.0127   37.0372   37.0372   37.4597   37.4597
   37.5128   37.5128   37.6898   37.6898   38.0096   38.0096   38.3996   38.3996   38.4323   38.4323
   39.0859   39.0859   40.1114   40.1114   40.1553   40.1553   40.7219   40.7219   41.0829   41.0829
   41.5901   41.5901   41.7908   41.7908   41.8361   41.8361   43.2736   43.2736   43.3516   43.3516
   43.7741   43.7741   44.4513   44.4513   44.7866   44.7866   44.8432   44.8432   45.0384   45.0384
   45.4903   45.4903   45.7509   45.7509   45.8639   45.8639   46.4744   46.4744   46.8886   46.8886
   47.0655   47.0655   47.3905   47.3905   48.5002   48.5002   48.7710   48.7710   49.3551   49.3551
   49.6700   49.6700   50.1785   50.1785   50.1926   50.1926   50.3102   50.3102   50.3167   50.3167
   51.7095   51.7095   52.5321   52.5321   52.7007   52.7007   53.8312   53.8312   54.3233   54.3233
   54.7544   54.7544   54.8151   54.8151   55.9518   55.9518   56.0630   56.0630   56.1895   56.1895
   56.8139   56.8139   57.6338   57.6338   57.9554   57.9554   58.3680   58.3680   59.5483   59.5483
   59.9289   59.9289   61.0896   61.0896   61.6038   61.6038   62.8252   62.8252   63.2400   63.2400
   65.1495   65.1495   65.4356   65.4356   66.9398   66.9398   67.2553   67.2553   68.3170   68.3170
   68.4172   68.4172   70.5603   70.5603   71.8649   71.8649   76.4195   76.4195   88.6315   88.6315
   91.8495   91.8495   92.9349   92.9349   94.9694   94.9694   96.4952   96.4952  100.0490  100.0490
  100.7801  100.7801  102.4543  102.4543  114.1996  114.1996  118.3186  118.3186  123.1396  123.1396
  132.4325  132.4325  138.6911  138.6911
siesta: Fermi energy =      -3.942800 eV

siesta: Program's energy decomposition (eV):
siesta: Ebs     =     -1120.828184
siesta: Eions   =      3553.971015
siesta: Ena     =       374.984508
siesta: Ekin    =      2742.957158
siesta: Enl     =     -2522.597278
siesta: Eso     =        -0.004664
siesta: Edftu   =         0.000000
siesta: DEna    =        36.840493
siesta: DUscf   =        13.890790
siesta: DUext   =         0.000000
siesta: Exc     =     -1090.793334
siesta: eta*DQ  =         0.000000
siesta: Emadel  =         0.000000
siesta: Emeta   =         0.000000
siesta: Emolmec =         0.000000
siesta: Ekinion =         0.000000
siesta: Eharris =     -3998.693342
siesta: Etot    =     -3998.693342
siesta: FreeEng =     -3998.693342

siesta: Final energy (eV):
siesta:  Band Struct. =   -1120.828184
siesta:       Kinetic =    2742.957158
siesta:       Hartree =    7269.846687
siesta:       Edftu   =       0.000000
siesta:       Eso     =      -0.004664
siesta:    Ext. field =       0.000000
siesta:   Exch.-corr. =   -1090.793334
siesta:  Ion-electron =  -16987.842790
siesta:       Ion-ion =    4067.143601
siesta:       Ekinion =       0.000000
siesta:         Total =   -3998.693342
siesta:         Fermi =      -3.942800

siesta: Atomic forces (eV/Ang):
siesta:      1    0.127877    0.014497   -0.000000
siesta:      2   -0.035658    0.025737    0.000000
siesta:      3   -0.028426   -0.008368   -0.000000
siesta:      4    0.065184   -0.202581   -0.000000
siesta:      5    0.006828   -0.031130    0.000000
siesta:      6   -0.188663    0.019017    0.000000
siesta:      7    1.055305   -0.018708   -0.000000
siesta:      8   -0.649520    1.409900   -0.000000
siesta:      9    0.220657   -1.038900   -0.000000
siesta:     10   -0.157102    0.169338    0.000000
siesta:     11   -0.231496   -0.407111    0.000000
siesta:     12   -0.281008    0.055022    0.000000
siesta:     13   -0.135521   -0.034112   -0.000000
siesta:     14    0.034428   -0.129035   -0.000000
siesta:     15    0.108922    0.106714    0.000000
siesta:     16   -0.161618   -0.143435   -0.000945
siesta:     17    0.061485   -0.100269   -0.000805
siesta:     18   -0.172391    0.037681    0.005214
siesta:     19    0.127588   -0.067566   -0.001438
siesta:     20    0.128105    0.084330   -0.000955
siesta:     21    0.029786   -0.031281   -0.007396
siesta:     22    0.139227    0.150090    0.011449
siesta:     23   -0.000427   -0.120535   -0.013544
siesta:     24    0.098429    0.181867   -0.046507
siesta:     25   -0.672701   -0.399846    0.001016
siesta:     26   -0.845303   -2.813839    0.000502
siesta:     27    0.400554   -0.461356   -0.000550
siesta:     28   -0.163148    0.681488   -0.000071
siesta:     29    0.124980    0.184542   -0.000227
siesta:     30   -1.442535   -2.198996    0.000263
siesta: ----------------------------------------
siesta:    Tot   -2.436162   -5.086846   -0.053993

siesta: Stress tensor (static) (eV/Ang**3):
siesta:     0.000266    0.000185    0.000001
siesta:     0.000185    0.000424   -0.000010
siesta:     0.000001   -0.000010   -0.000023

siesta: Cell volume =       5724.128453 Ang**3

siesta: Pressure (static):
siesta:                Solid            Molecule  Units
siesta:          -0.00000242          0.00001257  Ry/Bohr**3
siesta:          -0.00022241          0.00115431  eV/Ang**3
siesta:          -0.35634731          1.84943459  kBar
(Free)E+ p_basis*V_orbitals  =       -3977.565257
(Free)Eharris+ p_basis*V_orbitals  =       -3977.565257
     spin moment: S , {S} =    0.00000   0.00000   0.00000  -0.00000

siesta: Electric dipole (a.u.)  =   -1.251910    1.633308   -0.001757
siesta: Electric dipole (Debye) =   -3.182040    4.151459   -0.004467

cite: Please see "AT.bib" for an exhaustive BiBTeX file.
cite: Please clearly indicate Siesta version in published work: v4.1.5-1-g384057250
cite: This calculation has made use of the following articles
cite: which are encouraged to be cited in a published work.
        Primary SIESTA paper
          DOI: www.doi.org/10.1088/0953-8984/14/11/302
        Spin-orbit coupling (on-site approximation)
          DOI: www.doi.org/10.1088/0953-8984/19/19/489001


WARNING: alloc-realloc-dealloc name mismatch
         Name: atomlist isa
         Size:              -120. Bytes
         Node:     0
         Subsequent mismatches will not be reported
>> End of run:  16-OCT-2023  21:15:29
Job completed
