Siesta Version  : v4.1.5-1-g384057250
Architecture    : gcc
Compiler version: GNU Fortran (Ubuntu 11.4.0-1ubuntu1~22.04) 11.4.0
Compiler flags  : mpifort -O2 -fPIC -ftree-vectorize -fallow-argument-mismatch
PP flags        : -DFC_HAVE_ABORT -DMPI -DSIESTA__FLOOK -DSIESTA__METIS -DSIESTA__MUMPS -DCDF -DNCDF -DNCDF_4 -DNCDF_PARALLEL -DSIESTA__MRRR -DSIESTA__ELPA
Libraries       : libncdf.a libfdict.a  -lflookall -ldl -lnetcdff -lnetcdf -lhdf5_hl -lhdf5 -lhdf5_fortran -lz -lscalapack-openmpi -lopenblas -lmetis -lzmumps -lcmumps -ldmumps -lmumps_common -lpord -lsmumps -lesmumps -lscotch -lscotcherr -fopenmp -lelpa
PARALLEL version
NetCDF support
NetCDF-4 support
NetCDF-4 MPI-IO support
METIS ordering support
Lua support

* Running on 8 nodes in parallel
>> Start of run:   1-FEB-2024  19:16:30

                           ***********************       
                           *  WELCOME TO SIESTA  *       
                           ***********************       

reinit: Reading from standard input
reinit: Dumped input in INPUT_TMP.49851
************************** Dump of input data file ****************************
# mpirun -np 4 siesta-4.1.5 < AT.fdf > AT.out &
SystemLabel      AT
NumberOfAtoms    30
NumberOfSpecies  4
%block ChemicalSpeciesLabel
    1    1  H
    2    7  N
    3   14  Si
    4    8  O
%endblock ChemicalSpeciesLabel
############################################
# This overrides Defaults.fdf configuration
############################################
MD.TypeOfRun                Verlet # CG, Verlet
MD.Steps                    0
MaxSCFIterations            200
SCF.MustConverge            F
AtomicCoordinatesFormat NotScaledCartesianAng
%block AtomicCoordinatesAndAtomicSpecies
    2.28494382 -5.19529124 0.0  1  1  H
    1.37433094 -4.6647107 0.0  2  2  N
    -0.21830245 -5.49458215 0.0  3  3  Si
    -0.17484108 -6.98516892 0.0  1  4  H
    -1.66171682 -4.58600741 0.0  2  5  N
    -1.09026419 -2.87456374 0.0  3  6  Si
    -1.53038332 -0.70765692 0.0  3  7  Si
    -3.14415959 -0.09186471 0.0  2  8  N
    -3.40268075 0.95848335 0.0  1  9  H
    -3.95073599 -0.76720972 0.0  1  10  H
    -0.17836637 0.41349951 0.0  2  11  N
    1.49520211 -0.0473996 0.0  3  12  Si
    2.45603905 1.10727302 0.0  1  13  H
    2.30451743 -1.58574382 0.0  2  14  N
    1.10725559 -2.84610319 0.0  3  15  Si
    0.27219725211005336 9.684527934247994 0.0  1  16  H
    -0.5365134278899466 8.992322054247992 0.0  2  17  N
    -2.1931032678899465 9.705442154247994 0.0  3  18  Si
    -2.0962380978899464 11.216167364247994 0.0  1  19  H
    -3.9192596178899466 8.362394024247994 0.0  3  20  Si
    -6.2737138678899464 8.354407094247993 0.0  3  21  Si
    -6.836131987889947 9.088896744247993 -1.20183078  1  22  H
    -6.573527617889947 6.875315964247993 -0.08618332  1  23  H
    -6.836244447889946 8.919239554247994 1.28814761  1  24  H
    -2.9898689778899468 6.291822794247993 0.0  3  25  Si
    -3.9393373378899468 5.003286664247993 0.0  4  26  O
    -1.1989241078899466 6.118087324247993 0.0  2  27  N
    -0.8679327478899466 5.0857303442479935 0.0  1  28  H
    0.10953411211005332 7.312633744247993 0.0  3  29  Si
    1.6754710421100532 7.045386894247994 0.0  4  30  O
%endblock AtomicCoordinatesAndAtomicSpecies
#############
# Unit Cell
#############
LatticeConstant 1.0 Ang
%block LatticeVectors
    30.00000    0.000000    0.000000
    0.000000    45.00000    0.000000
    0.000000    0.000000    10.00000
%endblock LatticeVectors
%include ../../../../Defaults.fdf
************************** End of input data file *****************************

reinit: -----------------------------------------------------------------------
reinit: System Name: 
reinit: -----------------------------------------------------------------------
reinit: System Label: AT
reinit: -----------------------------------------------------------------------

initatom: Reading input for the pseudopotentials and atomic orbitals ----------
Species number:   1 Atomic number:    1 Label: H
Species number:   2 Atomic number:    7 Label: N
Species number:   3 Atomic number:   14 Label: Si
Species number:   4 Atomic number:    8 Label: O

Ground state valence configuration:   1s01
Reading pseudopotential information in formatted form from H.psf

Pseudopotential generated from a relativistic atomic calculation

Valence configuration for pseudopotential generation:
1s( 1.00) rc: 0.01
2p( 0.00) rc: 0.60
3d( 0.00) rc: 1.99
4f( 0.00) rc: 2.49
Ground state valence configuration:   2s02  2p03
Reading pseudopotential information in formatted form from N.psf

Pseudopotential generated from a relativistic atomic calculation

Valence configuration for pseudopotential generation:
2s( 2.00) rc: 0.94
2p( 3.00) rc: 0.59
3d( 0.00) rc: 3.46
4f( 0.00) rc: 2.47
Ground state valence configuration:   3s02  3p02
Reading pseudopotential information in formatted form from Si.psf

Pseudopotential generated from a relativistic atomic calculation

Valence configuration for pseudopotential generation:
3s( 2.00) rc: 1.67
3p( 2.00) rc: 2.04
3d( 0.00) rc: 2.89
4f( 0.00) rc: 2.49
Ground state valence configuration:   2s02  2p04
Reading pseudopotential information in formatted form from O.psf

Pseudopotential generated from a relativistic atomic calculation

Valence configuration for pseudopotential generation:
2s( 2.00) rc: 0.45
2p( 4.00) rc: 0.92
3d( 0.00) rc: 2.24
4f( 0.00) rc: 0.25
For H, standard SIESTA heuristics set lmxkb to 2
 (one more than the basis l, including polarization orbitals).
Use PS.lmax or PS.KBprojectors blocks to override.
For N, standard SIESTA heuristics set lmxkb to 3
 (one more than the basis l, including polarization orbitals).
Use PS.lmax or PS.KBprojectors blocks to override.
For Si, standard SIESTA heuristics set lmxkb to 3
 (one more than the basis l, including polarization orbitals).
Use PS.lmax or PS.KBprojectors blocks to override.
For O, standard SIESTA heuristics set lmxkb to 3
 (one more than the basis l, including polarization orbitals).
Use PS.lmax or PS.KBprojectors blocks to override.

<basis_specs>
===============================================================================
H                    Z=   1    Mass=  1.0100        Charge= 0.17977+309
Lmxo=0 Lmxkb= 2    BasisType=split      Semic=F
L=0  Nsemic=0  Cnfigmx=1
          i=1  nzeta=2  polorb=1  (1s)
            splnorm:   0.62000    
               vcte:    0.0000    
               rinn:    0.0000    
               qcoe:    0.0000    
               qyuk:    0.0000    
               qwid:   0.10000E-01
                rcs:    0.0000      0.0000    
            lambdas:    1.0000      1.0000    
-------------------------------------------------------------------------------
L=0  Nkbl=1  erefs: 0.17977+309
L=1  Nkbl=1  erefs: 0.17977+309
L=2  Nkbl=1  erefs: 0.17977+309
===============================================================================
</basis_specs>

atom: Called for H                     (Z =   1)

read_vps: Pseudopotential generation method:
read_vps: ATM4.2.7  Troullier-Martins                       
Valence charge for ps generation:    1.00000

xc_check: Exchange-correlation functional:
xc_check: GGA Perdew, Burke & Ernzerhof 1996
V l=0 = -2*Zval/r beyond r=  0.0098
V l=1 = -2*Zval/r beyond r=  0.5817
V l=2 = -2*Zval/r beyond r=  1.9372
All V_l potentials equal beyond r=  1.9372
This should be close to max(r_c) in ps generation
All pots = -2*Zval/r beyond r=  1.9372

VLOCAL1: 99.0% of the norm of Vloc inside     11.567 Ry
VLOCAL1: 99.9% of the norm of Vloc inside     26.362 Ry
atom: Maximum radius for 4*pi*r*r*local-pseudopot. charge    2.25106
atom: Maximum radius for r*vlocal+2*Zval:    1.91306
GHOST: No ghost state for L =  0
GHOST: No ghost state for L =  1
GHOST: No ghost state for L =  2

KBgen: Kleinman-Bylander projectors: 
   l= 0   rc=  2.036604   el= -0.477180   Ekb= -6.081590   kbcos= -0.277285
   l= 1   rc=  2.195416   el=  0.001076   Ekb= -0.926943   kbcos= -0.034643
   l= 2   rc=  2.251056   el=  0.002010   Ekb= -0.130941   kbcos= -0.009788

KBgen: Total number of Kleinman-Bylander projectors:    9
atom: -------------------------------------------------------------------------

atom: SANKEY-TYPE ORBITALS:
atom: Selected multiple-zeta basis: split     

SPLIT: Orbitals with angular momentum L= 0

SPLIT: Basis orbitals for state 1s

SPLIT: PAO cut-off radius determined from an
SPLIT: energy shift=  0.002000 Ry

   izeta = 1
                 lambda =    1.000000
                     rc =    6.518340
                 energy =   -0.475305
                kinetic =    0.912139
    potential(screened) =   -1.387444
       potential(ionic) =   -1.907295

   izeta = 2
                 rmatch =    2.141150
              splitnorm =    0.620000
                 energy =    0.566467
                kinetic =    3.772856
    potential(screened) =   -3.206389
       potential(ionic) =   -3.759093

POLgen: Perturbative polarization orbital with L=  1

POLgen: Polarization orbital for state 1s

   izeta = 1
                     rc =    6.518340
                 energy =    0.533861
                kinetic =    1.121086
    potential(screened) =   -0.587225
       potential(ionic) =   -1.053027
atom: Total number of Sankey-type orbitals:  5

atm_pop: Valence configuration (for local Pseudopot. screening):
 1s( 1.00)                                                            
Vna: chval, zval:    1.00000   1.00000

Vna:  Cut-off radius for the neutral-atom potential:   6.518340

atom: _________________________________________________________________________

<basis_specs>
===============================================================================
N                    Z=   7    Mass=  14.010        Charge= 0.17977+309
Lmxo=1 Lmxkb= 3    BasisType=split      Semic=F
L=0  Nsemic=0  Cnfigmx=2
          i=1  nzeta=2  polorb=0  (2s)
            splnorm:   0.28000    
               vcte:    0.0000    
               rinn:    0.0000    
               qcoe:    0.0000    
               qyuk:    0.0000    
               qwid:   0.10000E-01
                rcs:    0.0000      0.0000    
            lambdas:    1.0000      1.0000    
L=1  Nsemic=0  Cnfigmx=2
          i=1  nzeta=2  polorb=1  (2p)
            splnorm:   0.28000    
               vcte:    0.0000    
               rinn:    0.0000    
               qcoe:    0.0000    
               qyuk:    0.0000    
               qwid:   0.10000E-01
                rcs:    0.0000      0.0000    
            lambdas:    1.0000      1.0000    
-------------------------------------------------------------------------------
L=0  Nkbl=1  erefs: 0.17977+309
L=1  Nkbl=1  erefs: 0.17977+309
L=2  Nkbl=1  erefs: 0.17977+309
L=3  Nkbl=1  erefs: 0.17977+309
===============================================================================
</basis_specs>

atom: Called for N                     (Z =   7)

read_vps: Pseudopotential generation method:
read_vps: ATM4.2.7  Troullier-Martins                       
Valence charge for ps generation:    5.00000

xc_check: Exchange-correlation functional:
xc_check: GGA Perdew, Burke & Ernzerhof 1996
V l=0 = -2*Zval/r beyond r=  1.2889
V l=1 = -2*Zval/r beyond r=  1.2889
V l=2 = -2*Zval/r beyond r=  3.4178
V l=3 = -2*Zval/r beyond r=  2.4084
All V_l potentials equal beyond r=  3.3753
This should be close to max(r_c) in ps generation
All pots = -2*Zval/r beyond r=  3.4178

VLOCAL1: 99.0% of the norm of Vloc inside      3.810 Ry
VLOCAL1: 99.9% of the norm of Vloc inside      8.683 Ry
atom: Maximum radius for 4*pi*r*r*local-pseudopot. charge    4.02088
atom: Maximum radius for r*vlocal+2*Zval:    3.54838
GHOST: No ghost state for L =  0
GHOST: No ghost state for L =  1
GHOST: No ghost state for L =  2
GHOST: No ghost state for L =  3

KBgen: Kleinman-Bylander projectors: 
   l= 0   rc=  3.417763   el= -1.365098   Ekb= -4.433130   kbcos= -0.707855
   l= 1   rc=  3.375302   el= -0.521201   Ekb=-13.264039   kbcos= -0.535594
   l= 2   rc=  3.872880   el=  0.001991   Ekb= -0.641094   kbcos= -0.062456
   l= 3   rc=  3.970931   el=  0.003093   Ekb= -0.474517   kbcos= -0.018236

KBgen: Total number of Kleinman-Bylander projectors:   16
atom: -------------------------------------------------------------------------

atom: SANKEY-TYPE ORBITALS:
atom: Selected multiple-zeta basis: split     

SPLIT: Orbitals with angular momentum L= 0

SPLIT: Basis orbitals for state 2s

SPLIT: PAO cut-off radius determined from an
SPLIT: energy shift=  0.002000 Ry

   izeta = 1
                 lambda =    1.000000
                     rc =    4.730425
                 energy =   -1.363399
                kinetic =    1.245246
    potential(screened) =   -2.608645
       potential(ionic) =   -8.121105

   izeta = 2
                 rmatch =    2.531849
              splitnorm =    0.280000
                 energy =   -0.959908
                kinetic =    2.409435
    potential(screened) =   -3.369343
       potential(ionic) =   -9.427975

SPLIT: Orbitals with angular momentum L= 1

SPLIT: Basis orbitals for state 2p

SPLIT: PAO cut-off radius determined from an
SPLIT: energy shift=  0.002000 Ry

   izeta = 1
                 lambda =    1.000000
                     rc =    5.924108
                 energy =   -0.519262
                kinetic =    3.672940
    potential(screened) =   -4.192202
       potential(ionic) =   -9.518354

   izeta = 2
                 rmatch =    2.531849
              splitnorm =    0.280000
                 energy =   -0.104258
                kinetic =    6.807538
    potential(screened) =   -6.911796
       potential(ionic) =  -13.149920

POLgen: Perturbative polarization orbital with L=  2

POLgen: Polarization orbital for state 2p

   izeta = 1
                     rc =    5.924108
                 energy =    1.427508
                kinetic =    2.872379
    potential(screened) =   -1.444871
       potential(ionic) =   -5.563644
atom: Total number of Sankey-type orbitals: 13

atm_pop: Valence configuration (for local Pseudopot. screening):
 2s( 2.00)                                                            
 2p( 3.00)                                                            
Vna: chval, zval:    5.00000   5.00000

Vna:  Cut-off radius for the neutral-atom potential:   5.924108

atom: _________________________________________________________________________

<basis_specs>
===============================================================================
Si                   Z=  14    Mass=  28.090        Charge= 0.17977+309
Lmxo=1 Lmxkb= 3    BasisType=split      Semic=F
L=0  Nsemic=0  Cnfigmx=3
          i=1  nzeta=2  polorb=0  (3s)
            splnorm:   0.28000    
               vcte:    0.0000    
               rinn:    0.0000    
               qcoe:    0.0000    
               qyuk:    0.0000    
               qwid:   0.10000E-01
                rcs:    0.0000      0.0000    
            lambdas:    1.0000      1.0000    
L=1  Nsemic=0  Cnfigmx=3
          i=1  nzeta=2  polorb=1  (3p)
            splnorm:   0.28000    
               vcte:    0.0000    
               rinn:    0.0000    
               qcoe:    0.0000    
               qyuk:    0.0000    
               qwid:   0.10000E-01
                rcs:    0.0000      0.0000    
            lambdas:    1.0000      1.0000    
-------------------------------------------------------------------------------
L=0  Nkbl=1  erefs: 0.17977+309
L=1  Nkbl=1  erefs: 0.17977+309
L=2  Nkbl=1  erefs: 0.17977+309
L=3  Nkbl=1  erefs: 0.17977+309
===============================================================================
</basis_specs>

atom: Called for Si                    (Z =  14)

read_vps: Pseudopotential generation method:
read_vps: ATM4.2.7  Troullier-Martins                       
Valence charge for ps generation:    4.00000

xc_check: Exchange-correlation functional:
xc_check: GGA Perdew, Burke & Ernzerhof 1996
V l=0 = -2*Zval/r beyond r=  2.7826
V l=1 = -2*Zval/r beyond r=  2.7826
V l=2 = -2*Zval/r beyond r=  2.9253
V l=3 = -2*Zval/r beyond r=  2.7826
All V_l potentials equal beyond r=  2.8530
This should be close to max(r_c) in ps generation
All pots = -2*Zval/r beyond r=  2.9253

VLOCAL1: 99.0% of the norm of Vloc inside      5.333 Ry
VLOCAL1: 99.9% of the norm of Vloc inside     12.154 Ry
atom: Maximum radius for 4*pi*r*r*local-pseudopot. charge    3.39869
atom: Maximum radius for r*vlocal+2*Zval:    2.96205
GHOST: No ghost state for L =  0
GHOST: No ghost state for L =  1
GHOST: No ghost state for L =  2
GHOST: No ghost state for L =  3

KBgen: Kleinman-Bylander projectors: 
   l= 0   rc=  3.075247   el= -0.794092   Ekb=  5.879390   kbcos=  0.167461
   l= 1   rc=  3.153101   el= -0.300068   Ekb=  2.642817   kbcos=  0.058301
   l= 2   rc=  3.273594   el=  0.001958   Ekb= -1.185135   kbcos= -0.104411
   l= 3   rc=  3.232927   el=  0.003046   Ekb= -0.497174   kbcos= -0.015889

KBgen: Total number of Kleinman-Bylander projectors:   16
atom: -------------------------------------------------------------------------

atom: SANKEY-TYPE ORBITALS:
atom: Selected multiple-zeta basis: split     

SPLIT: Orbitals with angular momentum L= 0

SPLIT: Basis orbitals for state 3s

SPLIT: PAO cut-off radius determined from an
SPLIT: energy shift=  0.002000 Ry

   izeta = 1
                 lambda =    1.000000
                     rc =    6.429618
                 energy =   -0.792283
                kinetic =    0.525293
    potential(screened) =   -1.317576
       potential(ionic) =   -3.744923

   izeta = 2
                 rmatch =    3.998416
              splitnorm =    0.280000
                 energy =   -0.583081
                kinetic =    1.069570
    potential(screened) =   -1.652651
       potential(ionic) =   -4.235185

SPLIT: Orbitals with angular momentum L= 1

SPLIT: Basis orbitals for state 3p

SPLIT: PAO cut-off radius determined from an
SPLIT: energy shift=  0.002000 Ry

   izeta = 1
                 lambda =    1.000000
                     rc =    8.464845
                 energy =   -0.298236
                kinetic =    0.785360
    potential(screened) =   -1.083596
       potential(ionic) =   -3.273779

   izeta = 2
                 rmatch =    4.587816
              splitnorm =    0.280000
                 energy =   -0.131871
                kinetic =    1.403687
    potential(screened) =   -1.535557
       potential(ionic) =   -4.015310

POLgen: Perturbative polarization orbital with L=  2

POLgen: Polarization orbital for state 3p

   izeta = 1
                     rc =    8.464845
                 energy =    0.321949
                kinetic =    1.055677
    potential(screened) =   -0.733728
       potential(ionic) =   -2.672950
atom: Total number of Sankey-type orbitals: 13

atm_pop: Valence configuration (for local Pseudopot. screening):
 3s( 2.00)                                                            
 3p( 2.00)                                                            
Vna: chval, zval:    4.00000   4.00000

Vna:  Cut-off radius for the neutral-atom potential:   8.464845

atom: _________________________________________________________________________

<basis_specs>
===============================================================================
O                    Z=   8    Mass=  16.000        Charge= 0.17977+309
Lmxo=1 Lmxkb= 3    BasisType=split      Semic=F
L=0  Nsemic=0  Cnfigmx=2
          i=1  nzeta=2  polorb=0  (2s)
            splnorm:   0.28000    
               vcte:    0.0000    
               rinn:    0.0000    
               qcoe:    0.0000    
               qyuk:    0.0000    
               qwid:   0.10000E-01
                rcs:    0.0000      0.0000    
            lambdas:    1.0000      1.0000    
L=1  Nsemic=0  Cnfigmx=2
          i=1  nzeta=2  polorb=1  (2p)
            splnorm:   0.28000    
               vcte:    0.0000    
               rinn:    0.0000    
               qcoe:    0.0000    
               qyuk:    0.0000    
               qwid:   0.10000E-01
                rcs:    0.0000      0.0000    
            lambdas:    1.0000      1.0000    
-------------------------------------------------------------------------------
L=0  Nkbl=1  erefs: 0.17977+309
L=1  Nkbl=1  erefs: 0.17977+309
L=2  Nkbl=1  erefs: 0.17977+309
L=3  Nkbl=1  erefs: 0.17977+309
===============================================================================
</basis_specs>

atom: Called for O                     (Z =   8)

read_vps: Pseudopotential generation method:
read_vps: ATM4.2.7  Troullier-Martins                       
Valence charge for ps generation:    6.00000

xc_check: Exchange-correlation functional:
xc_check: GGA Perdew, Burke & Ernzerhof 1996
V l=0 = -2*Zval/r beyond r=  1.1000
V l=1 = -2*Zval/r beyond r=  1.1000
V l=2 = -2*Zval/r beyond r=  2.2154
V l=3 = -2*Zval/r beyond r=  1.1000
All V_l potentials equal beyond r=  2.2154
This should be close to max(r_c) in ps generation
All pots = -2*Zval/r beyond r=  2.2154

VLOCAL1: 99.0% of the norm of Vloc inside      8.845 Ry
VLOCAL1: 99.9% of the norm of Vloc inside     20.157 Ry
atom: Maximum radius for 4*pi*r*r*local-pseudopot. charge    2.67231
atom: Maximum radius for r*vlocal+2*Zval:    2.32897
GHOST: No ghost state for L =  0
GHOST: No ghost state for L =  1
GHOST: No ghost state for L =  2
GHOST: No ghost state for L =  3

KBgen: Kleinman-Bylander projectors: 
   l= 0   rc=  2.243238   el= -1.759686   Ekb=**********   kbcos= -0.171774
   l= 1   rc=  2.328968   el= -0.663873   Ekb=-14.506792   kbcos= -0.519897
   l= 2   rc=  2.573941   el=  0.002031   Ekb= -1.137373   kbcos= -0.019581
   l= 3   rc=  2.606321   el=  0.003153   Ekb= -1.013546   kbcos= -0.003122

KBgen: Total number of Kleinman-Bylander projectors:   16
atom: -------------------------------------------------------------------------

atom: SANKEY-TYPE ORBITALS:
atom: Selected multiple-zeta basis: split     

SPLIT: Orbitals with angular momentum L= 0

SPLIT: Basis orbitals for state 2s

SPLIT: PAO cut-off radius determined from an
SPLIT: energy shift=  0.002000 Ry

   izeta = 1
                 lambda =    1.000000
                     rc =    4.243912
                 energy =   -1.758270
                kinetic =    3.286084
    potential(screened) =   -5.044353
       potential(ionic) =  -12.921184

   izeta = 2
                 rmatch =    2.187845
              splitnorm =    0.280000
                 energy =   -0.885018
                kinetic =    8.134434
    potential(screened) =   -9.019452
       potential(ionic) =  -17.710645

SPLIT: Orbitals with angular momentum L= 1

SPLIT: Basis orbitals for state 2p

SPLIT: PAO cut-off radius determined from an
SPLIT: energy shift=  0.002000 Ry

   izeta = 1
                 lambda =    1.000000
                     rc =    5.314825
                 energy =   -0.661986
                kinetic =    4.917472
    potential(screened) =   -5.579458
       potential(ionic) =  -13.236259

   izeta = 2
                 rmatch =    2.160663
              splitnorm =    0.280000
                 energy =   -0.068760
                kinetic =    9.183374
    potential(screened) =   -9.252135
       potential(ionic) =  -18.274251

POLgen: Perturbative polarization orbital with L=  2

POLgen: Polarization orbital for state 2p

   izeta = 1
                     rc =    5.314825
                 energy =    1.970580
                kinetic =    3.886128
    potential(screened) =   -1.915547
       potential(ionic) =   -7.749584
atom: Total number of Sankey-type orbitals: 13

atm_pop: Valence configuration (for local Pseudopot. screening):
 2s( 2.00)                                                            
 2p( 4.00)                                                            
Vna: chval, zval:    6.00000   6.00000

Vna:  Cut-off radius for the neutral-atom potential:   5.314825

atom: _________________________________________________________________________

prinput: Basis input ----------------------------------------------------------

PAO.BasisType split     

%block ChemicalSpeciesLabel
    1    1 H                       # Species index, atomic number, species label
    2    7 N                       # Species index, atomic number, species label
    3   14 Si                      # Species index, atomic number, species label
    4    8 O                       # Species index, atomic number, species label
%endblock ChemicalSpeciesLabel

%block PAO.Basis                 # Define Basis set
H                     1                    # Species label, number of l-shells
 n=1   0   2 P   1                   # n, l, Nzeta, Polarization, NzetaPol
   6.518      2.141   
   1.000      1.000   
N                     2                    # Species label, number of l-shells
 n=2   0   2                         # n, l, Nzeta 
   4.730      2.532   
   1.000      1.000   
 n=2   1   2 P   1                   # n, l, Nzeta, Polarization, NzetaPol
   5.924      2.532   
   1.000      1.000   
Si                    2                    # Species label, number of l-shells
 n=3   0   2                         # n, l, Nzeta 
   6.430      3.998   
   1.000      1.000   
 n=3   1   2 P   1                   # n, l, Nzeta, Polarization, NzetaPol
   8.465      4.588   
   1.000      1.000   
O                     2                    # Species label, number of l-shells
 n=2   0   2                         # n, l, Nzeta 
   4.244      2.188   
   1.000      1.000   
 n=2   1   2 P   1                   # n, l, Nzeta, Polarization, NzetaPol
   5.315      2.161   
   1.000      1.000   
%endblock PAO.Basis

prinput: ----------------------------------------------------------------------

Dumping basis to NetCDF file H.ion.nc
Dumping basis to NetCDF file N.ion.nc
Dumping basis to NetCDF file Si.ion.nc
Dumping basis to NetCDF file O.ion.nc
coor:   Atomic-coordinates input format  =     Cartesian coordinates
coor:                                          (in Angstroms)

siesta: Atomic coordinates (Bohr) and species
siesta:      4.31792  -9.81768   0.00000  1        1
siesta:      2.59711  -8.81503   0.00000  2        2
siesta:     -0.41253 -10.38326   0.00000  3        3
siesta:     -0.33040 -13.20006   0.00000  1        4
siesta:     -3.14019  -8.66630   0.00000  2        5
siesta:     -2.06030  -5.43214   0.00000  3        6
siesta:     -2.89201  -1.33728   0.00000  3        7
siesta:     -5.94160  -0.17360   0.00000  2        8
siesta:     -6.43014   1.81127   0.00000  1        9
siesta:     -7.46581  -1.44982   0.00000  1       10
siesta:     -0.33706   0.78140   0.00000  2       11
siesta:      2.82552  -0.08957   0.00000  3       12
siesta:      4.64124   2.09244   0.00000  1       13
siesta:      4.35491  -2.99662   0.00000  2       14
siesta:      2.09241  -5.37836   0.00000  3       15
siesta:      0.51438  18.30111   0.00000  1       16
siesta:     -1.01386  16.99303   0.00000  2       17
siesta:     -4.14437  18.34063   0.00000  3       18
siesta:     -3.96132  21.19549   0.00000  1       19
siesta:     -7.40633  15.80264   0.00000  3       20
siesta:    -11.85561  15.78755   0.00000  3       21
siesta:    -12.91842  17.17553  -2.27113  1       22
siesta:    -12.42217  12.99247  -0.16286  1       23
siesta:    -12.91863  16.85493   2.43425  1       24
siesta:     -5.65004  11.88983   0.00000  3       25
siesta:     -7.44427   9.45485   0.00000  4       26
siesta:     -2.26564  11.56151   0.00000  2       27
siesta:     -1.64016   9.61064   0.00000  1       28
siesta:      0.20699  13.81888   0.00000  3       29
siesta:      3.16618  13.31386   0.00000  4       30

siesta: System type = molecule  

initatomlists: Number of atoms, orbitals, and projectors:     30   302   403

siesta: ******************** Simulation parameters ****************************
siesta:
siesta: The following are some of the parameters of the simulation.
siesta: A complete list of the parameters used, including default values,
siesta: can be found in file out.fdf
siesta:
redata: Spin configuration                          = spin-orbit
redata: Number of spin components                   = 8
redata: Time-Reversal Symmetry                      = F
redata: Spin spiral                                 = F
############################################################
This spin-orbit implementation uses a local approximation.
From 4.2 and onwards the full non-local approximation is implemented
You are strongly advised to use >=4.2 versions!
############################################################
redata: Long output                                 =   F
redata: Number of Atomic Species                    =        4
redata: Charge density info will appear in .RHO file
redata: Write Mulliken Pop.                         = NO
redata: Matel table size (NRTAB)                    =     1024
redata: Mesh Cutoff                                 =   340.0000 Ry
redata: Net charge of the system                    =     0.0000 |e|
redata: Min. number of SCF Iter                     =        1
redata: Max. number of SCF Iter                     =      200
redata: SCF mix quantity                            = Hamiltonian
redata: Mix DM or H after convergence               =   F
redata: Recompute H after scf cycle                 =   F
redata: Mix DM in first SCF step                    =   T
redata: Write Pulay info on disk                    =   F
redata: New DM Occupancy tolerance                  = 0.000000000001
redata: No kicks to SCF
redata: DM Mixing Weight for Kicks                  =     0.5000
redata: Require Harris convergence for SCF          =   F
redata: Harris energy tolerance for SCF             =     0.000100 eV
redata: Require DM convergence for SCF              =   T
redata: DM tolerance for SCF                        =     0.000008
redata: Require EDM convergence for SCF             =   F
redata: EDM tolerance for SCF                       =     0.001000 eV
redata: Require H convergence for SCF               =   T
redata: Hamiltonian tolerance for SCF               =     0.000001 eV
redata: Require (free) Energy convergence for SCF   =   F
redata: (free) Energy tolerance for SCF             =     0.000100 eV
redata: Using Saved Data (generic)                  =   F
redata: Use continuation files for DM               =   T
redata: Neglect nonoverlap interactions             =   F
redata: Method of Calculation                       = Diagonalization
redata: Electronic Temperature                      =   299.9978 K
redata: Fix the spin of the system                  =   F
redata: Dynamics option                             = Verlet MD run
redata: Initial MD time step                        =        1
redata:   Final MD time step                        =        1
redata: Length of MD time step                      =     0.5000 fs
redata: Initial Temperature of MD run               =     0.0000 K
redata: Perform a MD quench                         =   F
mix.SCF: Pulay mixing                            = Pulay
mix.SCF:    Variant                              = stable
mix.SCF:    History steps                        = 6
mix.SCF:    Linear mixing weight                 =     0.250000
mix.SCF:    Mixing weight                        =     0.250000
mix.SCF:    SVD condition                        = 0.1000E-07
mix.SCF:    Restart steps                        = 24
mix.SCF:    Restart save steps                   = 3
mix.SCF: Spin-component mixing                   all
redata: Save all siesta data in one NC              =   F
redata: ***********************************************************************

%block SCF.Mixers
  Pulay
%endblock SCF.Mixers

%block SCF.Mixer.Pulay
  # Mixing method
  method pulay
  variant stable

  # Mixing options
  weight 0.2500
  weight.linear 0.2500
  history 6
  restart 24
  restart.save 3
%endblock SCF.Mixer.Pulay

Size of DM history Fstack: 3
Total number of electrons:    98.000000
Total ionic charge:    98.000000

* ProcessorY, Blocksize:    2  24


* Orbital distribution balance (max,min):    48    24


Time-reversal symmetry not used.

siesta: k-grid: Number of k-points =     1
siesta: k-grid: Cutoff (effective) =     5.000 Ang
siesta: k-grid: Supercell and displacements
siesta: k-grid:    1   0   0      0.000
siesta: k-grid:    0   1   0      0.000
siesta: k-grid:    0   0   1      0.000

diag: Algorithm                                     = ELPA-1stage
diag: Parallel over k                               =   F
diag: Use parallel 2D distribution                  =   T
diag: Parallel block-size                           = 24
diag: Parallel distribution                         =     2 x     4
diag: Used triangular part                          = Lower
diag: Absolute tolerance                            =  0.100E-15
diag: Orthogonalization factor                      =  0.100E-05
diag: Memory factor                                 =  1.0000


ts: **************************************************************
ts: Save H and S matrices                           =    F
ts: Save DM and EDM matrices                        =    F
ts: Only save the overlap matrix S                  =    F
ts: **************************************************************

************************ Begin: TS CHECKS AND WARNINGS ************************
************************ End: TS CHECKS AND WARNINGS **************************


                     ====================================
                        Begin MD step =      1
                     ====================================

outcoor: Atomic coordinates (Ang):                          
    2.28494382   -5.19529124    0.00000000   1       1  H
    1.37433094   -4.66471070    0.00000000   2       2  N
   -0.21830245   -5.49458215    0.00000000   3       3  Si
   -0.17484108   -6.98516892    0.00000000   1       4  H
   -1.66171682   -4.58600741    0.00000000   2       5  N
   -1.09026419   -2.87456374    0.00000000   3       6  Si
   -1.53038332   -0.70765692    0.00000000   3       7  Si
   -3.14415959   -0.09186471    0.00000000   2       8  N
   -3.40268075    0.95848335    0.00000000   1       9  H
   -3.95073599   -0.76720972    0.00000000   1      10  H
   -0.17836637    0.41349951    0.00000000   2      11  N
    1.49520211   -0.04739960    0.00000000   3      12  Si
    2.45603905    1.10727302    0.00000000   1      13  H
    2.30451743   -1.58574382    0.00000000   2      14  N
    1.10725559   -2.84610319    0.00000000   3      15  Si
    0.27219725    9.68452793    0.00000000   1      16  H
   -0.53651343    8.99232205    0.00000000   2      17  N
   -2.19310327    9.70544215    0.00000000   3      18  Si
   -2.09623810   11.21616736    0.00000000   1      19  H
   -3.91925962    8.36239402    0.00000000   3      20  Si
   -6.27371387    8.35440709    0.00000000   3      21  Si
   -6.83613199    9.08889674   -1.20183078   1      22  H
   -6.57352762    6.87531596   -0.08618332   1      23  H
   -6.83624445    8.91923955    1.28814761   1      24  H
   -2.98986898    6.29182279    0.00000000   3      25  Si
   -3.93933734    5.00328666    0.00000000   4      26  O
   -1.19892411    6.11808732    0.00000000   2      27  N
   -0.86793275    5.08573034    0.00000000   1      28  H
    0.10953411    7.31263374    0.00000000   3      29  Si
    1.67547104    7.04538689    0.00000000   4      30  O

outcell: Unit cell vectors (Ang):
       30.000000    0.000000    0.000000
        0.000000   45.000000    0.000000
        0.000000    0.000000   10.000000

outcell: Cell vector modules (Ang)   :   30.000000   45.000000   10.000000
outcell: Cell angles (23,13,12) (deg):     90.0000     90.0000     90.0000
outcell: Cell volume (Ang**3)        :  13500.0000
<dSpData1D:S at geom step 1
  <sparsity:sparsity for geom step 1
    nrows_g=302 nrows=48 sparsity=.0787 nnzs=7174, refcount: 8>
  <dData1D:(new from dSpData1D) n=7174, refcount: 1>
refcount: 1>
new_DM -- step:     1
Initializing Density Matrix...

Attempting to read DM from file... Failed...
DM filled with atomic data:
<dSpData2D:DM initialized from atoms
  <sparsity:sparsity for geom step 1
    nrows_g=302 nrows=48 sparsity=.0787 nnzs=7174, refcount: 9>
  <dData2D:DM n=7174 m=8, refcount: 1>
refcount: 1>
     spin moment: S , {S} =   56.00000   0.00000   0.00000  56.00000
No. of atoms with KB's overlaping orbs in proc 0. Max # of overlaps:      27     134

Initializing spin-orbit part of the Hamiltonian
  Adding spin-orbit effects for H 
  Adding spin-orbit effects for N 
  Adding spin-orbit effects for Si
  Adding spin-orbit effects for O 


New grid distribution:   1
           1       1:  180    1:  125    1:   15
           2       1:  180    1:  125   16:   30
           3       1:  180    1:  125   31:   45
           4       1:  180    1:  125   46:   60
           5       1:  180  126:  250    1:   15
           6       1:  180  126:  250   16:   30
           7       1:  180  126:  250   31:   45
           8       1:  180  126:  250   46:   60

InitMesh: MESH =   360 x   500 x   120 =    21600000
InitMesh: (bp) =   180 x   250 x    60 =     2700000
InitMesh: Mesh cutoff (required, used) =   340.000   341.206 Ry
ExtMesh (bp) on 0 =   288 x   225 x   123 =     7970400
New grid distribution:   2
           1       1:  159    1:   38    1:   60
           2       1:  151  233:  250    1:   60
           3       1:  159   39:   55    1:   60
           4     160:  180   38:   55    1:   60
           5       1:  151   56:  232    1:   60
           6     152:  180   56:  231    1:   60
           7     160:  180    1:   37    1:   60
           8     152:  180  232:  250    1:   60
New grid distribution:   3
           1     147:  180   57:  217    1:   60
           2       1:  142    1:   34    1:   60
           3       1:  142   35:   56    1:   60
           4     143:  180   32:   56    1:   60
           5       1:  146   57:  220    1:   60
           6       1:  146  221:  250    1:   60
           7     143:  180    1:   31    1:   60
           8     147:  180  218:  250    1:   60
Setting up quadratic distribution...
ExtMesh (bp) on 0 =   267 x   138 x   168 =     6190128
PhiOnMesh: Number of (b)points on node 0 =               362520
PhiOnMesh: nlist on node 0 =              1773512

stepf: Fermi-Dirac step function

siesta: Program's energy decomposition (eV):
siesta: Ebs     =      -618.720957
siesta: Eions   =      3553.971015
siesta: Ena     =       374.984406
siesta: Ekin    =      3171.509877
siesta: Enl     =     -2984.884396
siesta: Eso     =        -0.003878
siesta: Edftu   =         0.000000
siesta: DEna    =       129.776070
siesta: DUscf   =        75.643831
siesta: DUext   =         0.000000
siesta: Exc     =     -1168.693589
siesta: eta*DQ  =         0.000000
siesta: Emadel  =         0.000000
siesta: Emeta   =         0.000000
siesta: Emolmec =         0.000000
siesta: Ekinion =         0.000000
siesta: Eharris =     -3884.641031
siesta: Etot    =     -3955.638694
siesta: FreeEng =     -3955.642005

        iscf     Eharris(eV)        E_KS(eV)     FreeEng(eV)     dDmax    Ef(eV) dHmax(eV)
   scf:    1    -3884.641031    -3955.638694    -3955.642005  0.970488 -4.935222 21.600933
     spin moment: S , {S} =    2.02351  -0.00000  -0.00000   2.02351
timer: Routine,Calls,Time,% = IterSCF        1      10.838  32.88
   scf:    2    -3996.084705    -3988.724102    -3988.724108  0.465796 -4.236815 11.261879
     spin moment: S , {S} =    2.00009   0.00000  -0.00000   2.00009
   scf:    3    -3957.156806    -3985.255937    -3985.290534  0.423879 -4.159367 12.467323
     spin moment: S , {S} =    1.98359  -0.00000  -0.00000   1.98359
   scf:    4    -4002.435421    -3997.250448    -3997.250449  0.249462 -3.855355  7.742336
     spin moment: S , {S} =    0.00011  -0.00000   0.00000   0.00011
   scf:    5    -3998.663031    -3998.025592    -3998.025592  0.036748 -3.730586  5.211310
     spin moment: S , {S} =    0.00006  -0.00000   0.00000   0.00006
   scf:    6    -3998.864927    -3998.442950    -3998.442950  0.028350 -3.703046  2.510369
     spin moment: S , {S} =    0.00003  -0.00000   0.00000   0.00003
   scf:    7    -3998.827543    -3998.630015    -3998.630015  0.022541 -3.765270  0.814608
     spin moment: S , {S} =    0.00001  -0.00000   0.00000   0.00001
   scf:    8    -3998.753234    -3998.689809    -3998.689809  0.011872 -3.802564  0.512508
     spin moment: S , {S} =    0.00000  -0.00000   0.00000   0.00000
   scf:    9    -3998.739753    -3998.713714    -3998.713714  0.007131 -3.819244  0.400318
     spin moment: S , {S} =    0.00000  -0.00000   0.00000   0.00000
   scf:   10    -3998.774908    -3998.734832    -3998.734833  0.023872 -3.851264  0.219321
     spin moment: S , {S} =    0.00000  -0.00000  -0.00000  -0.00000
   scf:   11    -3998.739583    -3998.737347    -3998.737349  0.004208 -3.837063  0.076954
     spin moment: S , {S} =    0.00000  -0.00000  -0.00000  -0.00000
   scf:   12    -3998.738381    -3998.737891    -3998.737893  0.001252 -3.833782  0.043898
     spin moment: S , {S} =    0.00000  -0.00000  -0.00000   0.00000
   scf:   13    -3998.738644    -3998.738264    -3998.738266  0.000930 -3.831430  0.023685
     spin moment: S , {S} =    0.00000  -0.00000  -0.00000   0.00000
   scf:   14    -3998.738579    -3998.738416    -3998.738418  0.000649 -3.830438  0.014847
     spin moment: S , {S} =    0.00000   0.00000  -0.00000   0.00000
   scf:   15    -3998.738586    -3998.738496    -3998.738498  0.000712 -3.830021  0.008368
     spin moment: S , {S} =    0.00000   0.00000  -0.00000   0.00000
   scf:   16    -3998.738563    -3998.738527    -3998.738529  0.000549 -3.829953  0.003527
     spin moment: S , {S} =    0.00000   0.00000  -0.00000   0.00000
   scf:   17    -3998.738539    -3998.738532    -3998.738534  0.000233 -3.830108  0.003143
     spin moment: S , {S} =    0.00000   0.00000  -0.00000   0.00000
   scf:   18    -3998.738540    -3998.738536    -3998.738538  0.000232 -3.830215  0.001730
     spin moment: S , {S} =    0.00000   0.00000   0.00000   0.00000
   scf:   19    -3998.738538    -3998.738537    -3998.738539  0.000137 -3.830246  0.001250
     spin moment: S , {S} =    0.00000   0.00000   0.00000   0.00000
   scf:   20    -3998.738537    -3998.738537    -3998.738539  0.000065 -3.830263  0.000877
     spin moment: S , {S} =    0.00000   0.00000   0.00000   0.00000
   scf:   21    -3998.738537    -3998.738537    -3998.738539  0.000065 -3.830267  0.000610
     spin moment: S , {S} =    0.00000   0.00000   0.00000   0.00000
   scf:   22    -3998.738538    -3998.738537    -3998.738539  0.000079 -3.830276  0.000253
     spin moment: S , {S} =    0.00000   0.00000   0.00000  -0.00000
   scf:   23    -3998.738537    -3998.738537    -3998.738539  0.000036 -3.830277  0.000138
     spin moment: S , {S} =    0.00000   0.00000   0.00000  -0.00000
   scf:   24    -3998.738537    -3998.738537    -3998.738539  0.000021 -3.830276  0.000064
     spin moment: S , {S} =    0.00000   0.00000   0.00000  -0.00000
mix: Pulay -- resetting history
   scf:   25    -3998.738537    -3998.738537    -3998.738539  0.000011 -3.830273  0.000037
     spin moment: S , {S} =    0.00000   0.00000   0.00000  -0.00000
   scf:   26    -3998.738537    -3998.738537    -3998.738539  0.000003 -3.830272  0.000027
     spin moment: S , {S} =    0.00000   0.00000   0.00000  -0.00000
   scf:   27    -3998.738537    -3998.738537    -3998.738539  0.000002 -3.830271  0.000014
     spin moment: S , {S} =    0.00000  -0.00000   0.00000  -0.00000
   scf:   28    -3998.738537    -3998.738537    -3998.738539  0.000002 -3.830271  0.000005
     spin moment: S , {S} =    0.00000  -0.00000   0.00000   0.00000
   scf:   29    -3998.738537    -3998.738537    -3998.738539  0.000000 -3.830272  0.000004
     spin moment: S , {S} =    0.00000  -0.00000   0.00000   0.00000
   scf:   30    -3998.738537    -3998.738537    -3998.738539  0.000000 -3.830271  0.000002
     spin moment: S , {S} =    0.00000  -0.00000   0.00000   0.00000
   scf:   31    -3998.738537    -3998.738537    -3998.738539  0.000000 -3.830271  0.000001
     spin moment: S , {S} =    0.00000  -0.00000   0.00000   0.00000
   scf:   32    -3998.738537    -3998.738537    -3998.738539  0.000000 -3.830272  0.000001
     spin moment: S , {S} =    0.00000  -0.00000   0.00000   0.00000

SCF Convergence by DM+H criterion
max |DM_out - DM_in|         :     0.0000000936
max |H_out - H_in|      (eV) :     0.0000007180
SCF cycle converged after 32 iterations

Using DM_out to compute the final energy and forces
No. of atoms with KB's overlaping orbs in proc 0. Max # of overlaps:      27     134

siesta: E_KS(eV) =            -3998.7385

siesta: E_KS - E_eggbox =     -3998.7385
     spin moment: S , {S} =    0.00000  -0.00000   0.00000   0.00000

siesta: Atomic forces (eV/Ang):
     1    0.142915   -0.028050   -0.000000
     2   -0.032947    0.042368    0.000000
     3   -0.030180   -0.017470   -0.000000
     4    0.068445   -0.134448    0.000000
     5    0.053426    0.006192   -0.000000
     6   -0.182691    0.017587    0.000000
     7    1.011853   -0.029928   -0.000001
     8   -0.622519    1.400505    0.000001
     9    0.156075   -0.968887   -0.000003
    10   -0.108461    0.133891    0.000001
    11   -0.174601   -0.352451    0.000001
    12   -0.272945    0.040634   -0.000000
    13   -0.122972   -0.049342    0.000000
    14    0.031594   -0.109842   -0.000000
    15    0.103808    0.091125    0.000000
    16   -0.109927   -0.035172   -0.000950
    17    0.031596   -0.076555   -0.000788
    18   -0.136194    0.036833    0.005212
    19    0.089243   -0.077784   -0.001433
    20    0.116100    0.073936   -0.001106
    21    0.059125   -0.021824   -0.006983
    22    0.071044    0.003689    0.141351
    23    0.002998    0.023484   -0.011799
    24    0.064877    0.026353   -0.104174
    25   -0.610572   -0.399958    0.001043
    26    3.348093    1.835341    0.000510
    27    0.334147   -0.435172   -0.000554
    28   -0.151264    0.706089   -0.000074
    29    0.146311    0.160575   -0.000219
    30   -1.960227   -2.961305    0.000253
----------------------------------------
   Tot    1.316151   -1.099585    0.020287
----------------------------------------
   Max    3.348093
   Res    0.609578    sqrt( Sum f_i^2 / 3N )
----------------------------------------
   Max    3.348093    constrained

Stress tensor Voigt[x,y,z,yz,xz,xy] (kbar):        0.11        0.36       -0.01       -0.01        0.00        0.12
(Free)E + p*V (eV/cell)    -4000.0409
Target enthalpy (eV/cell)    -3998.7385

siesta: Stress tensor (static) (eV/Ang**3):
         0.000068    0.000073    0.000000
         0.000073    0.000226   -0.000004
         0.000000   -0.000004   -0.000005

siesta: Pressure (static):         -0.15456159  kBar

siesta: Stress tensor (total) (eV/Ang**3):
         0.000068    0.000073    0.000000
         0.000073    0.000226   -0.000004
         0.000000   -0.000004   -0.000005

siesta: Pressure (total):         -0.15456159  kBar

siesta: Temp_ion =       0.000 K

siesta: Eigenvalues (eV):
ik =     1
  -22.8315  -22.8315  -22.3453  -22.3453  -21.7135  -21.7135  -21.2605  -21.2605  -20.9906  -20.9906
  -20.8699  -20.8699  -19.3714  -19.3714  -19.2038  -19.2038  -18.5864  -18.5864  -15.0164  -15.0164
  -14.1044  -14.1044  -13.6144  -13.6144  -13.5522  -13.5522  -13.0643  -13.0643  -12.8576  -12.8576
  -12.4934  -12.4934  -12.0948  -12.0948  -11.8972  -11.8972  -11.5714  -11.5714  -11.4694  -11.4694
  -10.9413  -10.9413  -10.6042  -10.6042  -10.1718  -10.1718   -9.5441   -9.5441   -9.3236   -9.3236
   -9.1250   -9.1250   -9.0960   -9.0960   -9.0058   -9.0058   -8.7650   -8.7650   -8.5830   -8.5830
   -8.3814   -8.3814   -8.2098   -8.2098   -8.1019   -8.1019   -7.9914   -7.9914   -7.8860   -7.8860
   -7.7267   -7.7267   -7.3557   -7.3557   -7.2747   -7.2747   -7.2535   -7.2535   -6.8230   -6.8230
   -6.8008   -6.8008   -6.7135   -6.7135   -6.3734   -6.3734   -6.2878   -6.2878   -6.1453   -6.1453
   -5.7757   -5.7757   -5.6967   -5.6967   -5.5192   -5.5192   -4.1809   -4.1809   -3.4796   -3.4796
   -2.6915   -2.6915   -2.1934   -2.1934   -2.1398   -2.1398   -2.1088   -2.1088   -1.9803   -1.9803
   -1.9136   -1.9136   -1.6835   -1.6835   -1.6163   -1.6163   -1.5556   -1.5556   -1.3703   -1.3703
   -1.1400   -1.1400   -0.5291   -0.5291   -0.2793   -0.2793   -0.1800   -0.1800   -0.1694   -0.1694
   -0.0147   -0.0147    0.0557    0.0557    0.2584    0.2584    0.5386    0.5386    0.6081    0.6081
    0.6776    0.6776    0.7595    0.7595    1.2081    1.2081    1.3088    1.3088    1.3660    1.3660
    1.4542    1.4542    1.5769    1.5769    1.9503    1.9503    1.9885    1.9885    2.2186    2.2186
    2.4729    2.4729    2.7054    2.7054    2.8150    2.8150    2.8828    2.8828    2.8914    2.8914
    3.1042    3.1042    3.1112    3.1112    3.2485    3.2485    3.2602    3.2602    3.3314    3.3314
    3.7150    3.7150    3.9226    3.9226    4.2166    4.2166    4.2541    4.2541    4.2702    4.2702
    4.3911    4.3911    4.7297    4.7297    4.7578    4.7578    4.8160    4.8160    5.0808    5.0808
    5.1124    5.1124    5.2551    5.2551    5.5616    5.5616    5.7198    5.7198    5.7980    5.7980
    5.9296    5.9296    6.0707    6.0707    6.2009    6.2009    6.2410    6.2410    6.3573    6.3573
    6.6040    6.6040    6.6923    6.6923    6.8276    6.8276    7.0599    7.0599    7.2539    7.2539
    7.2908    7.2908    7.5235    7.5235    7.6852    7.6852    7.8585    7.8585    7.9714    7.9714
    8.0517    8.0517    8.1913    8.1913    8.4152    8.4152    8.4236    8.4236    8.7011    8.7011
    8.9611    8.9611    8.9954    8.9954    9.0727    9.0727    9.3303    9.3303    9.6170    9.6170
    9.7061    9.7061    9.8089    9.8089    9.8913    9.8913    9.9516    9.9516    9.9734    9.9734
   10.1761   10.1761   10.4740   10.4740   10.7036   10.7036   10.9511   10.9511   11.0463   11.0463
   11.3017   11.3017   11.4664   11.4664   11.6300   11.6300   11.7248   11.7248   11.7672   11.7672
   11.9425   11.9425   12.3557   12.3557   12.3795   12.3795   12.4321   12.4321   12.6268   12.6268
   12.9535   12.9535   12.9791   12.9791   13.0632   13.0632   13.3319   13.3319   13.3630   13.3630
   13.5436   13.5436   13.7832   13.7832   14.5096   14.5096   14.6580   14.6580   14.8134   14.8134
   14.8581   14.8581   14.9833   14.9833   15.1488   15.1488   16.1078   16.1078   16.5554   16.5554
   16.8348   16.8348   16.9530   16.9530   17.0276   17.0276   17.1750   17.1750   17.5138   17.5138
   18.2559   18.2559   18.2820   18.2820   18.6135   18.6135   18.7653   18.7653   18.8834   18.8834
   18.9305   18.9305   19.5429   19.5429   19.9312   19.9312   20.0280   20.0280   20.2509   20.2509
   20.7637   20.7637   21.0894   21.0894   21.2413   21.2413   21.6949   21.6949   22.2866   22.2866
   22.3436   22.3436   22.8905   22.8905   23.0363   23.0363   23.2344   23.2344   23.8321   23.8321
   24.5880   24.5880   24.8298   24.8298   24.8972   24.8972   25.8474   25.8474   25.9311   25.9311
   26.1703   26.1703   26.5665   26.5665   26.6480   26.6480   27.7513   27.7513   28.0371   28.0371
   28.5385   28.5385   28.5772   28.5772   29.4638   29.4638   29.5803   29.5803   30.5089   30.5089
   30.8372   30.8372   30.8911   30.8911   31.0271   31.0271   31.4314   31.4314   31.7187   31.7187
   31.7943   31.7943   32.1165   32.1165   32.1959   32.1959   33.4128   33.4128   33.4624   33.4624
   33.7676   33.7676   34.0991   34.0991   34.4710   34.4710   34.8760   34.8760   34.9762   34.9762
   35.6995   35.6995   36.0212   36.0212   36.2122   36.2122   37.2294   37.2294   37.4851   37.4851
   37.6645   37.6645   38.0058   38.0058   38.2282   38.2282   38.4698   38.4698   38.5035   38.5035
   39.1510   39.1510   40.3086   40.3086   40.4124   40.4124   40.7455   40.7455   41.4366   41.4366
   41.7356   41.7356   41.9251   41.9251   42.0750   42.0750   43.3658   43.3658   43.5366   43.5366
   43.9686   43.9686   44.5191   44.5191   44.8391   44.8391   45.1757   45.1757   45.2312   45.2312
   45.6809   45.6809   45.7536   45.7536   46.2433   46.2433   46.6596   46.6596   47.0914   47.0914
   47.1397   47.1397   47.5771   47.5771   48.6820   48.6820   48.8685   48.8685   49.3780   49.3780
   49.8370   49.8370   50.2324   50.2324   50.3465   50.3465   50.3699   50.3699   50.5422   50.5422
   51.7602   51.7602   52.7489   52.7489   52.8215   52.8215   54.0270   54.0270   54.4614   54.4614
   54.8242   54.8242   54.9678   54.9678   55.9683   55.9683   56.3156   56.3156   56.3542   56.3542
   57.0673   57.0673   57.9069   57.9069   58.0261   58.0261   58.6340   58.6340   59.7524   59.7524
   60.3453   60.3453   61.3077   61.3077   61.7924   61.7924   62.8900   62.8900   63.4471   63.4471
   65.3489   65.3489   65.4934   65.4934   67.1084   67.1084   67.3786   67.3786   68.4600   68.4600
   68.5487   68.5487   70.6277   70.6277   72.0591   72.0591   76.7900   76.7900   88.6974   88.6974
   92.0241   92.0241   93.1325   93.1325   95.1532   95.1532   96.6104   96.6104  100.2368  100.2368
  100.9640  100.9640  102.6464  102.6464  114.4757  114.4757  118.4602  118.4602  123.3480  123.3480
  132.5597  132.5597  138.9348  138.9348
siesta: Fermi energy =      -3.830272 eV

siesta: Program's energy decomposition (eV):
siesta: Ebs     =     -1109.131328
siesta: Eions   =      3553.971015
siesta: Ena     =       374.984406
siesta: Ekin    =      2742.966777
siesta: Enl     =     -2522.683424
siesta: Eso     =        -0.004663
siesta: Edftu   =         0.000000
siesta: DEna    =        36.886216
siesta: DUscf   =        13.881715
siesta: DUext   =         0.000000
siesta: Exc     =     -1090.798549
siesta: eta*DQ  =         0.000000
siesta: Emadel  =         0.000000
siesta: Emeta   =         0.000000
siesta: Emolmec =         0.000000
siesta: Ekinion =         0.000000
siesta: Eharris =     -3998.738537
siesta: Etot    =     -3998.738537
siesta: FreeEng =     -3998.738539

siesta: Final energy (eV):
siesta:  Band Struct. =   -1109.131328
siesta:       Kinetic =    2742.966777
siesta:       Hartree =   12947.456967
siesta:       Edftu   =       0.000000
siesta:       Eso     =      -0.004663
siesta:    Ext. field =       0.000000
siesta:   Exch.-corr. =   -1090.798549
siesta:  Ion-electron =  -28331.361349
siesta:       Ion-ion =    9733.002280
siesta:       Ekinion =       0.000000
siesta:         Total =   -3998.738537
siesta:         Fermi =      -3.830272

siesta: Atomic forces (eV/Ang):
siesta:      1    0.142915   -0.028050   -0.000000
siesta:      2   -0.032947    0.042368    0.000000
siesta:      3   -0.030180   -0.017470   -0.000000
siesta:      4    0.068445   -0.134448    0.000000
siesta:      5    0.053426    0.006192   -0.000000
siesta:      6   -0.182691    0.017587    0.000000
siesta:      7    1.011853   -0.029928   -0.000001
siesta:      8   -0.622519    1.400505    0.000001
siesta:      9    0.156075   -0.968887   -0.000003
siesta:     10   -0.108461    0.133891    0.000001
siesta:     11   -0.174601   -0.352451    0.000001
siesta:     12   -0.272945    0.040634   -0.000000
siesta:     13   -0.122972   -0.049342    0.000000
siesta:     14    0.031594   -0.109842   -0.000000
siesta:     15    0.103808    0.091125    0.000000
siesta:     16   -0.109927   -0.035172   -0.000950
siesta:     17    0.031596   -0.076555   -0.000788
siesta:     18   -0.136194    0.036833    0.005212
siesta:     19    0.089243   -0.077784   -0.001433
siesta:     20    0.116100    0.073936   -0.001106
siesta:     21    0.059125   -0.021824   -0.006983
siesta:     22    0.071044    0.003689    0.141351
siesta:     23    0.002998    0.023484   -0.011799
siesta:     24    0.064877    0.026353   -0.104174
siesta:     25   -0.610572   -0.399958    0.001043
siesta:     26    3.348093    1.835341    0.000510
siesta:     27    0.334147   -0.435172   -0.000554
siesta:     28   -0.151264    0.706089   -0.000074
siesta:     29    0.146311    0.160575   -0.000219
siesta:     30   -1.960227   -2.961305    0.000253
siesta: ----------------------------------------
siesta:    Tot    1.316151   -1.099585    0.020287

siesta: Stress tensor (static) (eV/Ang**3):
siesta:     0.000068    0.000073    0.000000
siesta:     0.000073    0.000226   -0.000004
siesta:     0.000000   -0.000004   -0.000005

siesta: Cell volume =      13500.000000 Ang**3

siesta: Pressure (static):
siesta:                Solid            Molecule  Units
siesta:          -0.00000105          0.00000564  Ry/Bohr**3
siesta:          -0.00009647          0.00051741  eV/Ang**3
siesta:          -0.15456159          0.82899679  kBar
(Free)E+ p_basis*V_orbitals  =       -3977.610454
(Free)Eharris+ p_basis*V_orbitals  =       -3977.610454
     spin moment: S , {S} =    0.00000  -0.00000   0.00000   0.00000

siesta: Electric dipole (a.u.)  =   -1.163453    1.594423   -0.001818
siesta: Electric dipole (Debye) =   -2.957204    4.052621   -0.004621

cite: Please see "AT.bib" for an exhaustive BiBTeX file.
cite: Please clearly indicate Siesta version in published work: v4.1.5-1-g384057250
cite: This calculation has made use of the following articles
cite: which are encouraged to be cited in a published work.
        Primary SIESTA paper
          DOI: www.doi.org/10.1088/0953-8984/14/11/302
        Spin-orbit coupling (on-site approximation)
          DOI: www.doi.org/10.1088/0953-8984/19/19/489001


WARNING: alloc-realloc-dealloc name mismatch
         Name: atomlist isa
         Size:              -120. Bytes
         Node:     0
         Subsequent mismatches will not be reported
>> End of run:   1-FEB-2024  19:20:06
Job completed
