Siesta Version  : v4.1.5-1-g384057250
Architecture    : gcc
Compiler version: GNU Fortran (Debian 10.2.1-6) 10.2.1 20210110
Compiler flags  : mpifort -O2 -fPIC -ftree-vectorize -fallow-argument-mismatch
PP flags        : -DFC_HAVE_ABORT -DMPI -DSIESTA__FLOOK -DSIESTA__METIS -DSIESTA__MUMPS -DCDF -DNCDF -DNCDF_4 -DNCDF_PARALLEL -DSIESTA__MRRR -DSIESTA__ELPA
Libraries       : libncdf.a libfdict.a  -lflookall -ldl -lnetcdff -lnetcdf -lhdf5_hl -lhdf5 -lhdf5_fortran -lz -lscalapack-openmpi -lopenblas -lmetis -lzmumps -lcmumps -ldmumps -lmumps_common -lpord -lsmumps -lesmumps -lscotch -lscotcherr -fopenmp -lelpa
PARALLEL version
NetCDF support
NetCDF-4 support
NetCDF-4 MPI-IO support
METIS ordering support
Lua support

* Running on 6 nodes in parallel
>> Start of run:  16-OCT-2023  18:38:54

                           ***********************       
                           *  WELCOME TO SIESTA  *       
                           ***********************       

reinit: Reading from standard input
reinit: Dumped input in INPUT_TMP.89838
************************** Dump of input data file ****************************
# mpirun -np 4 siesta-4.1.5 < GC.fdf > GC.out &
SystemLabel      GC
NumberOfAtoms    29
NumberOfSpecies  4
%block ChemicalSpeciesLabel
    1    1  H
    2    7  N
    3   14  Si
    4    8  O
%endblock ChemicalSpeciesLabel
############################################
# This overrides Defaults.fdf configuration
############################################
MD.TypeOfRun                CG # CG, Verlet
MD.Steps                    0
MaxSCFIterations            600
AtomicCoordinatesFormat NotScaledCartesianAng
%block AtomicCoordinatesAndAtomicSpecies
    0.10214115516306321 4.9849748851816145 0.0  1  1  H
    -0.6043455748369367 4.194938705181615 0.0  2  2  N
    -2.334632484836937 4.636302615181615 0.0  3  3  Si
    -2.4904121648369366 6.126294875181615 0.0  1  4  H
    -3.857954104836937 3.0773950951816147 0.0  3  5  Si
    -5.341141734836937 3.320225455181615 0.0  1  6  H
    -2.659563244836937 1.1641189351816146 0.0  3  7  Si
    -3.4255887048369367 -0.36859780481838555 0.0  2  8  N
    -2.835342154836937 -1.3258108348183855 0.0  1  9  H
    -4.477211024836937 -0.44905803481838547 0.0  1  10  H
    -0.9433631848369367 1.2192932451816145 0.0  2  11  N
    0.13165943516306322 2.5496320851816145 0.0  3  12  Si
    1.7403327551630632 2.5308218251816146 0.0  4  13  O
    5.6164483 -7.44953905 0.0  1  14  H
    4.58206954 -7.2320376 0.0  2  15  N
    3.29666389 -8.492636 0.0  3  16  Si
    3.80117524 -9.90371886 -0.0  1  17  H
    1.65934232 -8.01362137 0.0  2  18  N
    1.68097912 -6.20463398 -0.0  3  19  Si
    0.54543521 -4.28636135 0.0  3  20  Si
    -1.03431493 -3.94450034 0.0  4  21  O
    1.73226934 -2.87719605 0.0  2  22  N
    1.20957366 -1.92961761 -0.0  1  23  H
    3.50853448 -2.77677601 0.0  3  24  Si
    4.13684451 -1.17938608 0.0  2  25  N
    3.54296161 -0.26248101 0.0  1  26  H
    5.18364407 -1.05231197 -0.0  1  27  H
    4.63288658 -4.07521596 -0.0  2  28  N
    3.79410501 -5.58634043 0.0  3  29  Si
%endblock AtomicCoordinatesAndAtomicSpecies
%include ../../../../Defaults.fdf
************************** End of input data file *****************************

reinit: -----------------------------------------------------------------------
reinit: System Name: 
reinit: -----------------------------------------------------------------------
reinit: System Label: GC
reinit: -----------------------------------------------------------------------

initatom: Reading input for the pseudopotentials and atomic orbitals ----------
Species number:   1 Atomic number:    1 Label: H
Species number:   2 Atomic number:    7 Label: N
Species number:   3 Atomic number:   14 Label: Si
Species number:   4 Atomic number:    8 Label: O

Ground state valence configuration:   1s01
Reading pseudopotential information in formatted form from H.psf

Pseudopotential generated from a relativistic atomic calculation

Valence configuration for pseudopotential generation:
1s( 1.00) rc: 0.01
2p( 0.00) rc: 0.60
3d( 0.00) rc: 1.99
4f( 0.00) rc: 2.49
Ground state valence configuration:   2s02  2p03
Reading pseudopotential information in formatted form from N.psf

Pseudopotential generated from a relativistic atomic calculation

Valence configuration for pseudopotential generation:
2s( 2.00) rc: 0.94
2p( 3.00) rc: 0.59
3d( 0.00) rc: 3.46
4f( 0.00) rc: 2.47
Ground state valence configuration:   3s02  3p02
Reading pseudopotential information in formatted form from Si.psf

Pseudopotential generated from a relativistic atomic calculation

Valence configuration for pseudopotential generation:
3s( 2.00) rc: 1.67
3p( 2.00) rc: 2.04
3d( 0.00) rc: 2.89
4f( 0.00) rc: 2.49
Ground state valence configuration:   2s02  2p04
Reading pseudopotential information in formatted form from O.psf

Pseudopotential generated from a relativistic atomic calculation

Valence configuration for pseudopotential generation:
2s( 2.00) rc: 0.45
2p( 4.00) rc: 0.92
3d( 0.00) rc: 2.24
4f( 0.00) rc: 0.25
For H, standard SIESTA heuristics set lmxkb to 2
 (one more than the basis l, including polarization orbitals).
Use PS.lmax or PS.KBprojectors blocks to override.
For N, standard SIESTA heuristics set lmxkb to 3
 (one more than the basis l, including polarization orbitals).
Use PS.lmax or PS.KBprojectors blocks to override.
For Si, standard SIESTA heuristics set lmxkb to 3
 (one more than the basis l, including polarization orbitals).
Use PS.lmax or PS.KBprojectors blocks to override.
For O, standard SIESTA heuristics set lmxkb to 3
 (one more than the basis l, including polarization orbitals).
Use PS.lmax or PS.KBprojectors blocks to override.

<basis_specs>
===============================================================================
H                    Z=   1    Mass=  1.0100        Charge= 0.17977+309
Lmxo=0 Lmxkb= 2    BasisType=split      Semic=F
L=0  Nsemic=0  Cnfigmx=1
          i=1  nzeta=2  polorb=1  (1s)
            splnorm:   0.62000    
               vcte:    0.0000    
               rinn:    0.0000    
               qcoe:    0.0000    
               qyuk:    0.0000    
               qwid:   0.10000E-01
                rcs:    0.0000      0.0000    
            lambdas:    1.0000      1.0000    
-------------------------------------------------------------------------------
L=0  Nkbl=1  erefs: 0.17977+309
L=1  Nkbl=1  erefs: 0.17977+309
L=2  Nkbl=1  erefs: 0.17977+309
===============================================================================
</basis_specs>

atom: Called for H                     (Z =   1)

read_vps: Pseudopotential generation method:
read_vps: ATM4.2.7  Troullier-Martins                       
Valence charge for ps generation:    1.00000

xc_check: Exchange-correlation functional:
xc_check: GGA Perdew, Burke & Ernzerhof 1996
V l=0 = -2*Zval/r beyond r=  0.0098
V l=1 = -2*Zval/r beyond r=  0.5817
V l=2 = -2*Zval/r beyond r=  1.9372
All V_l potentials equal beyond r=  1.9372
This should be close to max(r_c) in ps generation
All pots = -2*Zval/r beyond r=  1.9372

VLOCAL1: 99.0% of the norm of Vloc inside     11.567 Ry
VLOCAL1: 99.9% of the norm of Vloc inside     26.362 Ry
atom: Maximum radius for 4*pi*r*r*local-pseudopot. charge    2.25106
atom: Maximum radius for r*vlocal+2*Zval:    1.91306
GHOST: No ghost state for L =  0
GHOST: No ghost state for L =  1
GHOST: No ghost state for L =  2

KBgen: Kleinman-Bylander projectors: 
   l= 0   rc=  2.036604   el= -0.477180   Ekb= -6.081590   kbcos= -0.277285
   l= 1   rc=  2.195416   el=  0.001076   Ekb= -0.926943   kbcos= -0.034643
   l= 2   rc=  2.251056   el=  0.002010   Ekb= -0.130941   kbcos= -0.009788

KBgen: Total number of Kleinman-Bylander projectors:    9
atom: -------------------------------------------------------------------------

atom: SANKEY-TYPE ORBITALS:
atom: Selected multiple-zeta basis: split     

SPLIT: Orbitals with angular momentum L= 0

SPLIT: Basis orbitals for state 1s

SPLIT: PAO cut-off radius determined from an
SPLIT: energy shift=  0.002000 Ry

   izeta = 1
                 lambda =    1.000000
                     rc =    6.518340
                 energy =   -0.475305
                kinetic =    0.912139
    potential(screened) =   -1.387444
       potential(ionic) =   -1.907295

   izeta = 2
                 rmatch =    2.141150
              splitnorm =    0.620000
                 energy =    0.566467
                kinetic =    3.772856
    potential(screened) =   -3.206389
       potential(ionic) =   -3.759093

POLgen: Perturbative polarization orbital with L=  1

POLgen: Polarization orbital for state 1s

   izeta = 1
                     rc =    6.518340
                 energy =    0.533861
                kinetic =    1.121086
    potential(screened) =   -0.587225
       potential(ionic) =   -1.053027
atom: Total number of Sankey-type orbitals:  5

atm_pop: Valence configuration (for local Pseudopot. screening):
 1s( 1.00)                                                            
Vna: chval, zval:    1.00000   1.00000

Vna:  Cut-off radius for the neutral-atom potential:   6.518340

atom: _________________________________________________________________________

<basis_specs>
===============================================================================
N                    Z=   7    Mass=  14.010        Charge= 0.17977+309
Lmxo=1 Lmxkb= 3    BasisType=split      Semic=F
L=0  Nsemic=0  Cnfigmx=2
          i=1  nzeta=2  polorb=0  (2s)
            splnorm:   0.28000    
               vcte:    0.0000    
               rinn:    0.0000    
               qcoe:    0.0000    
               qyuk:    0.0000    
               qwid:   0.10000E-01
                rcs:    0.0000      0.0000    
            lambdas:    1.0000      1.0000    
L=1  Nsemic=0  Cnfigmx=2
          i=1  nzeta=2  polorb=1  (2p)
            splnorm:   0.28000    
               vcte:    0.0000    
               rinn:    0.0000    
               qcoe:    0.0000    
               qyuk:    0.0000    
               qwid:   0.10000E-01
                rcs:    0.0000      0.0000    
            lambdas:    1.0000      1.0000    
-------------------------------------------------------------------------------
L=0  Nkbl=1  erefs: 0.17977+309
L=1  Nkbl=1  erefs: 0.17977+309
L=2  Nkbl=1  erefs: 0.17977+309
L=3  Nkbl=1  erefs: 0.17977+309
===============================================================================
</basis_specs>

atom: Called for N                     (Z =   7)

read_vps: Pseudopotential generation method:
read_vps: ATM4.2.7  Troullier-Martins                       
Valence charge for ps generation:    5.00000

xc_check: Exchange-correlation functional:
xc_check: GGA Perdew, Burke & Ernzerhof 1996
V l=0 = -2*Zval/r beyond r=  1.2889
V l=1 = -2*Zval/r beyond r=  1.2889
V l=2 = -2*Zval/r beyond r=  3.4178
V l=3 = -2*Zval/r beyond r=  2.4084
All V_l potentials equal beyond r=  3.3753
This should be close to max(r_c) in ps generation
All pots = -2*Zval/r beyond r=  3.4178

VLOCAL1: 99.0% of the norm of Vloc inside      3.810 Ry
VLOCAL1: 99.9% of the norm of Vloc inside      8.683 Ry
atom: Maximum radius for 4*pi*r*r*local-pseudopot. charge    4.02088
atom: Maximum radius for r*vlocal+2*Zval:    3.54838
GHOST: No ghost state for L =  0
GHOST: No ghost state for L =  1
GHOST: No ghost state for L =  2
GHOST: No ghost state for L =  3

KBgen: Kleinman-Bylander projectors: 
   l= 0   rc=  3.417763   el= -1.365098   Ekb= -4.433130   kbcos= -0.707855
   l= 1   rc=  3.375302   el= -0.521201   Ekb=-13.264039   kbcos= -0.535594
   l= 2   rc=  3.872880   el=  0.001991   Ekb= -0.641094   kbcos= -0.062456
   l= 3   rc=  3.970931   el=  0.003093   Ekb= -0.474517   kbcos= -0.018236

KBgen: Total number of Kleinman-Bylander projectors:   16
atom: -------------------------------------------------------------------------

atom: SANKEY-TYPE ORBITALS:
atom: Selected multiple-zeta basis: split     

SPLIT: Orbitals with angular momentum L= 0

SPLIT: Basis orbitals for state 2s

SPLIT: PAO cut-off radius determined from an
SPLIT: energy shift=  0.002000 Ry

   izeta = 1
                 lambda =    1.000000
                     rc =    4.730425
                 energy =   -1.363399
                kinetic =    1.245246
    potential(screened) =   -2.608645
       potential(ionic) =   -8.121105

   izeta = 2
                 rmatch =    2.531849
              splitnorm =    0.280000
                 energy =   -0.959908
                kinetic =    2.409435
    potential(screened) =   -3.369343
       potential(ionic) =   -9.427975

SPLIT: Orbitals with angular momentum L= 1

SPLIT: Basis orbitals for state 2p

SPLIT: PAO cut-off radius determined from an
SPLIT: energy shift=  0.002000 Ry

   izeta = 1
                 lambda =    1.000000
                     rc =    5.924108
                 energy =   -0.519262
                kinetic =    3.672940
    potential(screened) =   -4.192202
       potential(ionic) =   -9.518354

   izeta = 2
                 rmatch =    2.531849
              splitnorm =    0.280000
                 energy =   -0.104258
                kinetic =    6.807538
    potential(screened) =   -6.911796
       potential(ionic) =  -13.149920

POLgen: Perturbative polarization orbital with L=  2

POLgen: Polarization orbital for state 2p

   izeta = 1
                     rc =    5.924108
                 energy =    1.427508
                kinetic =    2.872379
    potential(screened) =   -1.444871
       potential(ionic) =   -5.563644
atom: Total number of Sankey-type orbitals: 13

atm_pop: Valence configuration (for local Pseudopot. screening):
 2s( 2.00)                                                            
 2p( 3.00)                                                            
Vna: chval, zval:    5.00000   5.00000

Vna:  Cut-off radius for the neutral-atom potential:   5.924108

atom: _________________________________________________________________________

<basis_specs>
===============================================================================
Si                   Z=  14    Mass=  28.090        Charge= 0.17977+309
Lmxo=1 Lmxkb= 3    BasisType=split      Semic=F
L=0  Nsemic=0  Cnfigmx=3
          i=1  nzeta=2  polorb=0  (3s)
            splnorm:   0.28000    
               vcte:    0.0000    
               rinn:    0.0000    
               qcoe:    0.0000    
               qyuk:    0.0000    
               qwid:   0.10000E-01
                rcs:    0.0000      0.0000    
            lambdas:    1.0000      1.0000    
L=1  Nsemic=0  Cnfigmx=3
          i=1  nzeta=2  polorb=1  (3p)
            splnorm:   0.28000    
               vcte:    0.0000    
               rinn:    0.0000    
               qcoe:    0.0000    
               qyuk:    0.0000    
               qwid:   0.10000E-01
                rcs:    0.0000      0.0000    
            lambdas:    1.0000      1.0000    
-------------------------------------------------------------------------------
L=0  Nkbl=1  erefs: 0.17977+309
L=1  Nkbl=1  erefs: 0.17977+309
L=2  Nkbl=1  erefs: 0.17977+309
L=3  Nkbl=1  erefs: 0.17977+309
===============================================================================
</basis_specs>

atom: Called for Si                    (Z =  14)

read_vps: Pseudopotential generation method:
read_vps: ATM4.2.7  Troullier-Martins                       
Valence charge for ps generation:    4.00000

xc_check: Exchange-correlation functional:
xc_check: GGA Perdew, Burke & Ernzerhof 1996
V l=0 = -2*Zval/r beyond r=  2.7826
V l=1 = -2*Zval/r beyond r=  2.7826
V l=2 = -2*Zval/r beyond r=  2.9253
V l=3 = -2*Zval/r beyond r=  2.7826
All V_l potentials equal beyond r=  2.8530
This should be close to max(r_c) in ps generation
All pots = -2*Zval/r beyond r=  2.9253

VLOCAL1: 99.0% of the norm of Vloc inside      5.333 Ry
VLOCAL1: 99.9% of the norm of Vloc inside     12.154 Ry
atom: Maximum radius for 4*pi*r*r*local-pseudopot. charge    3.39869
atom: Maximum radius for r*vlocal+2*Zval:    2.96205
GHOST: No ghost state for L =  0
GHOST: No ghost state for L =  1
GHOST: No ghost state for L =  2
GHOST: No ghost state for L =  3

KBgen: Kleinman-Bylander projectors: 
   l= 0   rc=  3.075247   el= -0.794092   Ekb=  5.879390   kbcos=  0.167461
   l= 1   rc=  3.153101   el= -0.300068   Ekb=  2.642817   kbcos=  0.058301
   l= 2   rc=  3.273594   el=  0.001958   Ekb= -1.185135   kbcos= -0.104411
   l= 3   rc=  3.232927   el=  0.003046   Ekb= -0.497174   kbcos= -0.015889

KBgen: Total number of Kleinman-Bylander projectors:   16
atom: -------------------------------------------------------------------------

atom: SANKEY-TYPE ORBITALS:
atom: Selected multiple-zeta basis: split     

SPLIT: Orbitals with angular momentum L= 0

SPLIT: Basis orbitals for state 3s

SPLIT: PAO cut-off radius determined from an
SPLIT: energy shift=  0.002000 Ry

   izeta = 1
                 lambda =    1.000000
                     rc =    6.429618
                 energy =   -0.792283
                kinetic =    0.525293
    potential(screened) =   -1.317576
       potential(ionic) =   -3.744923

   izeta = 2
                 rmatch =    3.998416
              splitnorm =    0.280000
                 energy =   -0.583081
                kinetic =    1.069570
    potential(screened) =   -1.652651
       potential(ionic) =   -4.235185

SPLIT: Orbitals with angular momentum L= 1

SPLIT: Basis orbitals for state 3p

SPLIT: PAO cut-off radius determined from an
SPLIT: energy shift=  0.002000 Ry

   izeta = 1
                 lambda =    1.000000
                     rc =    8.464845
                 energy =   -0.298236
                kinetic =    0.785360
    potential(screened) =   -1.083596
       potential(ionic) =   -3.273779

   izeta = 2
                 rmatch =    4.587816
              splitnorm =    0.280000
                 energy =   -0.131871
                kinetic =    1.403687
    potential(screened) =   -1.535557
       potential(ionic) =   -4.015310

POLgen: Perturbative polarization orbital with L=  2

POLgen: Polarization orbital for state 3p

   izeta = 1
                     rc =    8.464845
                 energy =    0.321949
                kinetic =    1.055677
    potential(screened) =   -0.733728
       potential(ionic) =   -2.672950
atom: Total number of Sankey-type orbitals: 13

atm_pop: Valence configuration (for local Pseudopot. screening):
 3s( 2.00)                                                            
 3p( 2.00)                                                            
Vna: chval, zval:    4.00000   4.00000

Vna:  Cut-off radius for the neutral-atom potential:   8.464845

atom: _________________________________________________________________________

<basis_specs>
===============================================================================
O                    Z=   8    Mass=  16.000        Charge= 0.17977+309
Lmxo=1 Lmxkb= 3    BasisType=split      Semic=F
L=0  Nsemic=0  Cnfigmx=2
          i=1  nzeta=2  polorb=0  (2s)
            splnorm:   0.28000    
               vcte:    0.0000    
               rinn:    0.0000    
               qcoe:    0.0000    
               qyuk:    0.0000    
               qwid:   0.10000E-01
                rcs:    0.0000      0.0000    
            lambdas:    1.0000      1.0000    
L=1  Nsemic=0  Cnfigmx=2
          i=1  nzeta=2  polorb=1  (2p)
            splnorm:   0.28000    
               vcte:    0.0000    
               rinn:    0.0000    
               qcoe:    0.0000    
               qyuk:    0.0000    
               qwid:   0.10000E-01
                rcs:    0.0000      0.0000    
            lambdas:    1.0000      1.0000    
-------------------------------------------------------------------------------
L=0  Nkbl=1  erefs: 0.17977+309
L=1  Nkbl=1  erefs: 0.17977+309
L=2  Nkbl=1  erefs: 0.17977+309
L=3  Nkbl=1  erefs: 0.17977+309
===============================================================================
</basis_specs>

atom: Called for O                     (Z =   8)

read_vps: Pseudopotential generation method:
read_vps: ATM4.2.7  Troullier-Martins                       
Valence charge for ps generation:    6.00000

xc_check: Exchange-correlation functional:
xc_check: GGA Perdew, Burke & Ernzerhof 1996
V l=0 = -2*Zval/r beyond r=  1.1000
V l=1 = -2*Zval/r beyond r=  1.1000
V l=2 = -2*Zval/r beyond r=  2.2154
V l=3 = -2*Zval/r beyond r=  1.1000
All V_l potentials equal beyond r=  2.2154
This should be close to max(r_c) in ps generation
All pots = -2*Zval/r beyond r=  2.2154

VLOCAL1: 99.0% of the norm of Vloc inside      8.845 Ry
VLOCAL1: 99.9% of the norm of Vloc inside     20.157 Ry
atom: Maximum radius for 4*pi*r*r*local-pseudopot. charge    2.67231
atom: Maximum radius for r*vlocal+2*Zval:    2.32897
GHOST: No ghost state for L =  0
GHOST: No ghost state for L =  1
GHOST: No ghost state for L =  2
GHOST: No ghost state for L =  3

KBgen: Kleinman-Bylander projectors: 
   l= 0   rc=  2.243238   el= -1.759686   Ekb=**********   kbcos= -0.171774
   l= 1   rc=  2.328968   el= -0.663873   Ekb=-14.506792   kbcos= -0.519897
   l= 2   rc=  2.573941   el=  0.002031   Ekb= -1.137373   kbcos= -0.019581
   l= 3   rc=  2.606321   el=  0.003153   Ekb= -1.013546   kbcos= -0.003122

KBgen: Total number of Kleinman-Bylander projectors:   16
atom: -------------------------------------------------------------------------

atom: SANKEY-TYPE ORBITALS:
atom: Selected multiple-zeta basis: split     

SPLIT: Orbitals with angular momentum L= 0

SPLIT: Basis orbitals for state 2s

SPLIT: PAO cut-off radius determined from an
SPLIT: energy shift=  0.002000 Ry

   izeta = 1
                 lambda =    1.000000
                     rc =    4.243912
                 energy =   -1.758270
                kinetic =    3.286084
    potential(screened) =   -5.044353
       potential(ionic) =  -12.921184

   izeta = 2
                 rmatch =    2.187845
              splitnorm =    0.280000
                 energy =   -0.885018
                kinetic =    8.134434
    potential(screened) =   -9.019452
       potential(ionic) =  -17.710645

SPLIT: Orbitals with angular momentum L= 1

SPLIT: Basis orbitals for state 2p

SPLIT: PAO cut-off radius determined from an
SPLIT: energy shift=  0.002000 Ry

   izeta = 1
                 lambda =    1.000000
                     rc =    5.314825
                 energy =   -0.661986
                kinetic =    4.917472
    potential(screened) =   -5.579458
       potential(ionic) =  -13.236259

   izeta = 2
                 rmatch =    2.160663
              splitnorm =    0.280000
                 energy =   -0.068760
                kinetic =    9.183374
    potential(screened) =   -9.252135
       potential(ionic) =  -18.274251

POLgen: Perturbative polarization orbital with L=  2

POLgen: Polarization orbital for state 2p

   izeta = 1
                     rc =    5.314825
                 energy =    1.970580
                kinetic =    3.886128
    potential(screened) =   -1.915547
       potential(ionic) =   -7.749584
atom: Total number of Sankey-type orbitals: 13

atm_pop: Valence configuration (for local Pseudopot. screening):
 2s( 2.00)                                                            
 2p( 4.00)                                                            
Vna: chval, zval:    6.00000   6.00000

Vna:  Cut-off radius for the neutral-atom potential:   5.314825

atom: _________________________________________________________________________

prinput: Basis input ----------------------------------------------------------

PAO.BasisType split     

%block ChemicalSpeciesLabel
    1    1 H                       # Species index, atomic number, species label
    2    7 N                       # Species index, atomic number, species label
    3   14 Si                      # Species index, atomic number, species label
    4    8 O                       # Species index, atomic number, species label
%endblock ChemicalSpeciesLabel

%block PAO.Basis                 # Define Basis set
H                     1                    # Species label, number of l-shells
 n=1   0   2 P   1                   # n, l, Nzeta, Polarization, NzetaPol
   6.518      2.141   
   1.000      1.000   
N                     2                    # Species label, number of l-shells
 n=2   0   2                         # n, l, Nzeta 
   4.730      2.532   
   1.000      1.000   
 n=2   1   2 P   1                   # n, l, Nzeta, Polarization, NzetaPol
   5.924      2.532   
   1.000      1.000   
Si                    2                    # Species label, number of l-shells
 n=3   0   2                         # n, l, Nzeta 
   6.430      3.998   
   1.000      1.000   
 n=3   1   2 P   1                   # n, l, Nzeta, Polarization, NzetaPol
   8.465      4.588   
   1.000      1.000   
O                     2                    # Species label, number of l-shells
 n=2   0   2                         # n, l, Nzeta 
   4.244      2.188   
   1.000      1.000   
 n=2   1   2 P   1                   # n, l, Nzeta, Polarization, NzetaPol
   5.315      2.161   
   1.000      1.000   
%endblock PAO.Basis

prinput: ----------------------------------------------------------------------

Dumping basis to NetCDF file H.ion.nc
Dumping basis to NetCDF file N.ion.nc
Dumping basis to NetCDF file Si.ion.nc
Dumping basis to NetCDF file O.ion.nc
coor:   Atomic-coordinates input format  =     Cartesian coordinates
coor:                                          (in Angstroms)

siesta: Atomic coordinates (Bohr) and species
siesta:      0.19302   9.42024   0.00000  1        1
siesta:     -1.14205   7.92729   0.00000  2        2
siesta:     -4.41182   8.76135   0.00000  3        3
siesta:     -4.70620  11.57702   0.00000  1        4
siesta:     -7.29048   5.81544   0.00000  3        5
siesta:    -10.09330   6.27432   0.00000  1        6
siesta:     -5.02585   2.19987   0.00000  3        7
siesta:     -6.47343  -0.69655   0.00000  2        8
siesta:     -5.35802  -2.50542   0.00000  1        9
siesta:     -8.46071  -0.84860   0.00000  1       10
siesta:     -1.78270   2.30413   0.00000  2       11
siesta:      0.24880   4.81811   0.00000  3       12
siesta:      3.28875   4.78256   0.00000  4       13
siesta:     10.61355 -14.07759   0.00000  1       14
siesta:      8.65886 -13.66658   0.00000  2       15
siesta:      6.22979 -16.04876   0.00000  3       16
siesta:      7.18318 -18.71532  -0.00000  1       17
siesta:      3.13570 -15.14356   0.00000  2       18
siesta:      3.17659 -11.72506  -0.00000  3       19
siesta:      1.03072  -8.10005   0.00000  3       20
siesta:     -1.95457  -7.45403   0.00000  4       21
siesta:      3.27352  -5.43711   0.00000  2       22
siesta:      2.28576  -3.64645  -0.00000  1       23
siesta:      6.63017  -5.24735   0.00000  3       24
siesta:      7.81751  -2.22872   0.00000  2       25
siesta:      6.69523  -0.49602   0.00000  1       26
siesta:      9.79567  -1.98858  -0.00000  1       27
siesta:      8.75489  -7.70105  -0.00000  2       28
siesta:      7.16982 -10.55666   0.00000  3       29

siesta: Automatic unit cell vectors (Ang):
siesta:   19.641932    0.000000    0.000000
siesta:    0.000000   25.221598    0.000000
siesta:    0.000000    0.000000    9.854683

siesta: System type = molecule  

initatomlists: Number of atoms, orbitals, and projectors:     29   297   394

siesta: ******************** Simulation parameters ****************************
siesta:
siesta: The following are some of the parameters of the simulation.
siesta: A complete list of the parameters used, including default values,
siesta: can be found in file out.fdf
siesta:
redata: Spin configuration                          = spin-orbit
redata: Number of spin components                   = 8
redata: Time-Reversal Symmetry                      = F
redata: Spin spiral                                 = F
############################################################
This spin-orbit implementation uses a local approximation.
From 4.2 and onwards the full non-local approximation is implemented
You are strongly advised to use >=4.2 versions!
############################################################
redata: Long output                                 =   F
redata: Number of Atomic Species                    =        4
redata: Charge density info will appear in .RHO file
redata: Write Mulliken Pop.                         = NO
redata: Matel table size (NRTAB)                    =     1024
redata: Mesh Cutoff                                 =   340.0000 Ry
redata: Net charge of the system                    =     0.0000 |e|
redata: Min. number of SCF Iter                     =        1
redata: Max. number of SCF Iter                     =      600
redata: SCF convergence failure will abort job
redata: SCF mix quantity                            = Hamiltonian
redata: Mix DM or H after convergence               =   F
redata: Recompute H after scf cycle                 =   F
redata: Mix DM in first SCF step                    =   T
redata: Write Pulay info on disk                    =   F
redata: New DM Occupancy tolerance                  = 0.000000000001
redata: No kicks to SCF
redata: DM Mixing Weight for Kicks                  =     0.5000
redata: Require Harris convergence for SCF          =   F
redata: Harris energy tolerance for SCF             =     0.000100 eV
redata: Require DM convergence for SCF              =   T
redata: DM tolerance for SCF                        =     0.000008
redata: Require EDM convergence for SCF             =   F
redata: EDM tolerance for SCF                       =     0.001000 eV
redata: Require H convergence for SCF               =   T
redata: Hamiltonian tolerance for SCF               =     0.000001 eV
redata: Require (free) Energy convergence for SCF   =   F
redata: (free) Energy tolerance for SCF             =     0.000100 eV
redata: Using Saved Data (generic)                  =   F
redata: Use continuation files for DM               =   T
redata: Neglect nonoverlap interactions             =   F
redata: Method of Calculation                       = Diagonalization
redata: Electronic Temperature                      =   299.9978 K
redata: Fix the spin of the system                  =   F
redata: Dynamics option                             = Single-point calculation
mix.SCF: Pulay mixing                            = Pulay
mix.SCF:    Variant                              = stable
mix.SCF:    History steps                        = 6
mix.SCF:    Linear mixing weight                 =     0.250000
mix.SCF:    Mixing weight                        =     0.250000
mix.SCF:    SVD condition                        = 0.1000E-07
mix.SCF:    Restart steps                        = 24
mix.SCF:    Restart save steps                   = 3
mix.SCF: Spin-component mixing                   all
redata: Save all siesta data in one NC              =   F
redata: ***********************************************************************

%block SCF.Mixers
  Pulay
%endblock SCF.Mixers

%block SCF.Mixer.Pulay
  # Mixing method
  method pulay
  variant stable

  # Mixing options
  weight 0.2500
  weight.linear 0.2500
  history 6
  restart 24
  restart.save 3
%endblock SCF.Mixer.Pulay

DM_history_depth set to one: no extrapolation allowed by default for geometry relaxation
Size of DM history Fstack: 1
Total number of electrons:    98.000000
Total ionic charge:    98.000000

* ProcessorY, Blocksize:    2  24


* Orbital distribution balance (max,min):    57    48


Time-reversal symmetry not used.

siesta: k-grid: Number of k-points =     1
siesta: k-grid: Cutoff (effective) =     4.927 Ang
siesta: k-grid: Supercell and displacements
siesta: k-grid:    1   0   0      0.000
siesta: k-grid:    0   1   0      0.000
siesta: k-grid:    0   0   1      0.000

diag: Algorithm                                     = ELPA-1stage
diag: Parallel over k                               =   F
diag: Use parallel 2D distribution                  =   T
diag: Parallel block-size                           = 24
diag: Parallel distribution                         =     2 x     3
diag: Used triangular part                          = Lower
diag: Absolute tolerance                            =  0.100E-15
diag: Orthogonalization factor                      =  0.100E-05
diag: Memory factor                                 =  1.0000


ts: **************************************************************
ts: Save H and S matrices                           =    F
ts: Save DM and EDM matrices                        =    F
ts: Only save the overlap matrix S                  =    F
ts: **************************************************************

************************ Begin: TS CHECKS AND WARNINGS ************************
************************ End: TS CHECKS AND WARNINGS **************************


                     ====================================
                        Single-point calculation
                     ====================================

outcoor: Atomic coordinates (Ang):                          
    0.10214116    4.98497489    0.00000000   1       1  H
   -0.60434557    4.19493871    0.00000000   2       2  N
   -2.33463248    4.63630262    0.00000000   3       3  Si
   -2.49041216    6.12629488    0.00000000   1       4  H
   -3.85795410    3.07739510    0.00000000   3       5  Si
   -5.34114173    3.32022546    0.00000000   1       6  H
   -2.65956324    1.16411894    0.00000000   3       7  Si
   -3.42558870   -0.36859780    0.00000000   2       8  N
   -2.83534215   -1.32581083    0.00000000   1       9  H
   -4.47721102   -0.44905803    0.00000000   1      10  H
   -0.94336318    1.21929325    0.00000000   2      11  N
    0.13165944    2.54963209    0.00000000   3      12  Si
    1.74033276    2.53082183    0.00000000   4      13  O
    5.61644830   -7.44953905    0.00000000   1      14  H
    4.58206954   -7.23203760    0.00000000   2      15  N
    3.29666389   -8.49263600    0.00000000   3      16  Si
    3.80117524   -9.90371886    0.00000000   1      17  H
    1.65934232   -8.01362137    0.00000000   2      18  N
    1.68097912   -6.20463398    0.00000000   3      19  Si
    0.54543521   -4.28636135    0.00000000   3      20  Si
   -1.03431493   -3.94450034    0.00000000   4      21  O
    1.73226934   -2.87719605    0.00000000   2      22  N
    1.20957366   -1.92961761    0.00000000   1      23  H
    3.50853448   -2.77677601    0.00000000   3      24  Si
    4.13684451   -1.17938608    0.00000000   2      25  N
    3.54296161   -0.26248101    0.00000000   1      26  H
    5.18364407   -1.05231197    0.00000000   1      27  H
    4.63288658   -4.07521596    0.00000000   2      28  N
    3.79410501   -5.58634043    0.00000000   3      29  Si

outcell: Unit cell vectors (Ang):
       19.641932    0.000000    0.000000
        0.000000   25.221598    0.000000
        0.000000    0.000000    9.854683

outcell: Cell vector modules (Ang)   :   19.641932   25.221598    9.854683
outcell: Cell angles (23,13,12) (deg):     90.0000     90.0000     90.0000
outcell: Cell volume (Ang**3)        :   4882.0190
<dSpData1D:S at geom step 0
  <sparsity:sparsity for geom step 0
    nrows_g=297 nrows=57 sparsity=.1136 nnzs=10024, refcount: 8>
  <dData1D:(new from dSpData1D) n=10024, refcount: 1>
refcount: 1>
new_DM -- step:     1
Initializing Density Matrix...

Attempting to read DM from file... Failed...
DM filled with atomic data:
<dSpData2D:DM initialized from atoms
  <sparsity:sparsity for geom step 0
    nrows_g=297 nrows=57 sparsity=.1136 nnzs=10024, refcount: 9>
  <dData2D:DM n=10024 m=8, refcount: 1>
refcount: 1>
     spin moment: S , {S} =   56.00000   0.00000   0.00000  56.00000
No. of atoms with KB's overlaping orbs in proc 0. Max # of overlaps:      28     170

Initializing spin-orbit part of the Hamiltonian
  Adding spin-orbit effects for H 
  Adding spin-orbit effects for N 
  Adding spin-orbit effects for Si
  Adding spin-orbit effects for O 


New grid distribution:   1
           1       1:  120    1:   72    1:   20
           2       1:  120    1:   72   21:   40
           3       1:  120    1:   72   41:   60
           4       1:  120   73:  144    1:   20
           5       1:  120   73:  144   21:   40
           6       1:  120   73:  144   41:   60

InitMesh: MESH =   240 x   288 x   120 =     8294400
InitMesh: (bp) =   120 x   144 x    60 =     1036800
InitMesh: Mesh cutoff (required, used) =   340.000   360.364 Ry
ExtMesh (bp) on 0 =   232 x   176 x   132 =     5389824
New grid distribution:   2
           1      26:  120   20:  104    1:   60
           2      26:  120    1:   19    1:   60
           3       1:   16  105:  144    1:   60
           4      17:  120  105:  124    1:   60
           5       1:   25    1:  104    1:   60
           6      17:  120  125:  144    1:   60
New grid distribution:   3
           1      27:  120   24:   91    1:   60
           2       1:   26    1:   91    1:   60
           3       1:   23   92:  144    1:   60
           4      24:  120  123:  144    1:   60
           5      24:  120   92:  122    1:   60
           6      27:  120    1:   23    1:   60
Setting up quadratic distribution...
ExtMesh (bp) on 0 =   207 x   189 x   172 =     6729156
PhiOnMesh: Number of (b)points on node 0 =               484500
PhiOnMesh: nlist on node 0 =              2181541

stepf: Fermi-Dirac step function

siesta: Program's energy decomposition (eV):
siesta: Ebs     =      -618.652691
siesta: Eions   =      3585.165840
siesta: Ena     =       381.821875
siesta: Ekin    =      3366.652605
siesta: Enl     =     -3295.269274
siesta: Eso     =        -0.003415
siesta: Edftu   =         0.000000
siesta: DEna    =       153.192454
siesta: DUscf   =        80.598791
siesta: DUext   =         0.000000
siesta: Exc     =     -1203.533984
siesta: eta*DQ  =         0.000000
siesta: Emadel  =         0.000000
siesta: Emeta   =         0.000000
siesta: Emolmec =         0.000000
siesta: Ekinion =         0.000000
siesta: Eharris =     -4024.267359
siesta: Etot    =     -4101.706787
siesta: FreeEng =     -4101.707813

        iscf     Eharris(eV)        E_KS(eV)     FreeEng(eV)     dDmax    Ef(eV) dHmax(eV)
   scf:    1    -4024.267359    -4101.706787    -4101.707813  0.964930 -4.903906 21.673175
     spin moment: S , {S} =    2.00577   0.00000  -0.00000   2.00577
timer: Routine,Calls,Time,% = IterSCF        1       6.310  24.55
   scf:    2    -4148.445345    -4136.942601    -4136.944535  0.455564 -4.205622 11.107524
     spin moment: S , {S} =    1.98934  -0.00000  -0.00000   1.98934
   scf:    3    -4110.320840    -4134.592302    -4134.599127  0.426295 -4.315857 11.513785
     spin moment: S , {S} =    2.00179  -0.00000  -0.00000   2.00179
   scf:    4    -4149.997055    -4145.465583    -4145.465584  0.324617 -3.900933  6.266923
     spin moment: S , {S} =    0.00009  -0.00000  -0.00000   0.00009
   scf:    5    -4146.633695    -4146.143063    -4146.143063  0.034202 -3.704882  4.318455
     spin moment: S , {S} =    0.00006  -0.00000   0.00000   0.00006
   scf:    6    -4146.899485    -4146.528466    -4146.528466  0.024619 -3.604236  2.123100
     spin moment: S , {S} =    0.00003  -0.00000  -0.00000   0.00003
   scf:    7    -4146.873528    -4146.697534    -4146.697534  0.021385 -3.603174  0.891790
     spin moment: S , {S} =    0.00001   0.00000   0.00000   0.00001
   scf:    8    -4146.818450    -4146.755967    -4146.755967  0.012707 -3.673537  0.486149
     spin moment: S , {S} =    0.00000   0.00000   0.00000   0.00000
   scf:    9    -4146.794281    -4146.774466    -4146.774466  0.006593 -3.798495  0.354860
     spin moment: S , {S} =    0.00000   0.00000  -0.00000   0.00000
   scf:   10    -4146.825489    -4146.794639    -4146.794639  0.020215 -3.785185  0.197820
     spin moment: S , {S} =    0.00000  -0.00000  -0.00000  -0.00000
   scf:   11    -4146.797734    -4146.796142    -4146.796142  0.005370 -3.776127  0.058542
     spin moment: S , {S} =    0.00000  -0.00000  -0.00000  -0.00000
   scf:   12    -4146.797011    -4146.796589    -4146.796589  0.001173 -3.771597  0.023242
     spin moment: S , {S} =    0.00000  -0.00000  -0.00000   0.00000
   scf:   13    -4146.796970    -4146.796775    -4146.796775  0.001348 -3.769441  0.016969
     spin moment: S , {S} =    0.00000  -0.00000  -0.00000   0.00000
   scf:   14    -4146.797019    -4146.796889    -4146.796889  0.001360 -3.768441  0.013278
     spin moment: S , {S} =    0.00000  -0.00000  -0.00000   0.00000
   scf:   15    -4146.797025    -4146.796951    -4146.796951  0.001220 -3.768190  0.009573
     spin moment: S , {S} =    0.00000  -0.00000  -0.00000   0.00000
   scf:   16    -4146.797044    -4146.796991    -4146.796991  0.001282 -3.768294  0.005817
     spin moment: S , {S} =    0.00000  -0.00000  -0.00000   0.00000
   scf:   17    -4146.797017    -4146.797002    -4146.797002  0.000684 -3.768228  0.003832
     spin moment: S , {S} =    0.00000  -0.00000  -0.00000   0.00000
   scf:   18    -4146.797012    -4146.797006    -4146.797006  0.000430 -3.768263  0.001969
     spin moment: S , {S} =    0.00000  -0.00000  -0.00000   0.00000
   scf:   19    -4146.797010    -4146.797008    -4146.797008  0.000260 -3.768305  0.000976
     spin moment: S , {S} =    0.00000  -0.00000  -0.00000   0.00000
   scf:   20    -4146.797009    -4146.797008    -4146.797008  0.000114 -3.768319  0.000617
     spin moment: S , {S} =    0.00000  -0.00000  -0.00000   0.00000
   scf:   21    -4146.797009    -4146.797008    -4146.797008  0.000105 -3.768325  0.000250
     spin moment: S , {S} =    0.00000  -0.00000  -0.00000   0.00000
   scf:   22    -4146.797009    -4146.797008    -4146.797008  0.000032 -3.768308  0.000103
     spin moment: S , {S} =    0.00000  -0.00000  -0.00000   0.00000
   scf:   23    -4146.797008    -4146.797008    -4146.797008  0.000007 -3.768305  0.000070
     spin moment: S , {S} =    0.00000  -0.00000  -0.00000   0.00000
   scf:   24    -4146.797008    -4146.797008    -4146.797008  0.000003 -3.768304  0.000055
     spin moment: S , {S} =    0.00000  -0.00000  -0.00000   0.00000
mix: Pulay -- resetting history
   scf:   25    -4146.797008    -4146.797008    -4146.797008  0.000003 -3.768305  0.000037
     spin moment: S , {S} =    0.00000  -0.00000  -0.00000  -0.00000
   scf:   26    -4146.797008    -4146.797008    -4146.797008  0.000003 -3.768305  0.000022
     spin moment: S , {S} =    0.00000  -0.00000  -0.00000  -0.00000
   scf:   27    -4146.797008    -4146.797008    -4146.797008  0.000004 -3.768304  0.000008
     spin moment: S , {S} =    0.00000  -0.00000  -0.00000  -0.00000
   scf:   28    -4146.797008    -4146.797008    -4146.797008  0.000001 -3.768304  0.000005
     spin moment: S , {S} =    0.00000  -0.00000  -0.00000  -0.00000
   scf:   29    -4146.797008    -4146.797008    -4146.797008  0.000001 -3.768304  0.000003
     spin moment: S , {S} =    0.00000  -0.00000  -0.00000  -0.00000
   scf:   30    -4146.797008    -4146.797008    -4146.797008  0.000001 -3.768304  0.000001
     spin moment: S , {S} =    0.00000  -0.00000  -0.00000  -0.00000
   scf:   31    -4146.797008    -4146.797008    -4146.797008  0.000000 -3.768304  0.000001
     spin moment: S , {S} =    0.00000  -0.00000  -0.00000  -0.00000

SCF Convergence by DM+H criterion
max |DM_out - DM_in|         :     0.0000001528
max |H_out - H_in|      (eV) :     0.0000007159
SCF cycle converged after 31 iterations

Using DM_out to compute the final energy and forces
No. of atoms with KB's overlaping orbs in proc 0. Max # of overlaps:      28     170

siesta: E_KS(eV) =            -4146.7970

siesta: E_KS - E_eggbox =     -4146.7970
     spin moment: S , {S} =    0.00000  -0.00000  -0.00000  -0.00000

siesta: Atomic forces (eV/Ang):
     1   -0.045323    0.009781   -0.000000
     2   -0.417114    0.238695   -0.000000
     3    0.350229   -0.025586   -0.000000
     4   -0.057625    0.121010   -0.000000
     5   -0.178085   -0.184959    0.000000
     6    0.095904    0.084409   -0.000000
     7    1.029306    0.845345    0.000000
     8    0.835935   -2.188860   -0.000000
     9   -1.228836    1.668432    0.000000
    10    0.075958   -0.236664   -0.000000
    11   -0.816009   -0.271321   -0.000000
    12    0.989272   -0.214912    0.000000
    13   -1.738359    1.850846    0.000000
    14    0.052233    0.020797    0.000000
    15    0.088633    0.028633    0.000000
    16    0.019482   -0.010199    0.000000
    17   -0.064785    0.051696   -0.000000
    18   -0.005853    0.034590    0.000000
    19    0.223954    0.027548   -0.000000
    20   -1.166996   -0.123112    0.000000
    21   -0.188539    1.060908   -0.000000
    22    0.275112    0.681226    0.000000
    23    0.310525   -0.518929   -0.000000
    24   -0.294280   -0.766009   -0.000000
    25   -0.498568    1.446210    0.000000
    26    0.670420   -1.054356   -0.000000
    27   -0.171200    0.139286    0.000000
    28    0.030590    0.606149    0.000000
    29   -0.255520   -0.337564   -0.000000
----------------------------------------
   Tot   -2.079538    2.983090    0.000000
----------------------------------------
   Max    2.188860
   Res    0.577089    sqrt( Sum f_i^2 / 3N )
----------------------------------------
   Max    2.188860    constrained

Stress tensor Voigt[x,y,z,yz,xz,xy] (kbar):        1.48        0.66       -0.11        0.00       -0.00       -1.42
(Free)E + p*V (eV/cell)    -4148.8594
Target enthalpy (eV/cell)    -4146.7970

siesta: Eigenvalues (eV):
ik =     1
  -21.9752  -21.9752  -21.7540  -21.7540  -21.5645  -21.5645  -21.4622  -21.4622  -21.2177  -21.2177
  -21.1315  -21.1315  -20.7509  -20.7509  -19.7557  -19.7557  -19.4342  -19.4342  -19.3536  -19.3536
  -14.7704  -14.7704  -13.8550  -13.8550  -13.3203  -13.3203  -13.0844  -13.0844  -13.0449  -13.0449
  -12.8450  -12.8450  -12.7211  -12.7211  -12.3648  -12.3648  -12.3431  -12.3431  -12.0372  -12.0372
  -11.3314  -11.3314  -10.8248  -10.8248  -10.7280  -10.7280  -10.6749  -10.6749  -10.1162  -10.1162
   -9.5873   -9.5873   -9.2180   -9.2180   -8.8399   -8.8399   -8.7117   -8.7117   -8.6764   -8.6764
   -8.5621   -8.5621   -8.4504   -8.4504   -8.1416   -8.1416   -7.7958   -7.7958   -7.7795   -7.7795
   -7.6232   -7.6232   -7.3227   -7.3227   -7.2417   -7.2417   -6.8130   -6.8130   -6.7998   -6.7998
   -6.5637   -6.5637   -6.4931   -6.4931   -6.1840   -6.1840   -6.1387   -6.1387   -6.1127   -6.1127
   -5.9405   -5.9405   -5.6868   -5.6868   -5.5097   -5.5097   -4.2960   -4.2960   -3.2411   -3.2411
   -2.3131   -2.3131   -2.3104   -2.3104   -2.2641   -2.2641   -1.8806   -1.8806   -1.8377   -1.8377
   -1.8335   -1.8335   -1.8160   -1.8160   -1.6032   -1.6032   -1.4810   -1.4810   -1.0414   -1.0414
   -0.9208   -0.9208   -0.7593   -0.7593   -0.3865   -0.3865   -0.2335   -0.2335    0.1067    0.1067
    0.4290    0.4290    0.4904    0.4904    0.5800    0.5800    0.7256    0.7256    0.8702    0.8702
    1.0683    1.0683    1.2536    1.2536    1.3552    1.3552    1.4200    1.4200    1.4654    1.4654
    1.7581    1.7581    1.8850    1.8850    2.0155    2.0155    2.3531    2.3531    2.7408    2.7408
    2.7453    2.7453    2.8133    2.8133    2.9214    2.9214    3.2386    3.2386    3.4140    3.4140
    3.4607    3.4607    3.7992    3.7992    3.8808    3.8808    4.0856    4.0856    4.3895    4.3895
    4.3965    4.3965    4.4812    4.4812    4.5627    4.5627    4.6329    4.6329    4.8456    4.8456
    4.8913    4.8913    5.0475    5.0475    5.2625    5.2625    5.5255    5.5255    5.6485    5.6485
    5.7943    5.7943    5.8370    5.8370    5.9763    5.9763    6.0288    6.0288    6.1859    6.1859
    6.2897    6.2897    6.3800    6.3800    6.5809    6.5809    6.7181    6.7181    6.8484    6.8484
    7.0219    7.0219    7.1921    7.1921    7.4608    7.4608    7.5904    7.5904    7.7768    7.7768
    7.8870    7.8870    8.0032    8.0032    8.0760    8.0760    8.3014    8.3014    8.4257    8.4257
    8.5860    8.5860    8.7501    8.7501    8.9032    8.9032    8.9174    8.9174    9.2004    9.2004
    9.2160    9.2160    9.3646    9.3646    9.8311    9.8311    9.8391    9.8391    9.8643    9.8643
   10.1174   10.1174   10.1854   10.1854   10.4664   10.4664   10.8321   10.8321   11.0103   11.0103
   11.0145   11.0145   11.1407   11.1407   11.2258   11.2258   11.7414   11.7414   11.7790   11.7790
   11.8604   11.8604   11.9896   11.9896   12.3113   12.3113   12.4456   12.4456   12.6709   12.6709
   12.7287   12.7287   12.8199   12.8199   13.3741   13.3741   13.4695   13.4695   13.7397   13.7397
   13.7770   13.7770   14.1108   14.1108   14.3491   14.3491   14.7448   14.7448   14.7665   14.7665
   14.9802   14.9802   15.3335   15.3335   16.0097   16.0097   16.5032   16.5032   16.7038   16.7038
   16.9361   16.9361   17.4037   17.4037   17.5639   17.5639   18.3057   18.3057   18.5932   18.5932
   18.6063   18.6063   19.1671   19.1671   19.4364   19.4364   19.9138   19.9138   20.2714   20.2714
   21.0470   21.0470   21.3136   21.3136   21.9735   21.9735   22.1376   22.1376   22.4939   22.4939
   22.8865   22.8865   23.4611   23.4611   23.7601   23.7601   23.8516   23.8516   24.0366   24.0366
   24.9866   24.9866   25.3654   25.3654   26.0945   26.0945   26.7896   26.7896   27.7046   27.7046
   28.7618   28.7618   28.9994   28.9994   29.0594   29.0594   29.5014   29.5014   29.9130   29.9130
   30.1313   30.1313   30.2867   30.2867   30.5621   30.5621   30.8854   30.8854   30.9763   30.9763
   31.1094   31.1094   31.4411   31.4411   31.6993   31.6993   32.0498   32.0498   32.1137   32.1137
   33.3797   33.3797   33.9803   33.9803   34.4930   34.4930   34.6375   34.6375   34.7707   34.7707
   34.8189   34.8189   35.1230   35.1230   35.5216   35.5216   35.5973   35.5973   35.7592   35.7592
   36.9417   36.9417   37.3384   37.3384   37.3717   37.3717   37.5051   37.5051   38.1031   38.1031
   38.3191   38.3191   38.9797   38.9797   39.2817   39.2817   39.5047   39.5047   40.2127   40.2127
   40.4675   40.4675   40.5279   40.5279   40.7644   40.7644   40.8079   40.8079   41.2929   41.2929
   41.8220   41.8220   42.5563   42.5563   42.8673   42.8673   43.0908   43.0908   43.4179   43.4179
   43.4500   43.4500   43.9473   43.9473   44.1510   44.1510   44.3606   44.3606   44.5013   44.5013
   44.6688   44.6688   45.0732   45.0732   45.2507   45.2507   45.8740   45.8740   46.1378   46.1378
   46.7613   46.7613   47.3618   47.3618   47.3643   47.3643   48.7634   48.7634   49.5183   49.5183
   49.7557   49.7557   50.3192   50.3192   50.5004   50.5004   50.9467   50.9467   51.1868   51.1868
   51.4578   51.4578   52.3843   52.3843   52.6189   52.6189   53.4538   53.4538   54.3195   54.3195
   54.5220   54.5220   54.8511   54.8511   55.4607   55.4607   55.7416   55.7416   56.2223   56.2223
   56.4143   56.4143   56.5747   56.5747   56.7230   56.7230   58.5425   58.5425   59.2524   59.2524
   59.5823   59.5823   60.4147   60.4147   60.4578   60.4578   61.1979   61.1979   61.8208   61.8208
   61.9974   61.9974   62.2736   62.2736   62.6928   62.6928   64.7834   64.7834   66.6134   66.6134
   66.9055   66.9055   67.3923   67.3923   68.0911   68.0911   69.0084   69.0084   70.8815   70.8815
   73.9370   73.9370   81.7864   81.7864   91.3742   91.3742   92.1010   92.1010   93.3527   93.3527
   98.4137   98.4137   99.2828   99.2828  100.0554  100.0554  103.2954  103.2954  103.9915  103.9915
  110.4594  110.4594  112.5724  112.5724  124.1491  124.1491  126.3988  126.3988  129.9736  129.9736
  135.6094  135.6094  138.6247  138.6247
siesta: Fermi energy =      -3.768304 eV

siesta: Program's energy decomposition (eV):
siesta: Ebs     =     -1133.898870
siesta: Eions   =      3585.165840
siesta: Ena     =       381.821875
siesta: Ekin    =      2902.873724
siesta: Enl     =     -2787.822817
siesta: Eso     =        -0.004274
siesta: Edftu   =         0.000000
siesta: DEna    =        47.053862
siesta: DUscf   =        14.209293
siesta: DUext   =         0.000000
siesta: Exc     =     -1119.762832
siesta: eta*DQ  =         0.000000
siesta: Emadel  =         0.000000
siesta: Emeta   =         0.000000
siesta: Emolmec =         0.000000
siesta: Ekinion =         0.000000
siesta: Eharris =     -4146.797008
siesta: Etot    =     -4146.797008
siesta: FreeEng =     -4146.797008

siesta: Final energy (eV):
siesta:  Band Struct. =   -1133.898870
siesta:       Kinetic =    2902.873724
siesta:       Hartree =    8384.573870
siesta:       Edftu   =       0.000000
siesta:       Eso     =      -0.004274
siesta:    Ext. field =       0.000000
siesta:   Exch.-corr. =   -1119.762832
siesta:  Ion-electron =  -19352.358098
siesta:       Ion-ion =    5037.880601
siesta:       Ekinion =       0.000000
siesta:         Total =   -4146.797008
siesta:         Fermi =      -3.768304

siesta: Atomic forces (eV/Ang):
siesta:      1   -0.045323    0.009781   -0.000000
siesta:      2   -0.417114    0.238695   -0.000000
siesta:      3    0.350229   -0.025586   -0.000000
siesta:      4   -0.057625    0.121010   -0.000000
siesta:      5   -0.178085   -0.184959    0.000000
siesta:      6    0.095904    0.084409   -0.000000
siesta:      7    1.029306    0.845345    0.000000
siesta:      8    0.835935   -2.188860   -0.000000
siesta:      9   -1.228836    1.668432    0.000000
siesta:     10    0.075958   -0.236664   -0.000000
siesta:     11   -0.816009   -0.271321   -0.000000
siesta:     12    0.989272   -0.214912    0.000000
siesta:     13   -1.738359    1.850846    0.000000
siesta:     14    0.052233    0.020797    0.000000
siesta:     15    0.088633    0.028633    0.000000
siesta:     16    0.019482   -0.010199    0.000000
siesta:     17   -0.064785    0.051696   -0.000000
siesta:     18   -0.005853    0.034590    0.000000
siesta:     19    0.223954    0.027548   -0.000000
siesta:     20   -1.166996   -0.123112    0.000000
siesta:     21   -0.188539    1.060908   -0.000000
siesta:     22    0.275112    0.681226    0.000000
siesta:     23    0.310525   -0.518929   -0.000000
siesta:     24   -0.294280   -0.766009   -0.000000
siesta:     25   -0.498568    1.446210    0.000000
siesta:     26    0.670420   -1.054356   -0.000000
siesta:     27   -0.171200    0.139286    0.000000
siesta:     28    0.030590    0.606149    0.000000
siesta:     29   -0.255520   -0.337564   -0.000000
siesta: ----------------------------------------
siesta:    Tot   -2.079538    2.983090    0.000000

siesta: Stress tensor (static) (eV/Ang**3):
siesta:     0.000923   -0.000884   -0.000000
siesta:    -0.000884    0.000411    0.000000
siesta:    -0.000000    0.000000   -0.000067

siesta: Cell volume =       4882.019033 Ang**3

siesta: Pressure (static):
siesta:                Solid            Molecule  Units
siesta:          -0.00000460         -0.00000386  Ry/Bohr**3
siesta:          -0.00042244         -0.00035415  eV/Ang**3
siesta:          -0.67682881         -0.56741504  kBar
(Free)E+ p_basis*V_orbitals  =       -4126.946591
(Free)Eharris+ p_basis*V_orbitals  =       -4126.946591
     spin moment: S , {S} =    0.00000  -0.00000  -0.00000  -0.00000

siesta: Electric dipole (a.u.)  =   -0.031143    1.589101   -0.000000
siesta: Electric dipole (Debye) =   -0.079159    4.039094   -0.000000

cite: Please see "GC.bib" for an exhaustive BiBTeX file.
cite: Please clearly indicate Siesta version in published work: v4.1.5-1-g384057250
cite: This calculation has made use of the following articles
cite: which are encouraged to be cited in a published work.
        Primary SIESTA paper
          DOI: www.doi.org/10.1088/0953-8984/14/11/302
        Spin-orbit coupling (on-site approximation)
          DOI: www.doi.org/10.1088/0953-8984/19/19/489001


WARNING: alloc-realloc-dealloc name mismatch
         Name: atomlist isa
         Size:              -116. Bytes
         Node:     0
         Subsequent mismatches will not be reported
>> End of run:  16-OCT-2023  18:41:04
Job completed
