Siesta Version  : v4.1.5-1-g384057250
Architecture    : gcc
Compiler version: GNU Fortran (Ubuntu 11.3.0-1ubuntu1~22.04) 11.3.0
Compiler flags  : mpifort -O2 -fPIC -ftree-vectorize -fallow-argument-mismatch
PP flags        : -DFC_HAVE_ABORT -DMPI -DSIESTA__FLOOK -DSIESTA__METIS -DSIESTA__MUMPS -DCDF -DNCDF -DNCDF_4 -DNCDF_PARALLEL -DSIESTA__MRRR -DSIESTA__ELPA
Libraries       : libncdf.a libfdict.a  -lflookall -ldl -lnetcdff -lnetcdf -lhdf5_hl -lhdf5 -lhdf5_fortran -lz -lscalapack-openmpi -lopenblas -lmetis -lzmumps -lcmumps -ldmumps -lmumps_common -lpord -lsmumps -lesmumps -lscotch -lscotcherr -fopenmp -lelpa
PARALLEL version
NetCDF support
NetCDF-4 support
NetCDF-4 MPI-IO support
METIS ordering support
Lua support

* Running on 4 nodes in parallel
>> Start of run:  28-JUN-2023  15:14:32

                           ***********************       
                           *  WELCOME TO SIESTA  *       
                           ***********************       

reinit: Reading from standard input
reinit: Dumped input in INPUT_TMP.12622
************************** Dump of input data file ****************************
SystemLabel      GC
NumberOfAtoms    29
NumberOfSpecies  4
%block ChemicalSpeciesLabel
    1    8  O
    2    7  N
    3   14  Si
    4    1  H
%endblock ChemicalSpeciesLabel
# Single point calculation
MD.TypeOfRun                CG
MD.Steps                    0
SCF.MustConverge            F # In case it does not. There can be 2 very close atoms
AtomicCoordinatesFormat NotScaledCartesianAng
%block AtomicCoordinatesAndAtomicSpecies
1.043624880    3.939228610    0.000000000       1
-3.040641290   1.071078170    0.000000000       2
2.054601450    1.213582070    0.000000000       2
0.999014100    -1.732643800   0.000000000       2
-2.132351640   -1.812968220   0.000000000       2
3.860190550    -1.112298180   0.000000000       2
-1.236183220   1.152964460    0.000000000       3
-0.532924260   -0.939006270   0.000000000       3
0.635660470    2.374516770    0.000000000       3
2.245170240    -0.549967100   0.000000000       3
-3.449816660   -0.583665030   0.000000000       3
2.963714090    1.790992630    0.000000000       4
-4.845591350   -1.123549660   0.000000000       4
4.007020910    -2.152308560   0.000000000       4
4.772194380    -0.502318160   0.000000000       4
-2.265399090   -2.864605110   0.000000000       4
5.679582964    5.405827488    0.000000000       3
7.584466934    6.612466428    0.000000000       3
7.088712794    2.639492518    0.000000000       3
9.166183084    5.108709678    0.000000000       3
5.739205634    3.688399918    0.000000000       2
4.140447904    6.159504798    0.000000000       2
8.741008054    3.369329738    0.000000000       2
7.775811734    8.104620178    0.000000000       4
10.650551064   5.327440498    0.000000000       4
4.029102624    7.208699908    0.000000000       4
3.207890194    5.534590618    0.000000000       4
7.078485964    1.031381398    0.000000000       1
9.516433934    2.642638178    0.000000000       4
%endblock AtomicCoordinatesAndAtomicSpecies
%include ../../../Defaults.fdf
************************** End of input data file *****************************

reinit: -----------------------------------------------------------------------
reinit: System Name: 
reinit: -----------------------------------------------------------------------
reinit: System Label: GC
reinit: -----------------------------------------------------------------------

initatom: Reading input for the pseudopotentials and atomic orbitals ----------
Species number:   1 Atomic number:    8 Label: O
Species number:   2 Atomic number:    7 Label: N
Species number:   3 Atomic number:   14 Label: Si
Species number:   4 Atomic number:    1 Label: H

Ground state valence configuration:   2s02  2p04
Reading pseudopotential information in formatted form from O.psf

Pseudopotential generated from a relativistic atomic calculation

Valence configuration for pseudopotential generation:
2s( 2.00) rc: 0.45
2p( 4.00) rc: 0.92
3d( 0.00) rc: 2.24
4f( 0.00) rc: 0.25
Ground state valence configuration:   2s02  2p03
Reading pseudopotential information in formatted form from N.psf

Pseudopotential generated from a relativistic atomic calculation

Valence configuration for pseudopotential generation:
2s( 2.00) rc: 0.94
2p( 3.00) rc: 0.59
3d( 0.00) rc: 3.46
4f( 0.00) rc: 2.47
Ground state valence configuration:   3s02  3p02
Reading pseudopotential information in formatted form from Si.psf

Pseudopotential generated from a relativistic atomic calculation

Valence configuration for pseudopotential generation:
3s( 2.00) rc: 1.67
3p( 2.00) rc: 2.04
3d( 0.00) rc: 2.89
4f( 0.00) rc: 2.49
Ground state valence configuration:   1s01
Reading pseudopotential information in formatted form from H.psf

Pseudopotential generated from a relativistic atomic calculation

Valence configuration for pseudopotential generation:
1s( 1.00) rc: 0.01
2p( 0.00) rc: 0.60
3d( 0.00) rc: 1.99
4f( 0.00) rc: 2.49
For O, standard SIESTA heuristics set lmxkb to 3
 (one more than the basis l, including polarization orbitals).
Use PS.lmax or PS.KBprojectors blocks to override.
For N, standard SIESTA heuristics set lmxkb to 3
 (one more than the basis l, including polarization orbitals).
Use PS.lmax or PS.KBprojectors blocks to override.
For Si, standard SIESTA heuristics set lmxkb to 3
 (one more than the basis l, including polarization orbitals).
Use PS.lmax or PS.KBprojectors blocks to override.
For H, standard SIESTA heuristics set lmxkb to 2
 (one more than the basis l, including polarization orbitals).
Use PS.lmax or PS.KBprojectors blocks to override.

<basis_specs>
===============================================================================
O                    Z=   8    Mass=  16.000        Charge= 0.17977+309
Lmxo=1 Lmxkb= 3    BasisType=split      Semic=F
L=0  Nsemic=0  Cnfigmx=2
          i=1  nzeta=2  polorb=0  (2s)
            splnorm:   0.28000    
               vcte:    0.0000    
               rinn:    0.0000    
               qcoe:    0.0000    
               qyuk:    0.0000    
               qwid:   0.10000E-01
                rcs:    0.0000      0.0000    
            lambdas:    1.0000      1.0000    
L=1  Nsemic=0  Cnfigmx=2
          i=1  nzeta=2  polorb=1  (2p)
            splnorm:   0.28000    
               vcte:    0.0000    
               rinn:    0.0000    
               qcoe:    0.0000    
               qyuk:    0.0000    
               qwid:   0.10000E-01
                rcs:    0.0000      0.0000    
            lambdas:    1.0000      1.0000    
-------------------------------------------------------------------------------
L=0  Nkbl=1  erefs: 0.17977+309
L=1  Nkbl=1  erefs: 0.17977+309
L=2  Nkbl=1  erefs: 0.17977+309
L=3  Nkbl=1  erefs: 0.17977+309
===============================================================================
</basis_specs>

atom: Called for O                     (Z =   8)

read_vps: Pseudopotential generation method:
read_vps: ATM4.2.7  Troullier-Martins                       
Valence charge for ps generation:    6.00000

xc_check: Exchange-correlation functional:
xc_check: GGA Perdew, Burke & Ernzerhof 1996
V l=0 = -2*Zval/r beyond r=  1.1000
V l=1 = -2*Zval/r beyond r=  1.1000
V l=2 = -2*Zval/r beyond r=  2.2154
V l=3 = -2*Zval/r beyond r=  1.1000
All V_l potentials equal beyond r=  2.2154
This should be close to max(r_c) in ps generation
All pots = -2*Zval/r beyond r=  2.2154

VLOCAL1: 99.0% of the norm of Vloc inside      8.845 Ry
VLOCAL1: 99.9% of the norm of Vloc inside     20.157 Ry
atom: Maximum radius for 4*pi*r*r*local-pseudopot. charge    2.67231
atom: Maximum radius for r*vlocal+2*Zval:    2.32897
GHOST: No ghost state for L =  0
GHOST: No ghost state for L =  1
GHOST: No ghost state for L =  2
GHOST: No ghost state for L =  3

KBgen: Kleinman-Bylander projectors: 
   l= 0   rc=  2.243238   el= -1.759686   Ekb=**********   kbcos= -0.171774
   l= 1   rc=  2.328968   el= -0.663873   Ekb=-14.506792   kbcos= -0.519897
   l= 2   rc=  2.573941   el=  0.002031   Ekb= -1.137373   kbcos= -0.019581
   l= 3   rc=  2.606321   el=  0.003153   Ekb= -1.013546   kbcos= -0.003122

KBgen: Total number of Kleinman-Bylander projectors:   16
atom: -------------------------------------------------------------------------

atom: SANKEY-TYPE ORBITALS:
atom: Selected multiple-zeta basis: split     

SPLIT: Orbitals with angular momentum L= 0

SPLIT: Basis orbitals for state 2s

SPLIT: PAO cut-off radius determined from an
SPLIT: energy shift=  0.002000 Ry

   izeta = 1
                 lambda =    1.000000
                     rc =    4.243912
                 energy =   -1.758270
                kinetic =    3.286084
    potential(screened) =   -5.044353
       potential(ionic) =  -12.921184

   izeta = 2
                 rmatch =    2.187845
              splitnorm =    0.280000
                 energy =   -0.885018
                kinetic =    8.134434
    potential(screened) =   -9.019452
       potential(ionic) =  -17.710645

SPLIT: Orbitals with angular momentum L= 1

SPLIT: Basis orbitals for state 2p

SPLIT: PAO cut-off radius determined from an
SPLIT: energy shift=  0.002000 Ry

   izeta = 1
                 lambda =    1.000000
                     rc =    5.314825
                 energy =   -0.661986
                kinetic =    4.917472
    potential(screened) =   -5.579458
       potential(ionic) =  -13.236259

   izeta = 2
                 rmatch =    2.160663
              splitnorm =    0.280000
                 energy =   -0.068760
                kinetic =    9.183374
    potential(screened) =   -9.252135
       potential(ionic) =  -18.274251

POLgen: Perturbative polarization orbital with L=  2

POLgen: Polarization orbital for state 2p

   izeta = 1
                     rc =    5.314825
                 energy =    1.970580
                kinetic =    3.886128
    potential(screened) =   -1.915547
       potential(ionic) =   -7.749584
atom: Total number of Sankey-type orbitals: 13

atm_pop: Valence configuration (for local Pseudopot. screening):
 2s( 2.00)                                                            
 2p( 4.00)                                                            
Vna: chval, zval:    6.00000   6.00000

Vna:  Cut-off radius for the neutral-atom potential:   5.314825

atom: _________________________________________________________________________

<basis_specs>
===============================================================================
N                    Z=   7    Mass=  14.010        Charge= 0.17977+309
Lmxo=1 Lmxkb= 3    BasisType=split      Semic=F
L=0  Nsemic=0  Cnfigmx=2
          i=1  nzeta=2  polorb=0  (2s)
            splnorm:   0.28000    
               vcte:    0.0000    
               rinn:    0.0000    
               qcoe:    0.0000    
               qyuk:    0.0000    
               qwid:   0.10000E-01
                rcs:    0.0000      0.0000    
            lambdas:    1.0000      1.0000    
L=1  Nsemic=0  Cnfigmx=2
          i=1  nzeta=2  polorb=1  (2p)
            splnorm:   0.28000    
               vcte:    0.0000    
               rinn:    0.0000    
               qcoe:    0.0000    
               qyuk:    0.0000    
               qwid:   0.10000E-01
                rcs:    0.0000      0.0000    
            lambdas:    1.0000      1.0000    
-------------------------------------------------------------------------------
L=0  Nkbl=1  erefs: 0.17977+309
L=1  Nkbl=1  erefs: 0.17977+309
L=2  Nkbl=1  erefs: 0.17977+309
L=3  Nkbl=1  erefs: 0.17977+309
===============================================================================
</basis_specs>

atom: Called for N                     (Z =   7)

read_vps: Pseudopotential generation method:
read_vps: ATM4.2.7  Troullier-Martins                       
Valence charge for ps generation:    5.00000

xc_check: Exchange-correlation functional:
xc_check: GGA Perdew, Burke & Ernzerhof 1996
V l=0 = -2*Zval/r beyond r=  1.2889
V l=1 = -2*Zval/r beyond r=  1.2889
V l=2 = -2*Zval/r beyond r=  3.4178
V l=3 = -2*Zval/r beyond r=  2.4084
All V_l potentials equal beyond r=  3.3753
This should be close to max(r_c) in ps generation
All pots = -2*Zval/r beyond r=  3.4178

VLOCAL1: 99.0% of the norm of Vloc inside      3.810 Ry
VLOCAL1: 99.9% of the norm of Vloc inside      8.683 Ry
atom: Maximum radius for 4*pi*r*r*local-pseudopot. charge    4.02088
atom: Maximum radius for r*vlocal+2*Zval:    3.54838
GHOST: No ghost state for L =  0
GHOST: No ghost state for L =  1
GHOST: No ghost state for L =  2
GHOST: No ghost state for L =  3

KBgen: Kleinman-Bylander projectors: 
   l= 0   rc=  3.417763   el= -1.365098   Ekb= -4.433130   kbcos= -0.707855
   l= 1   rc=  3.375302   el= -0.521201   Ekb=-13.264039   kbcos= -0.535594
   l= 2   rc=  3.872880   el=  0.001991   Ekb= -0.641094   kbcos= -0.062456
   l= 3   rc=  3.970931   el=  0.003093   Ekb= -0.474517   kbcos= -0.018236

KBgen: Total number of Kleinman-Bylander projectors:   16
atom: -------------------------------------------------------------------------

atom: SANKEY-TYPE ORBITALS:
atom: Selected multiple-zeta basis: split     

SPLIT: Orbitals with angular momentum L= 0

SPLIT: Basis orbitals for state 2s

SPLIT: PAO cut-off radius determined from an
SPLIT: energy shift=  0.002000 Ry

   izeta = 1
                 lambda =    1.000000
                     rc =    4.730425
                 energy =   -1.363399
                kinetic =    1.245246
    potential(screened) =   -2.608645
       potential(ionic) =   -8.121105

   izeta = 2
                 rmatch =    2.531849
              splitnorm =    0.280000
                 energy =   -0.959908
                kinetic =    2.409435
    potential(screened) =   -3.369343
       potential(ionic) =   -9.427975

SPLIT: Orbitals with angular momentum L= 1

SPLIT: Basis orbitals for state 2p

SPLIT: PAO cut-off radius determined from an
SPLIT: energy shift=  0.002000 Ry

   izeta = 1
                 lambda =    1.000000
                     rc =    5.924108
                 energy =   -0.519262
                kinetic =    3.672940
    potential(screened) =   -4.192202
       potential(ionic) =   -9.518354

   izeta = 2
                 rmatch =    2.531849
              splitnorm =    0.280000
                 energy =   -0.104258
                kinetic =    6.807538
    potential(screened) =   -6.911796
       potential(ionic) =  -13.149920

POLgen: Perturbative polarization orbital with L=  2

POLgen: Polarization orbital for state 2p

   izeta = 1
                     rc =    5.924108
                 energy =    1.427508
                kinetic =    2.872379
    potential(screened) =   -1.444871
       potential(ionic) =   -5.563644
atom: Total number of Sankey-type orbitals: 13

atm_pop: Valence configuration (for local Pseudopot. screening):
 2s( 2.00)                                                            
 2p( 3.00)                                                            
Vna: chval, zval:    5.00000   5.00000

Vna:  Cut-off radius for the neutral-atom potential:   5.924108

atom: _________________________________________________________________________

<basis_specs>
===============================================================================
Si                   Z=  14    Mass=  28.090        Charge= 0.17977+309
Lmxo=1 Lmxkb= 3    BasisType=split      Semic=F
L=0  Nsemic=0  Cnfigmx=3
          i=1  nzeta=2  polorb=0  (3s)
            splnorm:   0.28000    
               vcte:    0.0000    
               rinn:    0.0000    
               qcoe:    0.0000    
               qyuk:    0.0000    
               qwid:   0.10000E-01
                rcs:    0.0000      0.0000    
            lambdas:    1.0000      1.0000    
L=1  Nsemic=0  Cnfigmx=3
          i=1  nzeta=2  polorb=1  (3p)
            splnorm:   0.28000    
               vcte:    0.0000    
               rinn:    0.0000    
               qcoe:    0.0000    
               qyuk:    0.0000    
               qwid:   0.10000E-01
                rcs:    0.0000      0.0000    
            lambdas:    1.0000      1.0000    
-------------------------------------------------------------------------------
L=0  Nkbl=1  erefs: 0.17977+309
L=1  Nkbl=1  erefs: 0.17977+309
L=2  Nkbl=1  erefs: 0.17977+309
L=3  Nkbl=1  erefs: 0.17977+309
===============================================================================
</basis_specs>

atom: Called for Si                    (Z =  14)

read_vps: Pseudopotential generation method:
read_vps: ATM4.2.7  Troullier-Martins                       
Valence charge for ps generation:    4.00000

xc_check: Exchange-correlation functional:
xc_check: GGA Perdew, Burke & Ernzerhof 1996
V l=0 = -2*Zval/r beyond r=  2.7826
V l=1 = -2*Zval/r beyond r=  2.7826
V l=2 = -2*Zval/r beyond r=  2.9253
V l=3 = -2*Zval/r beyond r=  2.7826
All V_l potentials equal beyond r=  2.8530
This should be close to max(r_c) in ps generation
All pots = -2*Zval/r beyond r=  2.9253

VLOCAL1: 99.0% of the norm of Vloc inside      5.333 Ry
VLOCAL1: 99.9% of the norm of Vloc inside     12.154 Ry
atom: Maximum radius for 4*pi*r*r*local-pseudopot. charge    3.39869
atom: Maximum radius for r*vlocal+2*Zval:    2.96205
GHOST: No ghost state for L =  0
GHOST: No ghost state for L =  1
GHOST: No ghost state for L =  2
GHOST: No ghost state for L =  3

KBgen: Kleinman-Bylander projectors: 
   l= 0   rc=  3.075247   el= -0.794092   Ekb=  5.879390   kbcos=  0.167461
   l= 1   rc=  3.153101   el= -0.300068   Ekb=  2.642817   kbcos=  0.058301
   l= 2   rc=  3.273594   el=  0.001958   Ekb= -1.185135   kbcos= -0.104411
   l= 3   rc=  3.232927   el=  0.003046   Ekb= -0.497174   kbcos= -0.015889

KBgen: Total number of Kleinman-Bylander projectors:   16
atom: -------------------------------------------------------------------------

atom: SANKEY-TYPE ORBITALS:
atom: Selected multiple-zeta basis: split     

SPLIT: Orbitals with angular momentum L= 0

SPLIT: Basis orbitals for state 3s

SPLIT: PAO cut-off radius determined from an
SPLIT: energy shift=  0.002000 Ry

   izeta = 1
                 lambda =    1.000000
                     rc =    6.429618
                 energy =   -0.792283
                kinetic =    0.525293
    potential(screened) =   -1.317576
       potential(ionic) =   -3.744923

   izeta = 2
                 rmatch =    3.998416
              splitnorm =    0.280000
                 energy =   -0.583081
                kinetic =    1.069570
    potential(screened) =   -1.652651
       potential(ionic) =   -4.235185

SPLIT: Orbitals with angular momentum L= 1

SPLIT: Basis orbitals for state 3p

SPLIT: PAO cut-off radius determined from an
SPLIT: energy shift=  0.002000 Ry

   izeta = 1
                 lambda =    1.000000
                     rc =    8.464845
                 energy =   -0.298236
                kinetic =    0.785360
    potential(screened) =   -1.083596
       potential(ionic) =   -3.273779

   izeta = 2
                 rmatch =    4.587816
              splitnorm =    0.280000
                 energy =   -0.131871
                kinetic =    1.403687
    potential(screened) =   -1.535557
       potential(ionic) =   -4.015310

POLgen: Perturbative polarization orbital with L=  2

POLgen: Polarization orbital for state 3p

   izeta = 1
                     rc =    8.464845
                 energy =    0.321949
                kinetic =    1.055677
    potential(screened) =   -0.733728
       potential(ionic) =   -2.672950
atom: Total number of Sankey-type orbitals: 13

atm_pop: Valence configuration (for local Pseudopot. screening):
 3s( 2.00)                                                            
 3p( 2.00)                                                            
Vna: chval, zval:    4.00000   4.00000

Vna:  Cut-off radius for the neutral-atom potential:   8.464845

atom: _________________________________________________________________________

<basis_specs>
===============================================================================
H                    Z=   1    Mass=  1.0100        Charge= 0.17977+309
Lmxo=0 Lmxkb= 2    BasisType=split      Semic=F
L=0  Nsemic=0  Cnfigmx=1
          i=1  nzeta=2  polorb=1  (1s)
            splnorm:   0.62000    
               vcte:    0.0000    
               rinn:    0.0000    
               qcoe:    0.0000    
               qyuk:    0.0000    
               qwid:   0.10000E-01
                rcs:    0.0000      0.0000    
            lambdas:    1.0000      1.0000    
-------------------------------------------------------------------------------
L=0  Nkbl=1  erefs: 0.17977+309
L=1  Nkbl=1  erefs: 0.17977+309
L=2  Nkbl=1  erefs: 0.17977+309
===============================================================================
</basis_specs>

atom: Called for H                     (Z =   1)

read_vps: Pseudopotential generation method:
read_vps: ATM4.2.7  Troullier-Martins                       
Valence charge for ps generation:    1.00000

xc_check: Exchange-correlation functional:
xc_check: GGA Perdew, Burke & Ernzerhof 1996
V l=0 = -2*Zval/r beyond r=  0.0098
V l=1 = -2*Zval/r beyond r=  0.5817
V l=2 = -2*Zval/r beyond r=  1.9372
All V_l potentials equal beyond r=  1.9372
This should be close to max(r_c) in ps generation
All pots = -2*Zval/r beyond r=  1.9372

VLOCAL1: 99.0% of the norm of Vloc inside     11.567 Ry
VLOCAL1: 99.9% of the norm of Vloc inside     26.362 Ry
atom: Maximum radius for 4*pi*r*r*local-pseudopot. charge    2.25106
atom: Maximum radius for r*vlocal+2*Zval:    1.91306
GHOST: No ghost state for L =  0
GHOST: No ghost state for L =  1
GHOST: No ghost state for L =  2

KBgen: Kleinman-Bylander projectors: 
   l= 0   rc=  2.036604   el= -0.477180   Ekb= -6.081590   kbcos= -0.277285
   l= 1   rc=  2.195416   el=  0.001076   Ekb= -0.926943   kbcos= -0.034643
   l= 2   rc=  2.251056   el=  0.002010   Ekb= -0.130941   kbcos= -0.009788

KBgen: Total number of Kleinman-Bylander projectors:    9
atom: -------------------------------------------------------------------------

atom: SANKEY-TYPE ORBITALS:
atom: Selected multiple-zeta basis: split     

SPLIT: Orbitals with angular momentum L= 0

SPLIT: Basis orbitals for state 1s

SPLIT: PAO cut-off radius determined from an
SPLIT: energy shift=  0.002000 Ry

   izeta = 1
                 lambda =    1.000000
                     rc =    6.518340
                 energy =   -0.475305
                kinetic =    0.912139
    potential(screened) =   -1.387444
       potential(ionic) =   -1.907295

   izeta = 2
                 rmatch =    2.141150
              splitnorm =    0.620000
                 energy =    0.566467
                kinetic =    3.772856
    potential(screened) =   -3.206389
       potential(ionic) =   -3.759093

POLgen: Perturbative polarization orbital with L=  1

POLgen: Polarization orbital for state 1s

   izeta = 1
                     rc =    6.518340
                 energy =    0.533861
                kinetic =    1.121086
    potential(screened) =   -0.587225
       potential(ionic) =   -1.053027
atom: Total number of Sankey-type orbitals:  5

atm_pop: Valence configuration (for local Pseudopot. screening):
 1s( 1.00)                                                            
Vna: chval, zval:    1.00000   1.00000

Vna:  Cut-off radius for the neutral-atom potential:   6.518340

atom: _________________________________________________________________________

prinput: Basis input ----------------------------------------------------------

PAO.BasisType split     

%block ChemicalSpeciesLabel
    1    8 O                       # Species index, atomic number, species label
    2    7 N                       # Species index, atomic number, species label
    3   14 Si                      # Species index, atomic number, species label
    4    1 H                       # Species index, atomic number, species label
%endblock ChemicalSpeciesLabel

%block PAO.Basis                 # Define Basis set
O                     2                    # Species label, number of l-shells
 n=2   0   2                         # n, l, Nzeta 
   4.244      2.188   
   1.000      1.000   
 n=2   1   2 P   1                   # n, l, Nzeta, Polarization, NzetaPol
   5.315      2.161   
   1.000      1.000   
N                     2                    # Species label, number of l-shells
 n=2   0   2                         # n, l, Nzeta 
   4.730      2.532   
   1.000      1.000   
 n=2   1   2 P   1                   # n, l, Nzeta, Polarization, NzetaPol
   5.924      2.532   
   1.000      1.000   
Si                    2                    # Species label, number of l-shells
 n=3   0   2                         # n, l, Nzeta 
   6.430      3.998   
   1.000      1.000   
 n=3   1   2 P   1                   # n, l, Nzeta, Polarization, NzetaPol
   8.465      4.588   
   1.000      1.000   
H                     1                    # Species label, number of l-shells
 n=1   0   2 P   1                   # n, l, Nzeta, Polarization, NzetaPol
   6.518      2.141   
   1.000      1.000   
%endblock PAO.Basis

prinput: ----------------------------------------------------------------------

Dumping basis to NetCDF file O.ion.nc
Dumping basis to NetCDF file N.ion.nc
Dumping basis to NetCDF file Si.ion.nc
Dumping basis to NetCDF file H.ion.nc
coor:   Atomic-coordinates input format  =     Cartesian coordinates
coor:                                          (in Angstroms)

siesta: Atomic coordinates (Bohr) and species
siesta:      1.97217   7.44407   0.00000  1        1
siesta:     -5.74598   2.02405   0.00000  2        2
siesta:      3.88264   2.29334   0.00000  2        3
siesta:      1.88786  -3.27422   0.00000  2        4
siesta:     -4.02956  -3.42601   0.00000  2        5
siesta:      7.29471  -2.10194   0.00000  2        6
siesta:     -2.33605   2.17879   0.00000  3        7
siesta:     -1.00708  -1.77447   0.00000  3        8
siesta:      1.20122   4.48719   0.00000  3        9
siesta:      4.24276  -1.03929   0.00000  3       10
siesta:     -6.51921  -1.10297   0.00000  3       11
siesta:      5.60061   3.38449   0.00000  4       12
siesta:     -9.15684  -2.12320   0.00000  4       13
siesta:      7.57218  -4.06728   0.00000  4       14
siesta:      9.01814  -0.94924   0.00000  4       15
siesta:     -4.28099  -5.41332   0.00000  4       16
siesta:     10.73286  10.21554   0.00000  3       17
siesta:     14.33257  12.49576   0.00000  3       18
siesta:     13.39573   4.98792   0.00000  3       19
siesta:     17.32158   9.65407   0.00000  3       20
siesta:     10.84553   6.97007   0.00000  2       21
siesta:      7.82432  11.63978   0.00000  2       22
siesta:     16.51812   6.36711   0.00000  2       23
siesta:     14.69416  15.31552   0.00000  4       24
siesta:     20.12663  10.06741   0.00000  4       25
siesta:      7.61390  13.62247   0.00000  4       26
siesta:      6.06204  10.45886   0.00000  4       27
siesta:     13.37641   1.94903   0.00000  1       28
siesta:     17.98346   4.99386   0.00000  4       29

siesta: Automatic unit cell vectors (Ang):
siesta:   24.634339    0.000000    0.000000
siesta:    0.000000   19.654731    0.000000
siesta:    0.000000    0.000000    9.854683

siesta: System type = molecule  

initatomlists: Number of atoms, orbitals, and projectors:     29   297   394

siesta: ******************** Simulation parameters ****************************
siesta:
siesta: The following are some of the parameters of the simulation.
siesta: A complete list of the parameters used, including default values,
siesta: can be found in file out.fdf
siesta:
redata: Spin configuration                          = spin-orbit
redata: Number of spin components                   = 8
redata: Time-Reversal Symmetry                      = F
redata: Spin spiral                                 = F
############################################################
This spin-orbit implementation uses a local approximation.
From 4.2 and onwards the full non-local approximation is implemented
You are strongly advised to use >=4.2 versions!
############################################################
redata: Long output                                 =   F
redata: Number of Atomic Species                    =        4
redata: Charge density info will appear in .RHO file
redata: Write Mulliken Pop.                         = Atomic and Orbital charges
redata: Matel table size (NRTAB)                    =     1024
redata: Mesh Cutoff                                 =   340.0000 Ry
redata: Net charge of the system                    =     0.0000 |e|
redata: Min. number of SCF Iter                     =        1
redata: Max. number of SCF Iter                     =      200
redata: SCF mix quantity                            = Hamiltonian
redata: Mix DM or H after convergence               =   F
redata: Recompute H after scf cycle                 =   F
redata: Mix DM in first SCF step                    =   T
redata: Write Pulay info on disk                    =   F
redata: New DM Occupancy tolerance                  = 0.000000000001
redata: No kicks to SCF
redata: DM Mixing Weight for Kicks                  =     0.5000
redata: Require Harris convergence for SCF          =   F
redata: Harris energy tolerance for SCF             =     0.000100 eV
redata: Require DM convergence for SCF              =   T
redata: DM tolerance for SCF                        =     0.000008
redata: Require EDM convergence for SCF             =   F
redata: EDM tolerance for SCF                       =     0.001000 eV
redata: Require H convergence for SCF               =   T
redata: Hamiltonian tolerance for SCF               =     0.000001 eV
redata: Require (free) Energy convergence for SCF   =   F
redata: (free) Energy tolerance for SCF             =     0.000100 eV
redata: Using Saved Data (generic)                  =   F
redata: Use continuation files for DM               =   F
redata: Neglect nonoverlap interactions             =   F
redata: Method of Calculation                       = Diagonalization
redata: Electronic Temperature                      =   299.9978 K
redata: Fix the spin of the system                  =   F
redata: Dynamics option                             = Single-point calculation
mix.SCF: Pulay mixing                            = Pulay
mix.SCF:    Variant                              = stable
mix.SCF:    History steps                        = 6
mix.SCF:    Linear mixing weight                 =     0.250000
mix.SCF:    Mixing weight                        =     0.250000
mix.SCF:    SVD condition                        = 0.1000E-07
mix.SCF:    Restart steps                        = 24
mix.SCF:    Restart save steps                   = 3
mix.SCF: Spin-component mixing                   all
redata: Save all siesta data in one NC              =   F
redata: ***********************************************************************

%block SCF.Mixers
  Pulay
%endblock SCF.Mixers

%block SCF.Mixer.Pulay
  # Mixing method
  method pulay
  variant stable

  # Mixing options
  weight 0.2500
  weight.linear 0.2500
  history 6
  restart 24
  restart.save 3
%endblock SCF.Mixer.Pulay

DM_history_depth set to one: no extrapolation allowed by default for geometry relaxation
Size of DM history Fstack: 1
Total number of electrons:    98.000000
Total ionic charge:    98.000000

* ProcessorY, Blocksize:    2  24


* Orbital distribution balance (max,min):    81    72


Time-reversal symmetry not used.

siesta: k-grid: Number of k-points =     1
siesta: k-grid: Cutoff (effective) =     4.927 Ang
siesta: k-grid: Supercell and displacements
siesta: k-grid:    1   0   0      0.000
siesta: k-grid:    0   1   0      0.000
siesta: k-grid:    0   0   1      0.000

diag: Algorithm                                     = ELPA-1stage
diag: Parallel over k                               =   F
diag: Use parallel 2D distribution                  =   T
diag: Parallel block-size                           = 24
diag: Parallel distribution                         =     2 x     2
diag: Used triangular part                          = Lower
diag: Absolute tolerance                            =  0.100E-15
diag: Orthogonalization factor                      =  0.100E-05
diag: Memory factor                                 =  1.0000


ts: **************************************************************
ts: Save H and S matrices                           =    F
ts: Save DM and EDM matrices                        =    F
ts: Only save the overlap matrix S                  =    F
ts: **************************************************************

************************ Begin: TS CHECKS AND WARNINGS ************************
************************ End: TS CHECKS AND WARNINGS **************************


                     ====================================
                        Single-point calculation
                     ====================================

outcoor: Atomic coordinates (Ang):                          
    1.04362488    3.93922861    0.00000000   1       1  O
   -3.04064129    1.07107817    0.00000000   2       2  N
    2.05460145    1.21358207    0.00000000   2       3  N
    0.99901410   -1.73264380    0.00000000   2       4  N
   -2.13235164   -1.81296822    0.00000000   2       5  N
    3.86019055   -1.11229818    0.00000000   2       6  N
   -1.23618322    1.15296446    0.00000000   3       7  Si
   -0.53292426   -0.93900627    0.00000000   3       8  Si
    0.63566047    2.37451677    0.00000000   3       9  Si
    2.24517024   -0.54996710    0.00000000   3      10  Si
   -3.44981666   -0.58366503    0.00000000   3      11  Si
    2.96371409    1.79099263    0.00000000   4      12  H
   -4.84559135   -1.12354966    0.00000000   4      13  H
    4.00702091   -2.15230856    0.00000000   4      14  H
    4.77219438   -0.50231816    0.00000000   4      15  H
   -2.26539909   -2.86460511    0.00000000   4      16  H
    5.67958296    5.40582749    0.00000000   3      17  Si
    7.58446693    6.61246643    0.00000000   3      18  Si
    7.08871279    2.63949252    0.00000000   3      19  Si
    9.16618308    5.10870968    0.00000000   3      20  Si
    5.73920563    3.68839992    0.00000000   2      21  N
    4.14044790    6.15950480    0.00000000   2      22  N
    8.74100805    3.36932974    0.00000000   2      23  N
    7.77581173    8.10462018    0.00000000   4      24  H
   10.65055106    5.32744050    0.00000000   4      25  H
    4.02910262    7.20869991    0.00000000   4      26  H
    3.20789019    5.53459062    0.00000000   4      27  H
    7.07848596    1.03138140    0.00000000   1      28  O
    9.51643393    2.64263818    0.00000000   4      29  H

outcell: Unit cell vectors (Ang):
       24.634339    0.000000    0.000000
        0.000000   19.654731    0.000000
        0.000000    0.000000    9.854683

outcell: Cell vector modules (Ang)   :   24.634339   19.654731    9.854683
outcell: Cell angles (23,13,12) (deg):     90.0000     90.0000     90.0000
outcell: Cell volume (Ang**3)        :   4771.4534
<dSpData1D:S at geom step 0
  <sparsity:sparsity for geom step 0
    nrows_g=297 nrows=81 sparsity=.2068 nnzs=18238, refcount: 8>
  <dData1D:(new from dSpData1D) n=18238, refcount: 1>
refcount: 1>
new_DM -- step:     1
Initializing Density Matrix...
DM filled with atomic data:
<dSpData2D:DM initialized from atoms
  <sparsity:sparsity for geom step 0
    nrows_g=297 nrows=81 sparsity=.2068 nnzs=18238, refcount: 9>
  <dData2D:DM n=18238 m=8, refcount: 1>
refcount: 1>
     spin moment: S , {S} =   56.00000   0.00000   0.00000  56.00000
No. of atoms with KB's overlaping orbs in proc 0. Max # of overlaps:      29     176

Initializing spin-orbit part of the Hamiltonian
  Adding spin-orbit effects for O 
  Adding spin-orbit effects for N 
  Adding spin-orbit effects for Si
  Adding spin-orbit effects for H 


New grid distribution:   1
           1       1:  144    1:   60    1:   30
           2       1:  144    1:   60   31:   60
           3       1:  144   61:  120    1:   30
           4       1:  144   61:  120   31:   60

InitMesh: MESH =   288 x   240 x   120 =     8294400
InitMesh: (bp) =   144 x   120 x    60 =     1036800
InitMesh: Mesh cutoff (required, used) =   340.000   377.750 Ry
ExtMesh (bp) on 0 =   252 x   172 x   142 =     6154848
New grid distribution:   2
           1      40:  144    1:   29    1:   60
           2       1:   39    1:   28    1:   60
           3      40:  144   30:  120    1:   60
           4       1:   39   29:  120    1:   60
New grid distribution:   3
           1      48:  144    1:   35    1:   60
           2       1:   47    1:   40    1:   60
           3      48:  144   36:  120    1:   60
           4       1:   47   41:  120    1:   60
Setting up quadratic distribution...
ExtMesh (bp) on 0 =   213 x   141 x   172 =     5165676
PhiOnMesh: Number of (b)points on node 0 =               182700
PhiOnMesh: nlist on node 0 =              2782933

stepf: Fermi-Dirac step function

siesta: Program's energy decomposition (eV):
siesta: Ebs     =      -615.814519
siesta: Eions   =      3585.165840
siesta: Ena     =       381.985020
siesta: Ekin    =      3365.514706
siesta: Enl     =     -3294.587821
siesta: Eso     =        -0.003421
siesta: Edftu   =         0.000000
siesta: DEna    =       153.292577
siesta: DUscf   =        79.932463
siesta: DUext   =         0.000000
siesta: Exc     =     -1203.240011
siesta: eta*DQ  =         0.000000
siesta: Emadel  =         0.000000
siesta: Emeta   =         0.000000
siesta: Emolmec =         0.000000
siesta: Ekinion =         0.000000
siesta: Eharris =     -4025.782149
siesta: Etot    =     -4102.272325
siesta: FreeEng =     -4102.273720

        iscf     Eharris(eV)        E_KS(eV)     FreeEng(eV)     dDmax    Ef(eV) dHmax(eV)
   scf:    1    -4025.782149    -4102.272325    -4102.273720  0.962651 -4.905125 21.388326
     spin moment: S , {S} =    2.00718   0.00000   0.00000   2.00718
timer: Routine,Calls,Time,% = IterSCF        1      13.924  19.00
   scf:    2    -4148.990534    -4137.373163    -4137.374724  0.457631 -4.209758 11.398141
     spin moment: S , {S} =    1.99082   0.00000   0.00000   1.99082
   scf:    3    -4110.665091    -4134.863573    -4134.878682  0.426324 -4.288912 11.471353
     spin moment: S , {S} =    2.00038  -0.00000   0.00000   2.00038
   scf:    4    -4150.349621    -4145.696168    -4145.696168  0.309288 -3.898359  6.308793
     spin moment: S , {S} =    0.00009  -0.00000   0.00000   0.00009
   scf:    5    -4146.864842    -4146.372411    -4146.372411  0.035621 -3.692935  4.345911
     spin moment: S , {S} =    0.00006   0.00000   0.00000   0.00006
   scf:    6    -4147.121141    -4146.752784    -4146.752784  0.024747 -3.649572  2.118697
     spin moment: S , {S} =    0.00003  -0.00000   0.00000   0.00003
   scf:    7    -4147.095031    -4146.921045    -4146.921045  0.021297 -3.806754  0.886814
     spin moment: S , {S} =    0.00001   0.00000  -0.00000   0.00001
   scf:    8    -4147.041055    -4146.979104    -4146.979104  0.012617 -3.746833  0.488403
     spin moment: S , {S} =    0.00000   0.00000   0.00000   0.00000
   scf:    9    -4147.017669    -4146.997732    -4146.997732  0.006652 -3.777167  0.350699
     spin moment: S , {S} =    0.00000   0.00000  -0.00000   0.00000
   scf:   10    -4147.048560    -4147.018104    -4147.018104  0.019749 -3.796416  0.180076
     spin moment: S , {S} =    0.00000   0.00000  -0.00000  -0.00000
   scf:   11    -4147.021059    -4147.019546    -4147.019546  0.005025 -3.787746  0.053206
     spin moment: S , {S} =    0.00000   0.00000  -0.00000  -0.00000
   scf:   12    -4147.020332    -4147.019949    -4147.019949  0.001358 -3.783393  0.025192
     spin moment: S , {S} =    0.00000   0.00000  -0.00000   0.00000
   scf:   13    -4147.020338    -4147.020137    -4147.020137  0.001490 -3.781431  0.018676
     spin moment: S , {S} =    0.00000   0.00000   0.00000   0.00000
   scf:   14    -4147.020392    -4147.020256    -4147.020256  0.001444 -3.780928  0.014607
     spin moment: S , {S} =    0.00000   0.00000   0.00000   0.00000
   scf:   15    -4147.020425    -4147.020332    -4147.020332  0.001429 -3.780378  0.010326
     spin moment: S , {S} =    0.00000   0.00000   0.00000   0.00000
   scf:   16    -4147.020449    -4147.020381    -4147.020381  0.001519 -3.780375  0.005800
     spin moment: S , {S} =    0.00000   0.00000   0.00000   0.00000
   scf:   17    -4147.020411    -4147.020393    -4147.020393  0.000791 -3.780332  0.003582
     spin moment: S , {S} =    0.00000   0.00000   0.00000   0.00000
   scf:   18    -4147.020403    -4147.020397    -4147.020397  0.000452 -3.780376  0.001669
     spin moment: S , {S} =    0.00000   0.00000   0.00000   0.00000
   scf:   19    -4147.020400    -4147.020398    -4147.020398  0.000228 -3.780415  0.000841
     spin moment: S , {S} =    0.00000   0.00000   0.00000   0.00000
   scf:   20    -4147.020399    -4147.020399    -4147.020399  0.000082 -3.780411  0.000500
     spin moment: S , {S} =    0.00000   0.00000   0.00000   0.00000
   scf:   21    -4147.020399    -4147.020399    -4147.020399  0.000079 -3.780422  0.000245
     spin moment: S , {S} =    0.00000   0.00000   0.00000   0.00000
   scf:   22    -4147.020399    -4147.020399    -4147.020399  0.000019 -3.780420  0.000085
     spin moment: S , {S} =    0.00000   0.00000   0.00000   0.00000
   scf:   23    -4147.020399    -4147.020399    -4147.020399  0.000006 -3.780422  0.000057
     spin moment: S , {S} =    0.00000   0.00000   0.00000  -0.00000
   scf:   24    -4147.020399    -4147.020399    -4147.020399  0.000002 -3.780423  0.000058
     spin moment: S , {S} =    0.00000   0.00000   0.00000  -0.00000
mix: Pulay -- resetting history
   scf:   25    -4147.020399    -4147.020399    -4147.020399  0.000005 -3.780423  0.000036
     spin moment: S , {S} =    0.00000   0.00000   0.00000  -0.00000
   scf:   26    -4147.020399    -4147.020399    -4147.020399  0.000004 -3.780423  0.000020
     spin moment: S , {S} =    0.00000   0.00000   0.00000  -0.00000
   scf:   27    -4147.020399    -4147.020399    -4147.020399  0.000004 -3.780421  0.000006
     spin moment: S , {S} =    0.00000   0.00000   0.00000   0.00000
   scf:   28    -4147.020399    -4147.020399    -4147.020399  0.000000 -3.780421  0.000004
     spin moment: S , {S} =    0.00000   0.00000   0.00000   0.00000
   scf:   29    -4147.020399    -4147.020399    -4147.020399  0.000000 -3.780420  0.000002
     spin moment: S , {S} =    0.00000   0.00000   0.00000   0.00000
   scf:   30    -4147.020399    -4147.020399    -4147.020399  0.000000 -3.780420  0.000001
     spin moment: S , {S} =    0.00000   0.00000   0.00000   0.00000
   scf:   31    -4147.020399    -4147.020399    -4147.020399  0.000000 -3.780420  0.000001
     spin moment: S , {S} =    0.00000   0.00000   0.00000   0.00000

SCF Convergence by DM+H criterion
max |DM_out - DM_in|         :     0.0000001333
max |H_out - H_in|      (eV) :     0.0000006877
SCF cycle converged after 31 iterations

Using DM_out to compute the final energy and forces
No. of atoms with KB's overlaping orbs in proc 0. Max # of overlaps:      29     176

siesta: E_KS(eV) =            -4147.0204

siesta: E_KS - E_eggbox =     -4147.0204
     spin moment: S , {S} =    0.00000   0.00000   0.00000   0.00000

siesta: Atomic forces (eV/Ang):
     1   -1.926680   -1.760259    0.000000
     2   -0.016205    0.029340    0.000000
     3    0.607958   -0.270712    0.000000
     4    0.536851   -0.011944   -0.000000
     5    0.049349   -0.094901    0.000000
     6    1.589035    0.659520    0.000000
     7    0.033448   -0.194724    0.000000
     8   -0.298889    0.214644    0.000000
     9   -0.089918    0.968488   -0.000000
    10   -0.716118    0.304115   -0.000000
    11   -0.015722   -0.015745   -0.000000
    12   -0.207145   -0.201717    0.000000
    13   -0.009639   -0.025713    0.000000
    14    0.215711   -0.016047   -0.000000
    15   -0.979363   -0.646564   -0.000000
    16   -0.047991    0.132753   -0.000000
    17    0.725519   -0.873309   -0.000000
    18   -0.164198    0.154574   -0.000000
    19   -0.181816   -0.889989   -0.000000
    20   -0.020719   -0.311265   -0.000000
    21   -0.179866    0.768768    0.000000
    22   -1.967240   -0.920886   -0.000000
    23    0.195919    0.380443   -0.000000
    24    0.233303    0.001786    0.000000
    25    0.079988   -0.010800   -0.000000
    26   -0.367145   -0.217363    0.000000
    27    1.343491    1.167917    0.000000
    28    3.275563    1.005806    0.000000
    29   -0.087509    0.071996    0.000000
----------------------------------------
   Tot    1.609974   -0.601788    0.000000
----------------------------------------
   Max    3.275563
   Res    0.649683    sqrt( Sum f_i^2 / 3N )
----------------------------------------
   Max    3.275563    constrained

Stress tensor Voigt[x,y,z,yz,xz,xy] (kbar):        0.57        1.80       -0.10        0.00        0.00        1.64
(Free)E + p*V (eV/cell)    -4149.2731
Target enthalpy (eV/cell)    -4147.0204

mulliken: Atomic and Orbital Populations:

Species: O                   

Atom      Orb        Charge      Spin       Svec
----------------------------------------------------------------
    1  1 2s         1.74976   0.00000      0.000  -0.000  -0.000
    1  2 2s         0.06230   0.00000     -0.000   0.000   0.000
    1  3 2py        1.43294   0.00000      0.000  -0.000  -0.000
    1  4 2pz        1.56596   0.00000     -0.000  -0.000  -0.000
    1  5 2px        1.63366   0.00000     -0.000  -0.000  -0.000
    1  6 2py        0.03864   0.00000     -0.000   0.000   0.000
    1  7 2pz       -0.01022   0.00000      0.000   0.000  -0.000
    1  8 2px        0.00058   0.00000      0.000   0.000  -0.000
    1  9 3Pdxy      0.00647   0.00000     -0.000   0.000   0.000
    1 10 3Pdyz      0.00854   0.00000     -0.000  -0.000   0.000
    1 11 3Pdz2      0.00140   0.00000     -0.000  -0.000  -0.000
    1 12 3Pdxz      0.00029   0.00000     -0.000   0.000   0.000
    1 13 3Pdx2-y2   0.00657   0.00000     -0.000  -0.000   0.000
    1     Total     6.49687   0.00000      0.000  -0.000  -0.000

   28  1 2s         1.74893   0.00000     -0.000   0.000   0.000
   28  2 2s         0.06274   0.00000      0.000  -0.000  -0.000
   28  3 2py        1.41499   0.00000     -0.000   0.000  -0.000
   28  4 2pz        1.56364   0.00000      0.000   0.000  -0.000
   28  5 2px        1.64978   0.00000      0.000  -0.000  -0.000
   28  6 2py        0.04154   0.00000     -0.000   0.000   0.000
   28  7 2pz       -0.00858   0.00000     -0.000   0.000   0.000
   28  8 2px        0.00462   0.00000      0.000   0.000  -0.000
   28  9 3Pdxy      0.00617   0.00000      0.000  -0.000  -0.000
   28 10 3Pdyz      0.00936   0.00000     -0.000  -0.000   0.000
   28 11 3Pdz2      0.00112   0.00000      0.000   0.000   0.000
   28 12 3Pdxz     -0.00018   0.00000     -0.000  -0.000  -0.000
   28 13 3Pdx2-y2   0.00752   0.00000      0.000   0.000  -0.000
   28     Total     6.50166   0.00000      0.000   0.000  -0.000

----------------------------------------------------------------
Total              12.99852   0.00000      0.000   0.000  -0.000


Species: N                   

Atom      Orb        Charge      Spin       Svec
----------------------------------------------------------------
    2  1 2s         1.55002   0.00000      0.000   0.000  -0.000
    2  2 2s         0.08458   0.00000     -0.000  -0.000  -0.000
    2  3 2py        1.04432   0.00000      0.000  -0.000  -0.000
    2  4 2pz        1.22446   0.00000     -0.000  -0.000  -0.000
    2  5 2px        0.99165   0.00000     -0.000   0.000  -0.000
    2  6 2py        0.18817   0.00000     -0.000   0.000   0.000
    2  7 2pz        0.05525   0.00000      0.000   0.000   0.000
    2  8 2px        0.19546   0.00000      0.000   0.000   0.000
    2  9 3Pdxy      0.00836   0.00000      0.000   0.000   0.000
    2 10 3Pdyz      0.01097   0.00000     -0.000   0.000   0.000
    2 11 3Pdz2      0.00193   0.00000     -0.000  -0.000   0.000
    2 12 3Pdxz      0.00759   0.00000     -0.000  -0.000   0.000
    2 13 3Pdx2-y2   0.00907   0.00000     -0.000  -0.000  -0.000
    2     Total     5.37183   0.00000      0.000   0.000  -0.000

    3  1 2s         1.39326   0.00000     -0.000   0.000  -0.000
    3  2 2s         0.11974   0.00000      0.000  -0.000   0.000
    3  3 2py        0.94105   0.00000      0.000   0.000  -0.000
    3  4 2pz        1.54429   0.00000      0.000  -0.000  -0.000
    3  5 2px        1.08475   0.00000     -0.000   0.000  -0.000
    3  6 2py        0.24961   0.00000     -0.000  -0.000   0.000
    3  7 2pz        0.00599   0.00000     -0.000   0.000   0.000
    3  8 2px        0.17841   0.00000     -0.000  -0.000   0.000
    3  9 3Pdxy      0.00386   0.00000      0.000  -0.000   0.000
    3 10 3Pdyz      0.00404   0.00000      0.000   0.000   0.000
    3 11 3Pdz2      0.00069   0.00000     -0.000   0.000   0.000
    3 12 3Pdxz      0.00272   0.00000     -0.000  -0.000  -0.000
    3 13 3Pdx2-y2   0.00265   0.00000      0.000   0.000  -0.000
    3     Total     5.53107   0.00000      0.000   0.000  -0.000

    4  1 2s         1.46075   0.00000      0.000   0.000  -0.000
    4  2 2s         0.11870   0.00000     -0.000  -0.000   0.000
    4  3 2py        1.12939   0.00000     -0.000  -0.000  -0.000
    4  4 2pz        1.29504   0.00000      0.000  -0.000  -0.000
    4  5 2px        0.82631   0.00000      0.000  -0.000  -0.000
    4  6 2py        0.14995   0.00000      0.000   0.000   0.000
    4  7 2pz        0.05318   0.00000     -0.000   0.000   0.000
    4  8 2px        0.29243   0.00000      0.000   0.000   0.000
    4  9 3Pdxy      0.00871   0.00000      0.000  -0.000  -0.000
    4 10 3Pdyz      0.01045   0.00000     -0.000  -0.000   0.000
    4 11 3Pdz2      0.00125   0.00000      0.000  -0.000   0.000
    4 12 3Pdxz      0.00488   0.00000     -0.000   0.000   0.000
    4 13 3Pdx2-y2   0.00799   0.00000     -0.000  -0.000   0.000
    4     Total     5.35903   0.00000      0.000  -0.000  -0.000

    5  1 2s         1.37602   0.00000      0.000   0.000  -0.000
    5  2 2s         0.12807   0.00000     -0.000  -0.000   0.000
    5  3 2py        1.02648   0.00000      0.000  -0.000  -0.000
    5  4 2pz        1.50089   0.00000      0.000  -0.000  -0.000
    5  5 2px        1.05994   0.00000     -0.000   0.000  -0.000
    5  6 2py        0.20363   0.00000     -0.000   0.000   0.000
    5  7 2pz        0.01335   0.00000     -0.000   0.000   0.000
    5  8 2px        0.20124   0.00000      0.000  -0.000   0.000
    5  9 3Pdxy      0.00391   0.00000      0.000   0.000   0.000
    5 10 3Pdyz      0.00242   0.00000      0.000   0.000   0.000
    5 11 3Pdz2      0.00143   0.00000     -0.000   0.000   0.000
    5 12 3Pdxz      0.00677   0.00000      0.000   0.000   0.000
    5 13 3Pdx2-y2   0.00560   0.00000      0.000   0.000   0.000
    5     Total     5.52976   0.00000      0.000  -0.000  -0.000

    6  1 2s         1.26572   0.00000      0.000  -0.000  -0.000
    6  2 2s         0.18120   0.00000     -0.000   0.000   0.000
    6  3 2py        1.07819   0.00000     -0.000  -0.000  -0.000
    6  4 2pz        1.56072   0.00000      0.000  -0.000  -0.000
    6  5 2px        0.96532   0.00000     -0.000  -0.000  -0.000
    6  6 2py        0.18868   0.00000      0.000   0.000   0.000
    6  7 2pz        0.03051   0.00000     -0.000   0.000   0.000
    6  8 2px        0.25446   0.00000      0.000   0.000   0.000
    6  9 3Pdxy      0.00217   0.00000     -0.000   0.000  -0.000
    6 10 3Pdyz      0.00011   0.00000     -0.000   0.000  -0.000
    6 11 3Pdz2      0.00165   0.00000      0.000  -0.000   0.000
    6 12 3Pdxz      0.00340   0.00000     -0.000  -0.000   0.000
    6 13 3Pdx2-y2   0.00403   0.00000      0.000   0.000   0.000
    6     Total     5.53615   0.00000     -0.000  -0.000  -0.000

   21  1 2s         1.41812   0.00000      0.000   0.000   0.000
   21  2 2s         0.13006   0.00000     -0.000  -0.000  -0.000
   21  3 2py        0.87432   0.00000     -0.000   0.000  -0.000
   21  4 2pz        1.30218   0.00000     -0.000   0.000  -0.000
   21  5 2px        1.16254   0.00000     -0.000   0.000  -0.000
   21  6 2py        0.27508   0.00000     -0.000  -0.000   0.000
   21  7 2pz        0.04749   0.00000      0.000  -0.000   0.000
   21  8 2px        0.16007   0.00000     -0.000  -0.000   0.000
   21  9 3Pdxy      0.00623   0.00000     -0.000  -0.000   0.000
   21 10 3Pdyz      0.00483   0.00000      0.000  -0.000  -0.000
   21 11 3Pdz2      0.00008   0.00000      0.000   0.000  -0.000
   21 12 3Pdxz      0.00581   0.00000      0.000  -0.000  -0.000
   21 13 3Pdx2-y2   0.00571   0.00000     -0.000  -0.000  -0.000
   21     Total     5.39251   0.00000     -0.000   0.000  -0.000

   22  1 2s         1.28914   0.00000      0.000  -0.000   0.000
   22  2 2s         0.17074   0.00000     -0.000   0.000  -0.000
   22  3 2py        1.06013   0.00000      0.000  -0.000  -0.000
   22  4 2pz        1.53922   0.00000     -0.000  -0.000  -0.000
   22  5 2px        0.99634   0.00000      0.000  -0.000  -0.000
   22  6 2py        0.19671   0.00000     -0.000  -0.000   0.000
   22  7 2pz        0.02912   0.00000      0.000   0.000   0.000
   22  8 2px        0.23296   0.00000     -0.000   0.000   0.000
   22  9 3Pdxy      0.00306   0.00000     -0.000   0.000   0.000
   22 10 3Pdyz      0.00030   0.00000     -0.000  -0.000  -0.000
   22 11 3Pdz2      0.00243   0.00000     -0.000   0.000   0.000
   22 12 3Pdxz      0.00337   0.00000      0.000  -0.000   0.000
   22 13 3Pdx2-y2   0.00469   0.00000     -0.000   0.000  -0.000
   22     Total     5.52819   0.00000      0.000  -0.000  -0.000

   23  1 2s         1.38989   0.00000      0.000   0.000   0.000
   23  2 2s         0.12140   0.00000     -0.000  -0.000  -0.000
   23  3 2py        1.00805   0.00000      0.000   0.000  -0.000
   23  4 2pz        1.52943   0.00000      0.000   0.000  -0.000
   23  5 2px        1.06196   0.00000     -0.000  -0.000  -0.000
   23  6 2py        0.21189   0.00000     -0.000  -0.000  -0.000
   23  7 2pz        0.00458   0.00000     -0.000  -0.000  -0.000
   23  8 2px        0.19853   0.00000      0.000   0.000   0.000
   23  9 3Pdxy      0.00530   0.00000      0.000  -0.000   0.000
   23 10 3Pdyz      0.00447   0.00000     -0.000  -0.000  -0.000
   23 11 3Pdz2      0.00072   0.00000     -0.000   0.000   0.000
   23 12 3Pdxz      0.00245   0.00000      0.000  -0.000  -0.000
   23 13 3Pdx2-y2   0.00140   0.00000     -0.000  -0.000  -0.000
   23     Total     5.54007   0.00000      0.000   0.000  -0.000

----------------------------------------------------------------
Total              56.78714   0.00000      0.000   0.000  -0.000


Species: Si                  

Atom      Orb        Charge      Spin       Svec
----------------------------------------------------------------
    7  1 3s         0.66721   0.00000     -0.000   0.000   0.000
    7  2 3s         0.36478   0.00000      0.000  -0.000   0.000
    7  3 3py        0.48079   0.00000     -0.000  -0.000   0.000
    7  4 3pz        0.69585   0.00000     -0.000  -0.000  -0.000
    7  5 3px        0.12291   0.00000      0.000   0.000   0.000
    7  6 3py        0.26921   0.00000      0.000   0.000   0.000
    7  7 3pz        0.25946   0.00000      0.000  -0.000   0.000
    7  8 3px        0.43924   0.00000     -0.000  -0.000  -0.000
    7  9 3Pdxy      0.24555   0.00000     -0.000  -0.000   0.000
    7 10 3Pdyz      0.02898   0.00000      0.000   0.000   0.000
    7 11 3Pdz2      0.01161   0.00000     -0.000   0.000   0.000
    7 12 3Pdxz      0.14568   0.00000      0.000   0.000  -0.000
    7 13 3Pdx2-y2   0.11298   0.00000     -0.000   0.000   0.000
    7     Total     3.84426   0.00000     -0.000  -0.000   0.000

    8  1 3s         0.65599   0.00000      0.000  -0.000   0.000
    8  2 3s         0.36858   0.00000      0.000   0.000   0.000
    8  3 3py        0.38962   0.00000      0.000  -0.000   0.000
    8  4 3pz        0.51776   0.00000     -0.000   0.000   0.000
    8  5 3px       -0.02838   0.00000      0.000  -0.000  -0.000
    8  6 3py        0.30808   0.00000     -0.000  -0.000   0.000
    8  7 3pz        0.20329   0.00000     -0.000  -0.000   0.000
    8  8 3px        0.51482   0.00000     -0.000  -0.000   0.000
    8  9 3Pdxy      0.24700   0.00000     -0.000  -0.000   0.000
    8 10 3Pdyz      0.11228   0.00000     -0.000  -0.000  -0.000
    8 11 3Pdz2      0.01416   0.00000      0.000   0.000   0.000
    8 12 3Pdxz      0.15464   0.00000     -0.000   0.000   0.000
    8 13 3Pdx2-y2   0.20094   0.00000     -0.000   0.000   0.000
    8     Total     3.65878   0.00000     -0.000   0.000   0.000

    9  1 3s         0.60228   0.00000      0.000  -0.000   0.000
    9  2 3s         0.36824   0.00000     -0.000   0.000   0.000
    9  3 3py        0.08450   0.00000     -0.000  -0.000   0.000
    9  4 3pz        0.48357   0.00000      0.000  -0.000  -0.000
    9  5 3px        0.37459   0.00000      0.000   0.000  -0.000
    9  6 3py        0.43754   0.00000      0.000   0.000   0.000
    9  7 3pz        0.18673   0.00000     -0.000   0.000   0.000
    9  8 3px        0.27641   0.00000     -0.000  -0.000   0.000
    9  9 3Pdxy      0.30646   0.00000     -0.000  -0.000   0.000
    9 10 3Pdyz      0.19116   0.00000      0.000  -0.000  -0.000
    9 11 3Pdz2      0.01517   0.00000      0.000  -0.000   0.000
    9 12 3Pdxz      0.10074   0.00000      0.000   0.000  -0.000
    9 13 3Pdx2-y2   0.17419   0.00000      0.000   0.000   0.000
    9     Total     3.60159   0.00000      0.000  -0.000   0.000

   10  1 3s         0.48000   0.00000     -0.000   0.000   0.000
   10  2 3s         0.37887   0.00000      0.000  -0.000   0.000
   10  3 3py        0.23906   0.00000      0.000  -0.000   0.000
   10  4 3pz        0.40752   0.00000     -0.000   0.000   0.000
   10  5 3px        0.10089   0.00000     -0.000   0.000   0.000
   10  6 3py        0.32704   0.00000     -0.000  -0.000   0.000
   10  7 3pz        0.22259   0.00000      0.000  -0.000   0.000
   10  8 3px        0.43209   0.00000     -0.000  -0.000   0.000
   10  9 3Pdxy      0.17010   0.00000     -0.000  -0.000   0.000
   10 10 3Pdyz      0.13716   0.00000     -0.000   0.000   0.000
   10 11 3Pdz2      0.01002   0.00000     -0.000   0.000   0.000
   10 12 3Pdxz      0.17651   0.00000     -0.000  -0.000   0.000
   10 13 3Pdx2-y2   0.30908   0.00000      0.000  -0.000   0.000
   10     Total     3.39093   0.00000     -0.000   0.000   0.000

   11  1 3s         0.55299   0.00000     -0.000  -0.000   0.000
   11  2 3s         0.38508   0.00000      0.000  -0.000   0.000
   11  3 3py        0.32262   0.00000      0.000  -0.000   0.000
   11  4 3pz        0.54182   0.00000     -0.000   0.000   0.000
   11  5 3px        0.12550   0.00000      0.000  -0.000   0.000
   11  6 3py        0.28647   0.00000     -0.000   0.000   0.000
   11  7 3pz        0.17712   0.00000      0.000  -0.000   0.000
   11  8 3px        0.44572   0.00000      0.000   0.000   0.000
   11  9 3Pdxy      0.22562   0.00000     -0.000   0.000   0.000
   11 10 3Pdyz      0.12662   0.00000     -0.000   0.000   0.000
   11 11 3Pdz2      0.00960   0.00000      0.000  -0.000   0.000
   11 12 3Pdxz      0.05302   0.00000     -0.000  -0.000   0.000
   11 13 3Pdx2-y2   0.20413   0.00000     -0.000   0.000   0.000
   11     Total     3.45632   0.00000      0.000  -0.000   0.000

   17  1 3s         0.63579   0.00000      0.000  -0.000   0.000
   17  2 3s         0.36182   0.00000     -0.000   0.000  -0.000
   17  3 3py        0.22257   0.00000      0.000  -0.000   0.000
   17  4 3pz        0.41864   0.00000     -0.000   0.000   0.000
   17  5 3px        0.24288   0.00000      0.000   0.000   0.000
   17  6 3py        0.38589   0.00000     -0.000   0.000  -0.000
   17  7 3pz        0.21323   0.00000      0.000  -0.000   0.000
   17  8 3px        0.37333   0.00000     -0.000  -0.000  -0.000
   17  9 3Pdxy      0.29769   0.00000     -0.000   0.000   0.000
   17 10 3Pdyz      0.14130   0.00000      0.000   0.000   0.000
   17 11 3Pdz2      0.00873   0.00000      0.000  -0.000   0.000
   17 12 3Pdxz      0.14370   0.00000      0.000   0.000   0.000
   17 13 3Pdx2-y2   0.16556   0.00000      0.000  -0.000  -0.000
   17     Total     3.61113   0.00000      0.000  -0.000   0.000

   18  1 3s         0.74263   0.00000     -0.000   0.000   0.000
   18  2 3s         0.34119   0.00000      0.000  -0.000   0.000
   18  3 3py        0.07420   0.00000      0.000  -0.000   0.000
   18  4 3pz        0.81341   0.00000      0.000  -0.000   0.000
   18  5 3px        0.55490   0.00000     -0.000   0.000   0.000
   18  6 3py        0.52153   0.00000     -0.000   0.000   0.000
   18  7 3pz        0.19847   0.00000      0.000   0.000   0.000
   18  8 3px        0.25178   0.00000      0.000  -0.000   0.000
   18  9 3Pdxy      0.10289   0.00000      0.000   0.000  -0.000
   18 10 3Pdyz      0.02766   0.00000     -0.000  -0.000  -0.000
   18 11 3Pdz2      0.00856   0.00000     -0.000   0.000  -0.000
   18 12 3Pdxz      0.03073   0.00000     -0.000   0.000  -0.000
   18 13 3Pdx2-y2   0.11148   0.00000     -0.000  -0.000  -0.000
   18     Total     3.77944   0.00000     -0.000   0.000   0.000

   19  1 3s         0.46100   0.00000      0.000  -0.000   0.000
   19  2 3s         0.36441   0.00000     -0.000   0.000  -0.000
   19  3 3py        0.08688   0.00000     -0.000  -0.000   0.000
   19  4 3pz        0.42588   0.00000     -0.000  -0.000   0.000
   19  5 3px        0.34565   0.00000      0.000   0.000   0.000
   19  6 3py        0.46436   0.00000      0.000  -0.000   0.000
   19  7 3pz        0.18338   0.00000      0.000  -0.000   0.000
   19  8 3px        0.24774   0.00000     -0.000   0.000  -0.000
   19  9 3Pdxy      0.34003   0.00000     -0.000   0.000   0.000
   19 10 3Pdyz      0.18961   0.00000     -0.000  -0.000   0.000
   19 11 3Pdz2      0.01506   0.00000     -0.000   0.000   0.000
   19 12 3Pdxz      0.09181   0.00000     -0.000  -0.000   0.000
   19 13 3Pdx2-y2   0.24217   0.00000     -0.000   0.000   0.000
   19     Total     3.45798   0.00000     -0.000  -0.000   0.000

   20  1 3s         0.67426   0.00000     -0.000   0.000   0.000
   20  2 3s         0.37755   0.00000      0.000  -0.000  -0.000
   20  3 3py        0.33029   0.00000     -0.000  -0.000  -0.000
   20  4 3pz        0.59687   0.00000      0.000  -0.000  -0.000
   20  5 3px        0.13903   0.00000      0.000   0.000   0.000
   20  6 3py        0.29065   0.00000      0.000  -0.000   0.000
   20  7 3pz        0.16344   0.00000     -0.000   0.000  -0.000
   20  8 3px        0.49968   0.00000     -0.000  -0.000   0.000
   20  9 3Pdxy      0.09975   0.00000     -0.000   0.000  -0.000
   20 10 3Pdyz      0.13256   0.00000      0.000  -0.000  -0.000
   20 11 3Pdz2      0.00742   0.00000     -0.000  -0.000   0.000
   20 12 3Pdxz      0.02677   0.00000      0.000   0.000   0.000
   20 13 3Pdx2-y2   0.17335   0.00000      0.000  -0.000   0.000
   20     Total     3.51161   0.00000     -0.000   0.000  -0.000

----------------------------------------------------------------
Total              89.09917   0.00000     -0.000  -0.000   0.000


Species: H                   

Atom      Orb        Charge      Spin       Svec
----------------------------------------------------------------
   12  1 1s         0.48848   0.00000      0.000   0.000   0.000
   12  2 1s         0.18278   0.00000      0.000  -0.000   0.000
   12  3 2Ppy       0.02934   0.00000      0.000  -0.000  -0.000
   12  4 2Ppz       0.03201   0.00000      0.000   0.000  -0.000
   12  5 2Ppx       0.02459   0.00000      0.000   0.000   0.000
   12     Total     0.75721   0.00000      0.000   0.000   0.000

   13  1 1s         1.01969   0.00000      0.000   0.000  -0.000
   13  2 1s         0.09535   0.00000     -0.000  -0.000   0.000
   13  3 2Ppy       0.01807   0.00000     -0.000  -0.000  -0.000
   13  4 2Ppz       0.02014   0.00000      0.000  -0.000   0.000
   13  5 2Ppx       0.03505   0.00000     -0.000  -0.000   0.000
   13     Total     1.18830   0.00000      0.000   0.000  -0.000

   14  1 1s         0.46549   0.00000     -0.000   0.000  -0.000
   14  2 1s         0.19942   0.00000      0.000  -0.000   0.000
   14  3 2Ppy       0.01846   0.00000     -0.000   0.000  -0.000
   14  4 2Ppz       0.04583   0.00000     -0.000   0.000  -0.000
   14  5 2Ppx       0.01759   0.00000     -0.000   0.000   0.000
   14     Total     0.74681   0.00000     -0.000   0.000  -0.000

   15  1 1s         0.48028   0.00000      0.000   0.000  -0.000
   15  2 1s         0.17952   0.00000     -0.000  -0.000   0.000
   15  3 2Ppy       0.00719   0.00000     -0.000   0.000   0.000
   15  4 2Ppz       0.03788   0.00000     -0.000   0.000  -0.000
   15  5 2Ppx       0.03760   0.00000     -0.000   0.000   0.000
   15     Total     0.74248   0.00000      0.000   0.000   0.000

   16  1 1s         0.50924   0.00000     -0.000   0.000  -0.000
   16  2 1s         0.18737   0.00000      0.000  -0.000   0.000
   16  3 2Ppy       0.02978   0.00000     -0.000   0.000   0.000
   16  4 2Ppz       0.03972   0.00000     -0.000   0.000  -0.000
   16  5 2Ppx       0.02356   0.00000      0.000  -0.000   0.000
   16     Total     0.78967   0.00000     -0.000   0.000  -0.000

   24  1 1s         1.06213   0.00000      0.000   0.000  -0.000
   24  2 1s         0.07446   0.00000     -0.000   0.000   0.000
   24  3 2Ppy       0.03227   0.00000     -0.000   0.000   0.000
   24  4 2Ppz       0.03042   0.00000      0.000   0.000   0.000
   24  5 2Ppx       0.01734   0.00000      0.000  -0.000  -0.000
   24     Total     1.21661   0.00000      0.000   0.000  -0.000

   25  1 1s         1.04279   0.00000     -0.000  -0.000  -0.000
   25  2 1s         0.08653   0.00000      0.000  -0.000  -0.000
   25  3 2Ppy       0.01225   0.00000     -0.000   0.000  -0.000
   25  4 2Ppz       0.01867   0.00000     -0.000  -0.000  -0.000
   25  5 2Ppx       0.03568   0.00000      0.000  -0.000   0.000
   25     Total     1.19592   0.00000     -0.000  -0.000  -0.000

   26  1 1s         0.47717   0.00000      0.000  -0.000  -0.000
   26  2 1s         0.19626   0.00000      0.000   0.000   0.000
   26  3 2Ppy       0.02165   0.00000      0.000   0.000   0.000
   26  4 2Ppz       0.04817   0.00000      0.000   0.000  -0.000
   26  5 2Ppx       0.01628   0.00000     -0.000   0.000  -0.000
   26     Total     0.75954   0.00000      0.000   0.000  -0.000

   27  1 1s         0.49200   0.00000      0.000   0.000   0.000
   27  2 1s         0.17034   0.00000     -0.000  -0.000  -0.000
   27  3 2Ppy       0.01058   0.00000     -0.000  -0.000   0.000
   27  4 2Ppz       0.03344   0.00000     -0.000   0.000  -0.000
   27  5 2Ppx       0.03896   0.00000      0.000   0.000  -0.000
   27     Total     0.74531   0.00000      0.000   0.000   0.000

   29  1 1s         0.48689   0.00000      0.000   0.000  -0.000
   29  2 1s         0.18743   0.00000      0.000  -0.000   0.000
   29  3 2Ppy       0.02508   0.00000     -0.000   0.000  -0.000
   29  4 2Ppz       0.03467   0.00000      0.000  -0.000  -0.000
   29  5 2Ppx       0.02491   0.00000      0.000   0.000   0.000
   29     Total     0.75898   0.00000      0.000  -0.000  -0.000

----------------------------------------------------------------
Total              98.00000   0.00000      0.000   0.000   0.000


siesta: Eigenvalues (eV):
ik =     1
  -22.0669  -22.0669  -21.7689  -21.7689  -21.4914  -21.4914  -21.3626  -21.3626  -21.2094  -21.2094
  -21.1556  -21.1556  -20.6734  -20.6734  -19.7142  -19.7142  -19.4724  -19.4724  -19.3515  -19.3515
  -14.7790  -14.7790  -13.8162  -13.8162  -13.3195  -13.3195  -13.1002  -13.1002  -12.9890  -12.9890
  -12.8227  -12.8227  -12.6154  -12.6154  -12.2785  -12.2785  -12.2138  -12.2138  -12.0064  -12.0064
  -11.2735  -11.2735  -10.8300  -10.8300  -10.6787  -10.6787  -10.6171  -10.6171  -10.1475  -10.1475
   -9.5910   -9.5910   -9.1479   -9.1479   -8.8499   -8.8499   -8.7289   -8.7289   -8.6606   -8.6606
   -8.5217   -8.5217   -8.4723   -8.4723   -8.1096   -8.1096   -7.8846   -7.8846   -7.7559   -7.7559
   -7.6758   -7.6758   -7.3531   -7.3531   -7.2000   -7.2000   -6.8527   -6.8527   -6.7321   -6.7321
   -6.6327   -6.6327   -6.4768   -6.4768   -6.2187   -6.2187   -6.1441   -6.1441   -6.1043   -6.1043
   -6.0647   -6.0647   -5.7811   -5.7811   -5.5309   -5.5309   -4.2974   -4.2974   -3.2639   -3.2639
   -2.3264   -2.3264   -2.3188   -2.3188   -2.2053   -2.2053   -1.8642   -1.8642   -1.8430   -1.8430
   -1.8146   -1.8146   -1.7706   -1.7706   -1.5986   -1.5986   -1.3896   -1.3896   -1.1025   -1.1025
   -0.9656   -0.9656   -0.7175   -0.7175   -0.3387   -0.3387   -0.2890   -0.2890    0.1551    0.1551
    0.4649    0.4649    0.4837    0.4837    0.6202    0.6202    0.8178    0.8178    1.0047    1.0047
    1.1831    1.1831    1.2420    1.2420    1.3870    1.3870    1.4119    1.4119    1.6257    1.6257
    1.7643    1.7643    1.9108    1.9108    2.1934    2.1934    2.4522    2.4522    2.7578    2.7578
    2.7603    2.7603    2.8260    2.8260    2.9155    2.9155    3.3317    3.3317    3.4335    3.4335
    3.6269    3.6269    3.8423    3.8423    4.0092    4.0092    4.0781    4.0781    4.3270    4.3270
    4.4972    4.4972    4.5988    4.5988    4.6457    4.6457    4.6609    4.6609    4.7860    4.7860
    5.0253    5.0253    5.0654    5.0654    5.2879    5.2879    5.5307    5.5307    5.6439    5.6439
    5.8129    5.8129    5.9101    5.9101    5.9972    5.9972    6.2270    6.2270    6.2396    6.2396
    6.3992    6.3992    6.4651    6.4651    6.5640    6.5640    6.7317    6.7317    6.9526    6.9526
    7.0073    7.0073    7.2399    7.2399    7.4986    7.4986    7.6955    7.6955    7.8260    7.8260
    7.9428    7.9428    8.0425    8.0425    8.0956    8.0956    8.3212    8.3212    8.5920    8.5920
    8.6751    8.6751    8.7929    8.7929    8.8472    8.8472    8.9592    8.9592    9.2958    9.2958
    9.3320    9.3320    9.5442    9.5442    9.8276    9.8276    9.8668    9.8668    9.9864    9.9864
   10.1389   10.1389   10.2089   10.2089   10.5114   10.5114   10.9233   10.9233   11.0764   11.0764
   11.1655   11.1655   11.3151   11.3151   11.5401   11.5401   11.8413   11.8413   11.9252   11.9252
   12.0527   12.0527   12.1534   12.1534   12.4739   12.4739   12.5207   12.5207   12.6939   12.6939
   12.7716   12.7716   12.7776   12.7776   13.5109   13.5109   13.5132   13.5132   13.6984   13.6984
   13.9792   13.9792   14.0744   14.0744   14.3841   14.3841   14.6953   14.6953   14.8915   14.8915
   15.0725   15.0725   15.3483   15.3483   16.0455   16.0455   16.5938   16.5938   16.6394   16.6394
   16.9948   16.9948   17.5094   17.5094   17.6277   17.6277   18.5527   18.5527   18.5805   18.5805
   18.9568   18.9568   19.1262   19.1262   19.7456   19.7456   20.0716   20.0716   20.2156   20.2156
   20.9950   20.9950   21.5417   21.5417   21.9761   21.9761   22.1002   22.1002   22.6847   22.6847
   23.2515   23.2515   23.5612   23.5612   23.8501   23.8501   24.1161   24.1161   24.3044   24.3044
   25.0059   25.0059   25.2772   25.2772   26.2126   26.2126   27.0847   27.0847   28.0331   28.0331
   28.8130   28.8130   29.0639   29.0639   29.1535   29.1535   29.6038   29.6038   29.8649   29.8649
   30.1537   30.1537   30.3139   30.3139   30.6949   30.6949   30.9246   30.9246   31.1007   31.1007
   31.1400   31.1400   31.4238   31.4238   31.6994   31.6994   32.5726   32.5726   32.8172   32.8172
   34.0046   34.0046   34.2298   34.2298   34.3098   34.3098   34.4819   34.4819   34.5375   34.5375
   35.3142   35.3142   35.4038   35.4038   35.6128   35.6128   35.7142   35.7142   36.5602   36.5602
   37.0291   37.0291   37.8537   37.8537   37.9338   37.9338   38.0076   38.0076   38.4471   38.4471
   38.8712   38.8712   39.2809   39.2809   39.7295   39.7295   40.1366   40.1366   40.3973   40.3973
   40.5731   40.5731   40.7781   40.7781   40.8473   40.8473   41.2764   41.2764   41.5800   41.5800
   42.6091   42.6091   42.8448   42.8448   43.0950   43.0950   43.1782   43.1782   43.7442   43.7442
   43.8529   43.8529   44.3922   44.3922   44.5059   44.5059   44.7458   44.7458   44.9950   44.9950
   45.2932   45.2932   45.5646   45.5646   46.1940   46.1940   46.5043   46.5043   46.8641   46.8641
   47.3320   47.3320   47.6491   47.6491   48.1306   48.1306   48.9404   48.9404   49.7351   49.7351
   50.0736   50.0736   50.2449   50.2449   50.8010   50.8010   50.8167   50.8167   51.2681   51.2681
   51.2873   51.2873   52.3167   52.3167   53.2223   53.2223   54.3032   54.3032   54.6561   54.6561
   55.0334   55.0334   55.0773   55.0773   55.7823   55.7823   55.8884   55.8884   56.7190   56.7190
   56.9177   56.9177   57.2738   57.2738   57.6777   57.6777   58.7803   58.7803   59.8855   59.8855
   60.4443   60.4443   60.8883   60.8883   61.0442   61.0442   61.5242   61.5242   62.1338   62.1338
   62.9795   62.9795   63.1022   63.1022   63.8384   63.8384   64.8576   64.8576   66.7362   66.7362
   67.3711   67.3711   67.7668   67.7668   68.3624   68.3624   69.8907   69.8907   70.9482   70.9482
   74.5920   74.5920   83.0861   83.0861   91.4782   91.4782   92.0507   92.0507   93.7580   93.7580
   98.6882   98.6882   99.4957   99.4957  101.4721  101.4721  103.6011  103.6011  104.7479  104.7479
  111.4283  111.4283  113.5836  113.5836  123.9588  123.9588  126.0969  126.0969  131.7759  131.7759
  136.4322  136.4322  139.5833  139.5833
siesta: Fermi energy =      -3.780420 eV

siesta: Program's energy decomposition (eV):
siesta: Ebs     =     -1133.081025
siesta: Eions   =      3585.165840
siesta: Ena     =       381.985020
siesta: Ekin    =      2903.274675
siesta: Enl     =     -2788.608288
siesta: Eso     =        -0.004282
siesta: Edftu   =         0.000000
siesta: DEna    =        47.308447
siesta: DUscf   =        14.085903
siesta: DUext   =         0.000000
siesta: Exc     =     -1119.896033
siesta: eta*DQ  =         0.000000
siesta: Emadel  =         0.000000
siesta: Emeta   =         0.000000
siesta: Emolmec =         0.000000
siesta: Ekinion =         0.000000
siesta: Eharris =     -4147.020399
siesta: Etot    =     -4147.020399
siesta: FreeEng =     -4147.020399

siesta: Final energy (eV):
siesta:  Band Struct. =   -1133.081025
siesta:       Kinetic =    2903.274675
siesta:       Hartree =    8561.167537
siesta:       Edftu   =       0.000000
siesta:       Eso     =      -0.004282
siesta:    Ext. field =       0.000000
siesta:   Exch.-corr. =   -1119.896033
siesta:  Ion-electron =  -19704.942321
siesta:       Ion-ion =    5213.380025
siesta:       Ekinion =       0.000000
siesta:         Total =   -4147.020399
siesta:         Fermi =      -3.780420

siesta: Atomic forces (eV/Ang):
siesta:      1   -1.926680   -1.760259    0.000000
siesta:      2   -0.016205    0.029340    0.000000
siesta:      3    0.607958   -0.270712    0.000000
siesta:      4    0.536851   -0.011944   -0.000000
siesta:      5    0.049349   -0.094901    0.000000
siesta:      6    1.589035    0.659520    0.000000
siesta:      7    0.033448   -0.194724    0.000000
siesta:      8   -0.298889    0.214644    0.000000
siesta:      9   -0.089918    0.968488   -0.000000
siesta:     10   -0.716118    0.304115   -0.000000
siesta:     11   -0.015722   -0.015745   -0.000000
siesta:     12   -0.207145   -0.201717    0.000000
siesta:     13   -0.009639   -0.025713    0.000000
siesta:     14    0.215711   -0.016047   -0.000000
siesta:     15   -0.979363   -0.646564   -0.000000
siesta:     16   -0.047991    0.132753   -0.000000
siesta:     17    0.725519   -0.873309   -0.000000
siesta:     18   -0.164198    0.154574   -0.000000
siesta:     19   -0.181816   -0.889989   -0.000000
siesta:     20   -0.020719   -0.311265   -0.000000
siesta:     21   -0.179866    0.768768    0.000000
siesta:     22   -1.967240   -0.920886   -0.000000
siesta:     23    0.195919    0.380443   -0.000000
siesta:     24    0.233303    0.001786    0.000000
siesta:     25    0.079988   -0.010800   -0.000000
siesta:     26   -0.367145   -0.217363    0.000000
siesta:     27    1.343491    1.167917    0.000000
siesta:     28    3.275563    1.005806    0.000000
siesta:     29   -0.087509    0.071996    0.000000
siesta: ----------------------------------------
siesta:    Tot    1.609974   -0.601788    0.000000

siesta: Stress tensor (static) (eV/Ang**3):
siesta:     0.000357    0.001022   -0.000000
siesta:     0.001022    0.001121   -0.000000
siesta:     0.000000    0.000000   -0.000062

siesta: Cell volume =       4771.453418 Ang**3

siesta: Pressure (static):
siesta:                Solid            Molecule  Units
siesta:          -0.00000514         -0.00001147  Ry/Bohr**3
siesta:          -0.00047212         -0.00105319  eV/Ang**3
siesta:          -0.75642823         -1.68741642  kBar
(Free)E+ p_basis*V_orbitals  =       -4127.169981
(Free)Eharris+ p_basis*V_orbitals  =       -4127.169981
     spin moment: S , {S} =    0.00000   0.00000   0.00000   0.00000

siesta: Electric dipole (a.u.)  =    1.644650    0.120824    0.000000
siesta: Electric dipole (Debye) =    4.180287    0.307104    0.000000

cite: Please see "GC.bib" for an exhaustive BiBTeX file.
cite: Please clearly indicate Siesta version in published work: v4.1.5-1-g384057250
cite: This calculation has made use of the following articles
cite: which are encouraged to be cited in a published work.
        Primary SIESTA paper
          DOI: www.doi.org/10.1088/0953-8984/14/11/302
        Spin-orbit coupling (on-site approximation)
          DOI: www.doi.org/10.1088/0953-8984/19/19/489001


WARNING: alloc-realloc-dealloc name mismatch
         Name: atomlist isa
         Size:              -116. Bytes
         Node:     0
         Subsequent mismatches will not be reported
>> End of run:  28-JUN-2023  15:19:35
Job completed
