Siesta Version  : v4.1.5-1-g384057250
Architecture    : gcc
Compiler version: GNU Fortran (Ubuntu 11.4.0-1ubuntu1~22.04) 11.4.0
Compiler flags  : mpifort -O2 -fPIC -ftree-vectorize -fallow-argument-mismatch
PP flags        : -DFC_HAVE_ABORT -DMPI -DSIESTA__FLOOK -DSIESTA__METIS -DSIESTA__MUMPS -DCDF -DNCDF -DNCDF_4 -DNCDF_PARALLEL -DSIESTA__MRRR -DSIESTA__ELPA
Libraries       : libncdf.a libfdict.a  -lflookall -ldl -lnetcdff -lnetcdf -lhdf5_hl -lhdf5 -lhdf5_fortran -lz -lscalapack-openmpi -lopenblas -lmetis -lzmumps -lcmumps -ldmumps -lmumps_common -lpord -lsmumps -lesmumps -lscotch -lscotcherr -fopenmp -lelpa
PARALLEL version
NetCDF support
NetCDF-4 support
NetCDF-4 MPI-IO support
METIS ordering support
Lua support

* Running on 8 nodes in parallel
>> Start of run:   1-FEB-2024  18:31:57

                           ***********************       
                           *  WELCOME TO SIESTA  *       
                           ***********************       

reinit: Reading from standard input
reinit: Dumped input in INPUT_TMP.07762
************************** Dump of input data file ****************************
# mpirun -np 4 siesta-4.1.5 < AT.fdf > AT.out &
SystemLabel      AT
NumberOfAtoms    30
NumberOfSpecies  4
%block ChemicalSpeciesLabel
    1    1  H
    2    7  N
    3   14  Si
    4    8  O
%endblock ChemicalSpeciesLabel
############################################
# This overrides Defaults.fdf configuration
############################################
MD.TypeOfRun                Verlet # CG, Verlet
MD.Steps                    0
MaxSCFIterations            200
SCF.MustConverge            F
AtomicCoordinatesFormat NotScaledCartesianAng
%block AtomicCoordinatesAndAtomicSpecies
    2.28494382 -5.19529124 0.0  1  1  H
    1.37433094 -4.6647107 0.0  2  2  N
    -0.21830245 -5.49458215 0.0  3  3  Si
    -0.17484108 -6.98516892 0.0  1  4  H
    -1.66171682 -4.58600741 0.0  2  5  N
    -1.09026419 -2.87456374 0.0  3  6  Si
    -1.53038332 -0.70765692 0.0  3  7  Si
    -3.14415959 -0.09186471 0.0  2  8  N
    -3.40268075 0.95848335 0.0  1  9  H
    -3.95073599 -0.76720972 0.0  1  10  H
    -0.17836637 0.41349951 0.0  2  11  N
    1.49520211 -0.0473996 0.0  3  12  Si
    2.45603905 1.10727302 0.0  1  13  H
    2.30451743 -1.58574382 0.0  2  14  N
    1.10725559 -2.84610319 0.0  3  15  Si
    0.5114553661999524 7.968449418462324 0.0  1  16  H
    -0.2972553138000477 7.276243538462324 0.0  2  17  N
    -1.9538451538000476 7.989363638462324 0.0  3  18  Si
    -1.8569799838000476 9.500088848462322 0.0  1  19  H
    -3.6800015038000478 6.646315508462323 0.0  3  20  Si
    -6.034455753800048 6.638328578462324 0.0  3  21  Si
    -6.596873873800048 7.372818228462323 -1.20183078  1  22  H
    -6.334269503800048 5.159237448462323 -0.08618332  1  23  H
    -6.596986333800047 7.203161038462324 1.28814761  1  24  H
    -2.750610863800048 4.575744278462324 0.0  3  25  Si
    -3.700079223800048 3.287208148462323 0.0  4  26  O
    -0.9596659938000477 4.402008808462323 0.0  2  27  N
    -0.6286746338000476 3.3696518284623234 0.0  1  28  H
    0.34879222619995226 5.596555228462323 0.0  3  29  Si
    1.9147291561999522 5.329308378462324 0.0  4  30  O
%endblock AtomicCoordinatesAndAtomicSpecies
#############
# Unit Cell
#############
LatticeConstant 1.0 Ang
%block LatticeVectors
    30.00000    0.000000    0.000000
    0.000000    45.00000    0.000000
    0.000000    0.000000    10.00000
%endblock LatticeVectors
%include ../../../../Defaults.fdf
************************** End of input data file *****************************

reinit: -----------------------------------------------------------------------
reinit: System Name: 
reinit: -----------------------------------------------------------------------
reinit: System Label: AT
reinit: -----------------------------------------------------------------------

initatom: Reading input for the pseudopotentials and atomic orbitals ----------
Species number:   1 Atomic number:    1 Label: H
Species number:   2 Atomic number:    7 Label: N
Species number:   3 Atomic number:   14 Label: Si
Species number:   4 Atomic number:    8 Label: O

Ground state valence configuration:   1s01
Reading pseudopotential information in formatted form from H.psf

Pseudopotential generated from a relativistic atomic calculation

Valence configuration for pseudopotential generation:
1s( 1.00) rc: 0.01
2p( 0.00) rc: 0.60
3d( 0.00) rc: 1.99
4f( 0.00) rc: 2.49
Ground state valence configuration:   2s02  2p03
Reading pseudopotential information in formatted form from N.psf

Pseudopotential generated from a relativistic atomic calculation

Valence configuration for pseudopotential generation:
2s( 2.00) rc: 0.94
2p( 3.00) rc: 0.59
3d( 0.00) rc: 3.46
4f( 0.00) rc: 2.47
Ground state valence configuration:   3s02  3p02
Reading pseudopotential information in formatted form from Si.psf

Pseudopotential generated from a relativistic atomic calculation

Valence configuration for pseudopotential generation:
3s( 2.00) rc: 1.67
3p( 2.00) rc: 2.04
3d( 0.00) rc: 2.89
4f( 0.00) rc: 2.49
Ground state valence configuration:   2s02  2p04
Reading pseudopotential information in formatted form from O.psf

Pseudopotential generated from a relativistic atomic calculation

Valence configuration for pseudopotential generation:
2s( 2.00) rc: 0.45
2p( 4.00) rc: 0.92
3d( 0.00) rc: 2.24
4f( 0.00) rc: 0.25
For H, standard SIESTA heuristics set lmxkb to 2
 (one more than the basis l, including polarization orbitals).
Use PS.lmax or PS.KBprojectors blocks to override.
For N, standard SIESTA heuristics set lmxkb to 3
 (one more than the basis l, including polarization orbitals).
Use PS.lmax or PS.KBprojectors blocks to override.
For Si, standard SIESTA heuristics set lmxkb to 3
 (one more than the basis l, including polarization orbitals).
Use PS.lmax or PS.KBprojectors blocks to override.
For O, standard SIESTA heuristics set lmxkb to 3
 (one more than the basis l, including polarization orbitals).
Use PS.lmax or PS.KBprojectors blocks to override.

<basis_specs>
===============================================================================
H                    Z=   1    Mass=  1.0100        Charge= 0.17977+309
Lmxo=0 Lmxkb= 2    BasisType=split      Semic=F
L=0  Nsemic=0  Cnfigmx=1
          i=1  nzeta=2  polorb=1  (1s)
            splnorm:   0.62000    
               vcte:    0.0000    
               rinn:    0.0000    
               qcoe:    0.0000    
               qyuk:    0.0000    
               qwid:   0.10000E-01
                rcs:    0.0000      0.0000    
            lambdas:    1.0000      1.0000    
-------------------------------------------------------------------------------
L=0  Nkbl=1  erefs: 0.17977+309
L=1  Nkbl=1  erefs: 0.17977+309
L=2  Nkbl=1  erefs: 0.17977+309
===============================================================================
</basis_specs>

atom: Called for H                     (Z =   1)

read_vps: Pseudopotential generation method:
read_vps: ATM4.2.7  Troullier-Martins                       
Valence charge for ps generation:    1.00000

xc_check: Exchange-correlation functional:
xc_check: GGA Perdew, Burke & Ernzerhof 1996
V l=0 = -2*Zval/r beyond r=  0.0098
V l=1 = -2*Zval/r beyond r=  0.5817
V l=2 = -2*Zval/r beyond r=  1.9372
All V_l potentials equal beyond r=  1.9372
This should be close to max(r_c) in ps generation
All pots = -2*Zval/r beyond r=  1.9372

VLOCAL1: 99.0% of the norm of Vloc inside     11.567 Ry
VLOCAL1: 99.9% of the norm of Vloc inside     26.362 Ry
atom: Maximum radius for 4*pi*r*r*local-pseudopot. charge    2.25106
atom: Maximum radius for r*vlocal+2*Zval:    1.91306
GHOST: No ghost state for L =  0
GHOST: No ghost state for L =  1
GHOST: No ghost state for L =  2

KBgen: Kleinman-Bylander projectors: 
   l= 0   rc=  2.036604   el= -0.477180   Ekb= -6.081590   kbcos= -0.277285
   l= 1   rc=  2.195416   el=  0.001076   Ekb= -0.926943   kbcos= -0.034643
   l= 2   rc=  2.251056   el=  0.002010   Ekb= -0.130941   kbcos= -0.009788

KBgen: Total number of Kleinman-Bylander projectors:    9
atom: -------------------------------------------------------------------------

atom: SANKEY-TYPE ORBITALS:
atom: Selected multiple-zeta basis: split     

SPLIT: Orbitals with angular momentum L= 0

SPLIT: Basis orbitals for state 1s

SPLIT: PAO cut-off radius determined from an
SPLIT: energy shift=  0.002000 Ry

   izeta = 1
                 lambda =    1.000000
                     rc =    6.518340
                 energy =   -0.475305
                kinetic =    0.912139
    potential(screened) =   -1.387444
       potential(ionic) =   -1.907295

   izeta = 2
                 rmatch =    2.141150
              splitnorm =    0.620000
                 energy =    0.566467
                kinetic =    3.772856
    potential(screened) =   -3.206389
       potential(ionic) =   -3.759093

POLgen: Perturbative polarization orbital with L=  1

POLgen: Polarization orbital for state 1s

   izeta = 1
                     rc =    6.518340
                 energy =    0.533861
                kinetic =    1.121086
    potential(screened) =   -0.587225
       potential(ionic) =   -1.053027
atom: Total number of Sankey-type orbitals:  5

atm_pop: Valence configuration (for local Pseudopot. screening):
 1s( 1.00)                                                            
Vna: chval, zval:    1.00000   1.00000

Vna:  Cut-off radius for the neutral-atom potential:   6.518340

atom: _________________________________________________________________________

<basis_specs>
===============================================================================
N                    Z=   7    Mass=  14.010        Charge= 0.17977+309
Lmxo=1 Lmxkb= 3    BasisType=split      Semic=F
L=0  Nsemic=0  Cnfigmx=2
          i=1  nzeta=2  polorb=0  (2s)
            splnorm:   0.28000    
               vcte:    0.0000    
               rinn:    0.0000    
               qcoe:    0.0000    
               qyuk:    0.0000    
               qwid:   0.10000E-01
                rcs:    0.0000      0.0000    
            lambdas:    1.0000      1.0000    
L=1  Nsemic=0  Cnfigmx=2
          i=1  nzeta=2  polorb=1  (2p)
            splnorm:   0.28000    
               vcte:    0.0000    
               rinn:    0.0000    
               qcoe:    0.0000    
               qyuk:    0.0000    
               qwid:   0.10000E-01
                rcs:    0.0000      0.0000    
            lambdas:    1.0000      1.0000    
-------------------------------------------------------------------------------
L=0  Nkbl=1  erefs: 0.17977+309
L=1  Nkbl=1  erefs: 0.17977+309
L=2  Nkbl=1  erefs: 0.17977+309
L=3  Nkbl=1  erefs: 0.17977+309
===============================================================================
</basis_specs>

atom: Called for N                     (Z =   7)

read_vps: Pseudopotential generation method:
read_vps: ATM4.2.7  Troullier-Martins                       
Valence charge for ps generation:    5.00000

xc_check: Exchange-correlation functional:
xc_check: GGA Perdew, Burke & Ernzerhof 1996
V l=0 = -2*Zval/r beyond r=  1.2889
V l=1 = -2*Zval/r beyond r=  1.2889
V l=2 = -2*Zval/r beyond r=  3.4178
V l=3 = -2*Zval/r beyond r=  2.4084
All V_l potentials equal beyond r=  3.3753
This should be close to max(r_c) in ps generation
All pots = -2*Zval/r beyond r=  3.4178

VLOCAL1: 99.0% of the norm of Vloc inside      3.810 Ry
VLOCAL1: 99.9% of the norm of Vloc inside      8.683 Ry
atom: Maximum radius for 4*pi*r*r*local-pseudopot. charge    4.02088
atom: Maximum radius for r*vlocal+2*Zval:    3.54838
GHOST: No ghost state for L =  0
GHOST: No ghost state for L =  1
GHOST: No ghost state for L =  2
GHOST: No ghost state for L =  3

KBgen: Kleinman-Bylander projectors: 
   l= 0   rc=  3.417763   el= -1.365098   Ekb= -4.433130   kbcos= -0.707855
   l= 1   rc=  3.375302   el= -0.521201   Ekb=-13.264039   kbcos= -0.535594
   l= 2   rc=  3.872880   el=  0.001991   Ekb= -0.641094   kbcos= -0.062456
   l= 3   rc=  3.970931   el=  0.003093   Ekb= -0.474517   kbcos= -0.018236

KBgen: Total number of Kleinman-Bylander projectors:   16
atom: -------------------------------------------------------------------------

atom: SANKEY-TYPE ORBITALS:
atom: Selected multiple-zeta basis: split     

SPLIT: Orbitals with angular momentum L= 0

SPLIT: Basis orbitals for state 2s

SPLIT: PAO cut-off radius determined from an
SPLIT: energy shift=  0.002000 Ry

   izeta = 1
                 lambda =    1.000000
                     rc =    4.730425
                 energy =   -1.363399
                kinetic =    1.245246
    potential(screened) =   -2.608645
       potential(ionic) =   -8.121105

   izeta = 2
                 rmatch =    2.531849
              splitnorm =    0.280000
                 energy =   -0.959908
                kinetic =    2.409435
    potential(screened) =   -3.369343
       potential(ionic) =   -9.427975

SPLIT: Orbitals with angular momentum L= 1

SPLIT: Basis orbitals for state 2p

SPLIT: PAO cut-off radius determined from an
SPLIT: energy shift=  0.002000 Ry

   izeta = 1
                 lambda =    1.000000
                     rc =    5.924108
                 energy =   -0.519262
                kinetic =    3.672940
    potential(screened) =   -4.192202
       potential(ionic) =   -9.518354

   izeta = 2
                 rmatch =    2.531849
              splitnorm =    0.280000
                 energy =   -0.104258
                kinetic =    6.807538
    potential(screened) =   -6.911796
       potential(ionic) =  -13.149920

POLgen: Perturbative polarization orbital with L=  2

POLgen: Polarization orbital for state 2p

   izeta = 1
                     rc =    5.924108
                 energy =    1.427508
                kinetic =    2.872379
    potential(screened) =   -1.444871
       potential(ionic) =   -5.563644
atom: Total number of Sankey-type orbitals: 13

atm_pop: Valence configuration (for local Pseudopot. screening):
 2s( 2.00)                                                            
 2p( 3.00)                                                            
Vna: chval, zval:    5.00000   5.00000

Vna:  Cut-off radius for the neutral-atom potential:   5.924108

atom: _________________________________________________________________________

<basis_specs>
===============================================================================
Si                   Z=  14    Mass=  28.090        Charge= 0.17977+309
Lmxo=1 Lmxkb= 3    BasisType=split      Semic=F
L=0  Nsemic=0  Cnfigmx=3
          i=1  nzeta=2  polorb=0  (3s)
            splnorm:   0.28000    
               vcte:    0.0000    
               rinn:    0.0000    
               qcoe:    0.0000    
               qyuk:    0.0000    
               qwid:   0.10000E-01
                rcs:    0.0000      0.0000    
            lambdas:    1.0000      1.0000    
L=1  Nsemic=0  Cnfigmx=3
          i=1  nzeta=2  polorb=1  (3p)
            splnorm:   0.28000    
               vcte:    0.0000    
               rinn:    0.0000    
               qcoe:    0.0000    
               qyuk:    0.0000    
               qwid:   0.10000E-01
                rcs:    0.0000      0.0000    
            lambdas:    1.0000      1.0000    
-------------------------------------------------------------------------------
L=0  Nkbl=1  erefs: 0.17977+309
L=1  Nkbl=1  erefs: 0.17977+309
L=2  Nkbl=1  erefs: 0.17977+309
L=3  Nkbl=1  erefs: 0.17977+309
===============================================================================
</basis_specs>

atom: Called for Si                    (Z =  14)

read_vps: Pseudopotential generation method:
read_vps: ATM4.2.7  Troullier-Martins                       
Valence charge for ps generation:    4.00000

xc_check: Exchange-correlation functional:
xc_check: GGA Perdew, Burke & Ernzerhof 1996
V l=0 = -2*Zval/r beyond r=  2.7826
V l=1 = -2*Zval/r beyond r=  2.7826
V l=2 = -2*Zval/r beyond r=  2.9253
V l=3 = -2*Zval/r beyond r=  2.7826
All V_l potentials equal beyond r=  2.8530
This should be close to max(r_c) in ps generation
All pots = -2*Zval/r beyond r=  2.9253

VLOCAL1: 99.0% of the norm of Vloc inside      5.333 Ry
VLOCAL1: 99.9% of the norm of Vloc inside     12.154 Ry
atom: Maximum radius for 4*pi*r*r*local-pseudopot. charge    3.39869
atom: Maximum radius for r*vlocal+2*Zval:    2.96205
GHOST: No ghost state for L =  0
GHOST: No ghost state for L =  1
GHOST: No ghost state for L =  2
GHOST: No ghost state for L =  3

KBgen: Kleinman-Bylander projectors: 
   l= 0   rc=  3.075247   el= -0.794092   Ekb=  5.879390   kbcos=  0.167461
   l= 1   rc=  3.153101   el= -0.300068   Ekb=  2.642817   kbcos=  0.058301
   l= 2   rc=  3.273594   el=  0.001958   Ekb= -1.185135   kbcos= -0.104411
   l= 3   rc=  3.232927   el=  0.003046   Ekb= -0.497174   kbcos= -0.015889

KBgen: Total number of Kleinman-Bylander projectors:   16
atom: -------------------------------------------------------------------------

atom: SANKEY-TYPE ORBITALS:
atom: Selected multiple-zeta basis: split     

SPLIT: Orbitals with angular momentum L= 0

SPLIT: Basis orbitals for state 3s

SPLIT: PAO cut-off radius determined from an
SPLIT: energy shift=  0.002000 Ry

   izeta = 1
                 lambda =    1.000000
                     rc =    6.429618
                 energy =   -0.792283
                kinetic =    0.525293
    potential(screened) =   -1.317576
       potential(ionic) =   -3.744923

   izeta = 2
                 rmatch =    3.998416
              splitnorm =    0.280000
                 energy =   -0.583081
                kinetic =    1.069570
    potential(screened) =   -1.652651
       potential(ionic) =   -4.235185

SPLIT: Orbitals with angular momentum L= 1

SPLIT: Basis orbitals for state 3p

SPLIT: PAO cut-off radius determined from an
SPLIT: energy shift=  0.002000 Ry

   izeta = 1
                 lambda =    1.000000
                     rc =    8.464845
                 energy =   -0.298236
                kinetic =    0.785360
    potential(screened) =   -1.083596
       potential(ionic) =   -3.273779

   izeta = 2
                 rmatch =    4.587816
              splitnorm =    0.280000
                 energy =   -0.131871
                kinetic =    1.403687
    potential(screened) =   -1.535557
       potential(ionic) =   -4.015310

POLgen: Perturbative polarization orbital with L=  2

POLgen: Polarization orbital for state 3p

   izeta = 1
                     rc =    8.464845
                 energy =    0.321949
                kinetic =    1.055677
    potential(screened) =   -0.733728
       potential(ionic) =   -2.672950
atom: Total number of Sankey-type orbitals: 13

atm_pop: Valence configuration (for local Pseudopot. screening):
 3s( 2.00)                                                            
 3p( 2.00)                                                            
Vna: chval, zval:    4.00000   4.00000

Vna:  Cut-off radius for the neutral-atom potential:   8.464845

atom: _________________________________________________________________________

<basis_specs>
===============================================================================
O                    Z=   8    Mass=  16.000        Charge= 0.17977+309
Lmxo=1 Lmxkb= 3    BasisType=split      Semic=F
L=0  Nsemic=0  Cnfigmx=2
          i=1  nzeta=2  polorb=0  (2s)
            splnorm:   0.28000    
               vcte:    0.0000    
               rinn:    0.0000    
               qcoe:    0.0000    
               qyuk:    0.0000    
               qwid:   0.10000E-01
                rcs:    0.0000      0.0000    
            lambdas:    1.0000      1.0000    
L=1  Nsemic=0  Cnfigmx=2
          i=1  nzeta=2  polorb=1  (2p)
            splnorm:   0.28000    
               vcte:    0.0000    
               rinn:    0.0000    
               qcoe:    0.0000    
               qyuk:    0.0000    
               qwid:   0.10000E-01
                rcs:    0.0000      0.0000    
            lambdas:    1.0000      1.0000    
-------------------------------------------------------------------------------
L=0  Nkbl=1  erefs: 0.17977+309
L=1  Nkbl=1  erefs: 0.17977+309
L=2  Nkbl=1  erefs: 0.17977+309
L=3  Nkbl=1  erefs: 0.17977+309
===============================================================================
</basis_specs>

atom: Called for O                     (Z =   8)

read_vps: Pseudopotential generation method:
read_vps: ATM4.2.7  Troullier-Martins                       
Valence charge for ps generation:    6.00000

xc_check: Exchange-correlation functional:
xc_check: GGA Perdew, Burke & Ernzerhof 1996
V l=0 = -2*Zval/r beyond r=  1.1000
V l=1 = -2*Zval/r beyond r=  1.1000
V l=2 = -2*Zval/r beyond r=  2.2154
V l=3 = -2*Zval/r beyond r=  1.1000
All V_l potentials equal beyond r=  2.2154
This should be close to max(r_c) in ps generation
All pots = -2*Zval/r beyond r=  2.2154

VLOCAL1: 99.0% of the norm of Vloc inside      8.845 Ry
VLOCAL1: 99.9% of the norm of Vloc inside     20.157 Ry
atom: Maximum radius for 4*pi*r*r*local-pseudopot. charge    2.67231
atom: Maximum radius for r*vlocal+2*Zval:    2.32897
GHOST: No ghost state for L =  0
GHOST: No ghost state for L =  1
GHOST: No ghost state for L =  2
GHOST: No ghost state for L =  3

KBgen: Kleinman-Bylander projectors: 
   l= 0   rc=  2.243238   el= -1.759686   Ekb=**********   kbcos= -0.171774
   l= 1   rc=  2.328968   el= -0.663873   Ekb=-14.506792   kbcos= -0.519897
   l= 2   rc=  2.573941   el=  0.002031   Ekb= -1.137373   kbcos= -0.019581
   l= 3   rc=  2.606321   el=  0.003153   Ekb= -1.013546   kbcos= -0.003122

KBgen: Total number of Kleinman-Bylander projectors:   16
atom: -------------------------------------------------------------------------

atom: SANKEY-TYPE ORBITALS:
atom: Selected multiple-zeta basis: split     

SPLIT: Orbitals with angular momentum L= 0

SPLIT: Basis orbitals for state 2s

SPLIT: PAO cut-off radius determined from an
SPLIT: energy shift=  0.002000 Ry

   izeta = 1
                 lambda =    1.000000
                     rc =    4.243912
                 energy =   -1.758270
                kinetic =    3.286084
    potential(screened) =   -5.044353
       potential(ionic) =  -12.921184

   izeta = 2
                 rmatch =    2.187845
              splitnorm =    0.280000
                 energy =   -0.885018
                kinetic =    8.134434
    potential(screened) =   -9.019452
       potential(ionic) =  -17.710645

SPLIT: Orbitals with angular momentum L= 1

SPLIT: Basis orbitals for state 2p

SPLIT: PAO cut-off radius determined from an
SPLIT: energy shift=  0.002000 Ry

   izeta = 1
                 lambda =    1.000000
                     rc =    5.314825
                 energy =   -0.661986
                kinetic =    4.917472
    potential(screened) =   -5.579458
       potential(ionic) =  -13.236259

   izeta = 2
                 rmatch =    2.160663
              splitnorm =    0.280000
                 energy =   -0.068760
                kinetic =    9.183374
    potential(screened) =   -9.252135
       potential(ionic) =  -18.274251

POLgen: Perturbative polarization orbital with L=  2

POLgen: Polarization orbital for state 2p

   izeta = 1
                     rc =    5.314825
                 energy =    1.970580
                kinetic =    3.886128
    potential(screened) =   -1.915547
       potential(ionic) =   -7.749584
atom: Total number of Sankey-type orbitals: 13

atm_pop: Valence configuration (for local Pseudopot. screening):
 2s( 2.00)                                                            
 2p( 4.00)                                                            
Vna: chval, zval:    6.00000   6.00000

Vna:  Cut-off radius for the neutral-atom potential:   5.314825

atom: _________________________________________________________________________

prinput: Basis input ----------------------------------------------------------

PAO.BasisType split     

%block ChemicalSpeciesLabel
    1    1 H                       # Species index, atomic number, species label
    2    7 N                       # Species index, atomic number, species label
    3   14 Si                      # Species index, atomic number, species label
    4    8 O                       # Species index, atomic number, species label
%endblock ChemicalSpeciesLabel

%block PAO.Basis                 # Define Basis set
H                     1                    # Species label, number of l-shells
 n=1   0   2 P   1                   # n, l, Nzeta, Polarization, NzetaPol
   6.518      2.141   
   1.000      1.000   
N                     2                    # Species label, number of l-shells
 n=2   0   2                         # n, l, Nzeta 
   4.730      2.532   
   1.000      1.000   
 n=2   1   2 P   1                   # n, l, Nzeta, Polarization, NzetaPol
   5.924      2.532   
   1.000      1.000   
Si                    2                    # Species label, number of l-shells
 n=3   0   2                         # n, l, Nzeta 
   6.430      3.998   
   1.000      1.000   
 n=3   1   2 P   1                   # n, l, Nzeta, Polarization, NzetaPol
   8.465      4.588   
   1.000      1.000   
O                     2                    # Species label, number of l-shells
 n=2   0   2                         # n, l, Nzeta 
   4.244      2.188   
   1.000      1.000   
 n=2   1   2 P   1                   # n, l, Nzeta, Polarization, NzetaPol
   5.315      2.161   
   1.000      1.000   
%endblock PAO.Basis

prinput: ----------------------------------------------------------------------

Dumping basis to NetCDF file H.ion.nc
Dumping basis to NetCDF file N.ion.nc
Dumping basis to NetCDF file Si.ion.nc
Dumping basis to NetCDF file O.ion.nc
coor:   Atomic-coordinates input format  =     Cartesian coordinates
coor:                                          (in Angstroms)

siesta: Atomic coordinates (Bohr) and species
siesta:      4.31792  -9.81768   0.00000  1        1
siesta:      2.59711  -8.81503   0.00000  2        2
siesta:     -0.41253 -10.38326   0.00000  3        3
siesta:     -0.33040 -13.20006   0.00000  1        4
siesta:     -3.14019  -8.66630   0.00000  2        5
siesta:     -2.06030  -5.43214   0.00000  3        6
siesta:     -2.89201  -1.33728   0.00000  3        7
siesta:     -5.94160  -0.17360   0.00000  2        8
siesta:     -6.43014   1.81127   0.00000  1        9
siesta:     -7.46581  -1.44982   0.00000  1       10
siesta:     -0.33706   0.78140   0.00000  2       11
siesta:      2.82552  -0.08957   0.00000  3       12
siesta:      4.64124   2.09244   0.00000  1       13
siesta:      4.35491  -2.99662   0.00000  2       14
siesta:      2.09241  -5.37836   0.00000  3       15
siesta:      0.96651  15.05819   0.00000  1       16
siesta:     -0.56173  13.75011   0.00000  2       17
siesta:     -3.69223  15.09772   0.00000  3       18
siesta:     -3.50918  17.95257   0.00000  1       19
siesta:     -6.95420  12.55972   0.00000  3       20
siesta:    -11.40347  12.54463   0.00000  3       21
siesta:    -12.46629  13.93261  -2.27113  1       22
siesta:    -11.97004   9.74955  -0.16286  1       23
siesta:    -12.46650  13.61201   2.43425  1       24
siesta:     -5.19790   8.64691   0.00000  3       25
siesta:     -6.99214   6.21193   0.00000  4       26
siesta:     -1.81351   8.31859   0.00000  2       27
siesta:     -1.18802   6.36772   0.00000  1       28
siesta:      0.65912  10.57596   0.00000  3       29
siesta:      3.61832  10.07094   0.00000  4       30

siesta: System type = molecule  

initatomlists: Number of atoms, orbitals, and projectors:     30   302   403

siesta: ******************** Simulation parameters ****************************
siesta:
siesta: The following are some of the parameters of the simulation.
siesta: A complete list of the parameters used, including default values,
siesta: can be found in file out.fdf
siesta:
redata: Spin configuration                          = spin-orbit
redata: Number of spin components                   = 8
redata: Time-Reversal Symmetry                      = F
redata: Spin spiral                                 = F
############################################################
This spin-orbit implementation uses a local approximation.
From 4.2 and onwards the full non-local approximation is implemented
You are strongly advised to use >=4.2 versions!
############################################################
redata: Long output                                 =   F
redata: Number of Atomic Species                    =        4
redata: Charge density info will appear in .RHO file
redata: Write Mulliken Pop.                         = NO
redata: Matel table size (NRTAB)                    =     1024
redata: Mesh Cutoff                                 =   340.0000 Ry
redata: Net charge of the system                    =     0.0000 |e|
redata: Min. number of SCF Iter                     =        1
redata: Max. number of SCF Iter                     =      200
redata: SCF mix quantity                            = Hamiltonian
redata: Mix DM or H after convergence               =   F
redata: Recompute H after scf cycle                 =   F
redata: Mix DM in first SCF step                    =   T
redata: Write Pulay info on disk                    =   F
redata: New DM Occupancy tolerance                  = 0.000000000001
redata: No kicks to SCF
redata: DM Mixing Weight for Kicks                  =     0.5000
redata: Require Harris convergence for SCF          =   F
redata: Harris energy tolerance for SCF             =     0.000100 eV
redata: Require DM convergence for SCF              =   T
redata: DM tolerance for SCF                        =     0.000008
redata: Require EDM convergence for SCF             =   F
redata: EDM tolerance for SCF                       =     0.001000 eV
redata: Require H convergence for SCF               =   T
redata: Hamiltonian tolerance for SCF               =     0.000001 eV
redata: Require (free) Energy convergence for SCF   =   F
redata: (free) Energy tolerance for SCF             =     0.000100 eV
redata: Using Saved Data (generic)                  =   F
redata: Use continuation files for DM               =   T
redata: Neglect nonoverlap interactions             =   F
redata: Method of Calculation                       = Diagonalization
redata: Electronic Temperature                      =   299.9978 K
redata: Fix the spin of the system                  =   F
redata: Dynamics option                             = Verlet MD run
redata: Initial MD time step                        =        1
redata:   Final MD time step                        =        1
redata: Length of MD time step                      =     0.5000 fs
redata: Initial Temperature of MD run               =     0.0000 K
redata: Perform a MD quench                         =   F
mix.SCF: Pulay mixing                            = Pulay
mix.SCF:    Variant                              = stable
mix.SCF:    History steps                        = 6
mix.SCF:    Linear mixing weight                 =     0.250000
mix.SCF:    Mixing weight                        =     0.250000
mix.SCF:    SVD condition                        = 0.1000E-07
mix.SCF:    Restart steps                        = 24
mix.SCF:    Restart save steps                   = 3
mix.SCF: Spin-component mixing                   all
redata: Save all siesta data in one NC              =   F
redata: ***********************************************************************

%block SCF.Mixers
  Pulay
%endblock SCF.Mixers

%block SCF.Mixer.Pulay
  # Mixing method
  method pulay
  variant stable

  # Mixing options
  weight 0.2500
  weight.linear 0.2500
  history 6
  restart 24
  restart.save 3
%endblock SCF.Mixer.Pulay

Size of DM history Fstack: 3
Total number of electrons:    98.000000
Total ionic charge:    98.000000

* ProcessorY, Blocksize:    2  24


* Orbital distribution balance (max,min):    48    24


Time-reversal symmetry not used.

siesta: k-grid: Number of k-points =     1
siesta: k-grid: Cutoff (effective) =     5.000 Ang
siesta: k-grid: Supercell and displacements
siesta: k-grid:    1   0   0      0.000
siesta: k-grid:    0   1   0      0.000
siesta: k-grid:    0   0   1      0.000

diag: Algorithm                                     = ELPA-1stage
diag: Parallel over k                               =   F
diag: Use parallel 2D distribution                  =   T
diag: Parallel block-size                           = 24
diag: Parallel distribution                         =     2 x     4
diag: Used triangular part                          = Lower
diag: Absolute tolerance                            =  0.100E-15
diag: Orthogonalization factor                      =  0.100E-05
diag: Memory factor                                 =  1.0000


ts: **************************************************************
ts: Save H and S matrices                           =    F
ts: Save DM and EDM matrices                        =    F
ts: Only save the overlap matrix S                  =    F
ts: **************************************************************

************************ Begin: TS CHECKS AND WARNINGS ************************
************************ End: TS CHECKS AND WARNINGS **************************


                     ====================================
                        Begin MD step =      1
                     ====================================

outcoor: Atomic coordinates (Ang):                          
    2.28494382   -5.19529124    0.00000000   1       1  H
    1.37433094   -4.66471070    0.00000000   2       2  N
   -0.21830245   -5.49458215    0.00000000   3       3  Si
   -0.17484108   -6.98516892    0.00000000   1       4  H
   -1.66171682   -4.58600741    0.00000000   2       5  N
   -1.09026419   -2.87456374    0.00000000   3       6  Si
   -1.53038332   -0.70765692    0.00000000   3       7  Si
   -3.14415959   -0.09186471    0.00000000   2       8  N
   -3.40268075    0.95848335    0.00000000   1       9  H
   -3.95073599   -0.76720972    0.00000000   1      10  H
   -0.17836637    0.41349951    0.00000000   2      11  N
    1.49520211   -0.04739960    0.00000000   3      12  Si
    2.45603905    1.10727302    0.00000000   1      13  H
    2.30451743   -1.58574382    0.00000000   2      14  N
    1.10725559   -2.84610319    0.00000000   3      15  Si
    0.51145537    7.96844942    0.00000000   1      16  H
   -0.29725531    7.27624354    0.00000000   2      17  N
   -1.95384515    7.98936364    0.00000000   3      18  Si
   -1.85697998    9.50008885    0.00000000   1      19  H
   -3.68000150    6.64631551    0.00000000   3      20  Si
   -6.03445575    6.63832858    0.00000000   3      21  Si
   -6.59687387    7.37281823   -1.20183078   1      22  H
   -6.33426950    5.15923745   -0.08618332   1      23  H
   -6.59698633    7.20316104    1.28814761   1      24  H
   -2.75061086    4.57574428    0.00000000   3      25  Si
   -3.70007922    3.28720815    0.00000000   4      26  O
   -0.95966599    4.40200881    0.00000000   2      27  N
   -0.62867463    3.36965183    0.00000000   1      28  H
    0.34879223    5.59655523    0.00000000   3      29  Si
    1.91472916    5.32930838    0.00000000   4      30  O

outcell: Unit cell vectors (Ang):
       30.000000    0.000000    0.000000
        0.000000   45.000000    0.000000
        0.000000    0.000000   10.000000

outcell: Cell vector modules (Ang)   :   30.000000   45.000000   10.000000
outcell: Cell angles (23,13,12) (deg):     90.0000     90.0000     90.0000
outcell: Cell volume (Ang**3)        :  13500.0000
<dSpData1D:S at geom step 1
  <sparsity:sparsity for geom step 1
    nrows_g=302 nrows=48 sparsity=.0904 nnzs=8243, refcount: 8>
  <dData1D:(new from dSpData1D) n=8243, refcount: 1>
refcount: 1>
new_DM -- step:     1
Initializing Density Matrix...

Attempting to read DM from file... Failed...
DM filled with atomic data:
<dSpData2D:DM initialized from atoms
  <sparsity:sparsity for geom step 1
    nrows_g=302 nrows=48 sparsity=.0904 nnzs=8243, refcount: 9>
  <dData2D:DM n=8243 m=8, refcount: 1>
refcount: 1>
     spin moment: S , {S} =   56.00000   0.00000   0.00000  56.00000
No. of atoms with KB's overlaping orbs in proc 0. Max # of overlaps:      27     172

Initializing spin-orbit part of the Hamiltonian
  Adding spin-orbit effects for H 
  Adding spin-orbit effects for N 
  Adding spin-orbit effects for Si
  Adding spin-orbit effects for O 


New grid distribution:   1
           1       1:  180    1:  125    1:   15
           2       1:  180    1:  125   16:   30
           3       1:  180    1:  125   31:   45
           4       1:  180    1:  125   46:   60
           5       1:  180  126:  250    1:   15
           6       1:  180  126:  250   16:   30
           7       1:  180  126:  250   31:   45
           8       1:  180  126:  250   46:   60

InitMesh: MESH =   360 x   500 x   120 =    21600000
InitMesh: (bp) =   180 x   250 x    60 =     2700000
InitMesh: Mesh cutoff (required, used) =   340.000   341.206 Ry
ExtMesh (bp) on 0 =   288 x   225 x   123 =     7970400
New grid distribution:   2
           1     154:  180   44:  229    1:   60
           2       1:  159    1:   26    1:   60
           3       1:  159   27:   43    1:   60
           4     160:  180    1:   24    1:   60
           5       1:  153   44:  231    1:   60
           6       1:  153  232:  250    1:   60
           7     154:  180  230:  250    1:   60
           8     160:  180   25:   43    1:   60
New grid distribution:   3
           1     147:  180   50:  219    1:   60
           2       1:  141    1:   27    1:   60
           3       1:  141   28:   49    1:   60
           4     142:  180    1:   26    1:   60
           5       1:  146   50:  222    1:   60
           6       1:  146  223:  250    1:   60
           7     147:  180  220:  250    1:   60
           8     142:  180   27:   49    1:   60
Setting up quadratic distribution...
ExtMesh (bp) on 0 =   135 x   286 x   168 =     6486480
PhiOnMesh: Number of (b)points on node 0 =               301320
PhiOnMesh: nlist on node 0 =              1572712

stepf: Fermi-Dirac step function

siesta: Program's energy decomposition (eV):
siesta: Ebs     =      -613.962394
siesta: Eions   =      3553.971015
siesta: Ena     =       374.932258
siesta: Ekin    =      3167.617697
siesta: Enl     =     -2981.555345
siesta: Eso     =        -0.003898
siesta: Edftu   =         0.000000
siesta: DEna    =       129.571043
siesta: DUscf   =        74.259803
siesta: DUext   =         0.000000
siesta: Exc     =     -1167.855930
siesta: eta*DQ  =         0.000000
siesta: Emadel  =         0.000000
siesta: Emeta   =         0.000000
siesta: Emolmec =         0.000000
siesta: Ekinion =         0.000000
siesta: Eharris =     -3888.280784
siesta: Etot    =     -3957.005387
siesta: FreeEng =     -3957.008677

        iscf     Eharris(eV)        E_KS(eV)     FreeEng(eV)     dDmax    Ef(eV) dHmax(eV)
   scf:    1    -3888.280784    -3957.005387    -3957.008677  0.969771 -4.935717 21.042460
     spin moment: S , {S} =    2.02337  -0.00000  -0.00000   2.02337
timer: Routine,Calls,Time,% = IterSCF        1      11.514  33.74
   scf:    2    -3997.840351    -3989.858841    -3989.858846  0.464247 -4.225325 10.796848
     spin moment: S , {S} =    2.00009   0.00000  -0.00000   2.00009
   scf:    3    -3963.746899    -3987.441018    -3987.483548  0.426365 -4.118479 11.539843
     spin moment: S , {S} =    1.76168  -0.00000  -0.00001   1.76168
   scf:    4    -4002.623083    -3997.667238    -3997.667241  0.212852 -3.847143  4.620583
     spin moment: S , {S} =    0.00011  -0.00000   0.00000   0.00011
   scf:    5    -3999.010844    -3998.403228    -3998.403228  0.035949 -3.726124  2.809075
     spin moment: S , {S} =    0.00006  -0.00000   0.00000   0.00006
   scf:    6    -3999.216998    -3998.806727    -3998.806727  0.028437 -3.698688  1.452938
     spin moment: S , {S} =    0.00003  -0.00000   0.00000   0.00003
   scf:    7    -3999.187028    -3998.991591    -3998.991591  0.022559 -3.756227  0.764216
     spin moment: S , {S} =    0.00001  -0.00000   0.00000   0.00001
   scf:    8    -3999.115862    -3999.051823    -3999.051823  0.011898 -3.794380  0.487124
     spin moment: S , {S} =    0.00000  -0.00000   0.00000   0.00000
   scf:    9    -3999.099862    -3999.074901    -3999.074901  0.006904 -3.809248  0.372981
     spin moment: S , {S} =    0.00000  -0.00000   0.00000   0.00000
   scf:   10    -3999.133931    -3999.097522    -3999.097538  0.020735 -3.837110  0.159500
     spin moment: S , {S} =    0.00004  -0.00000  -0.00000  -0.00004
   scf:   11    -3999.100574    -3999.099126    -3999.099145  0.003786 -3.826333  0.051439
     spin moment: S , {S} =    0.00000  -0.00000  -0.00000  -0.00000
   scf:   12    -3999.099837    -3999.099494    -3999.099515  0.001373 -3.823350  0.029110
     spin moment: S , {S} =    0.00000  -0.00000  -0.00000   0.00000
   scf:   13    -3999.099924    -3999.099707    -3999.099728  0.001170 -3.821103  0.017016
     spin moment: S , {S} =    0.00000  -0.00000  -0.00000   0.00000
   scf:   14    -3999.099928    -3999.099813    -3999.099835  0.001048 -3.820202  0.013178
     spin moment: S , {S} =    0.00000  -0.00000  -0.00000   0.00000
   scf:   15    -3999.099982    -3999.099891    -3999.099913  0.001221 -3.819729  0.010358
     spin moment: S , {S} =    0.00000  -0.00000  -0.00000   0.00000
   scf:   16    -3999.099988    -3999.099934    -3999.099956  0.001100 -3.819609  0.006359
     spin moment: S , {S} =    0.00000  -0.00000  -0.00000  -0.00000
   scf:   17    -3999.099962    -3999.099946    -3999.099969  0.000582 -3.819724  0.004928
     spin moment: S , {S} =    0.00000  -0.00000  -0.00000  -0.00000
   scf:   18    -3999.099964    -3999.099954    -3999.099976  0.000566 -3.819827  0.002294
     spin moment: S , {S} =    0.00000   0.00000  -0.00000  -0.00000
   scf:   19    -3999.099958    -3999.099956    -3999.099978  0.000300 -3.819840  0.001150
     spin moment: S , {S} =    0.00000   0.00000  -0.00000  -0.00000
   scf:   20    -3999.099956    -3999.099956    -3999.099978  0.000092 -3.819851  0.000757
     spin moment: S , {S} =    0.00000   0.00000  -0.00000  -0.00000
   scf:   21    -3999.099956    -3999.099956    -3999.099978  0.000087 -3.819842  0.000388
     spin moment: S , {S} =    0.00000   0.00000  -0.00000  -0.00000
   scf:   22    -3999.099956    -3999.099956    -3999.099979  0.000068 -3.819846  0.000139
     spin moment: S , {S} =    0.00000   0.00000   0.00000  -0.00000
   scf:   23    -3999.099956    -3999.099956    -3999.099979  0.000016 -3.819849  0.000085
     spin moment: S , {S} =    0.00000   0.00000   0.00000  -0.00000
   scf:   24    -3999.099956    -3999.099956    -3999.099979  0.000005 -3.819849  0.000063
     spin moment: S , {S} =    0.00000  -0.00000   0.00000  -0.00000
mix: Pulay -- resetting history
   scf:   25    -3999.099956    -3999.099956    -3999.099979  0.000004 -3.819848  0.000044
     spin moment: S , {S} =    0.00000  -0.00000  -0.00000  -0.00000
   scf:   26    -3999.099956    -3999.099956    -3999.099979  0.000003 -3.819848  0.000029
     spin moment: S , {S} =    0.00000  -0.00000  -0.00000  -0.00000
   scf:   27    -3999.099956    -3999.099956    -3999.099979  0.000003 -3.819847  0.000014
     spin moment: S , {S} =    0.00000  -0.00000  -0.00000  -0.00000
   scf:   28    -3999.099956    -3999.099956    -3999.099979  0.000001 -3.819847  0.000006
     spin moment: S , {S} =    0.00000  -0.00000  -0.00000   0.00000
   scf:   29    -3999.099956    -3999.099956    -3999.099979  0.000000 -3.819847  0.000004
     spin moment: S , {S} =    0.00000  -0.00000  -0.00000   0.00000
   scf:   30    -3999.099956    -3999.099956    -3999.099979  0.000001 -3.819848  0.000002
     spin moment: S , {S} =    0.00000  -0.00000  -0.00000   0.00000
   scf:   31    -3999.099956    -3999.099956    -3999.099979  0.000000 -3.819848  0.000001
     spin moment: S , {S} =    0.00000  -0.00000  -0.00000   0.00000
   scf:   32    -3999.099956    -3999.099956    -3999.099979  0.000000 -3.819848  0.000001
     spin moment: S , {S} =    0.00000  -0.00000  -0.00000   0.00000

SCF Convergence by DM+H criterion
max |DM_out - DM_in|         :     0.0000000933
max |H_out - H_in|      (eV) :     0.0000008198
SCF cycle converged after 32 iterations

Using DM_out to compute the final energy and forces
No. of atoms with KB's overlaping orbs in proc 0. Max # of overlaps:      27     172

siesta: E_KS(eV) =            -3999.1000

siesta: E_KS - E_eggbox =     -3999.1000
     spin moment: S , {S} =    0.00000  -0.00000  -0.00000   0.00000

siesta: Atomic forces (eV/Ang):
     1    0.142392   -0.032248   -0.000000
     2   -0.022746    0.035929   -0.000000
     3   -0.021073   -0.016376    0.000000
     4    0.067391   -0.134081    0.000000
     5    0.045757    0.013223   -0.000000
     6   -0.116860    0.012040   -0.000001
     7    0.642636    0.000840   -0.000005
     8   -0.459163    1.219304    0.000015
     9    0.095697   -0.582787   -0.000033
    10   -0.078970    0.094270    0.000002
    11   -0.104033   -0.170227    0.000004
    12   -0.171090    0.020273    0.000000
    13   -0.125727   -0.040115    0.000000
    14    0.015282   -0.062400   -0.000000
    15    0.065995    0.054295    0.000002
    16   -0.104011   -0.043088   -0.000950
    17   -0.004216   -0.039121   -0.000796
    18   -0.063311    0.017151    0.005319
    19    0.070021   -0.110718   -0.001488
    20    0.063492    0.046497   -0.001175
    21    0.056246   -0.010494   -0.006373
    22    0.088535    0.013524    0.134287
    23    0.022006   -0.007628   -0.009354
    24    0.082326    0.037519   -0.103022
    25   -0.362221   -0.303715    0.001011
    26    2.153732    0.157778    0.000486
    27    0.205974   -0.352812   -0.000548
    28   -0.118866    0.472681   -0.000084
    29    0.125588    0.079165   -0.000193
    30   -0.100318   -2.859617    0.000244
----------------------------------------
   Tot    2.090467   -2.490939    0.017346
----------------------------------------
   Max    2.859617
   Res    0.424615    sqrt( Sum f_i^2 / 3N )
----------------------------------------
   Max    2.859617    constrained

Stress tensor Voigt[x,y,z,yz,xz,xy] (kbar):        0.13        0.41       -0.01       -0.01        0.00        0.09
(Free)E + p*V (eV/cell)    -4000.6013
Target enthalpy (eV/cell)    -3999.1000

siesta: Stress tensor (static) (eV/Ang**3):
         0.000081    0.000053    0.000000
         0.000053    0.000257   -0.000004
         0.000000   -0.000004   -0.000004

siesta: Pressure (static):         -0.17817803  kBar

siesta: Stress tensor (total) (eV/Ang**3):
         0.000081    0.000053    0.000000
         0.000053    0.000257   -0.000004
         0.000000   -0.000004   -0.000004

siesta: Pressure (total):         -0.17817803  kBar

siesta: Temp_ion =       0.000 K

siesta: Eigenvalues (eV):
ik =     1
  -22.8204  -22.8204  -22.5097  -22.5097  -21.7281  -21.7281  -21.2262  -21.2262  -20.9237  -20.9237
  -20.5675  -20.5675  -19.3330  -19.3330  -19.1406  -19.1406  -18.5626  -18.5626  -15.0754  -15.0754
  -14.1531  -14.1531  -13.5380  -13.5380  -13.5262  -13.5262  -13.1000  -13.1000  -12.7852  -12.7852
  -12.3754  -12.3754  -11.9155  -11.9155  -11.8663  -11.8663  -11.4479  -11.4479  -11.4133  -11.4133
  -10.7925  -10.7925  -10.6295  -10.6295  -10.1021  -10.1021   -9.6394   -9.6394   -9.3727   -9.3727
   -9.1887   -9.1887   -9.0474   -9.0474   -9.0075   -9.0075   -8.7109   -8.7109   -8.6153   -8.6153
   -8.4160   -8.4160   -8.1579   -8.1579   -8.0368   -8.0368   -8.0136   -8.0136   -7.9235   -7.9235
   -7.7883   -7.7883   -7.3043   -7.3043   -7.2590   -7.2590   -7.2345   -7.2345   -6.8305   -6.8305
   -6.7794   -6.7794   -6.6765   -6.6765   -6.4841   -6.4841   -6.2781   -6.2781   -6.1458   -6.1458
   -5.7622   -5.7622   -5.7092   -5.7092   -5.4870   -5.4870   -4.1021   -4.1021   -3.5376   -3.5376
   -2.7413   -2.7413   -2.2552   -2.2552   -2.1557   -2.1557   -2.0682   -2.0682   -2.0330   -2.0330
   -1.8628   -1.8628   -1.6506   -1.6506   -1.6393   -1.6393   -1.4788   -1.4788   -1.3049   -1.3049
   -1.1525   -1.1525   -0.3969   -0.3969   -0.2479   -0.2479   -0.2016   -0.2016   -0.1170   -0.1170
   -0.0513   -0.0513    0.0027    0.0027    0.2179    0.2179    0.6248    0.6248    0.6555    0.6555
    0.6790    0.6790    0.8749    0.8749    1.2838    1.2838    1.3944    1.3944    1.4031    1.4031
    1.5287    1.5287    1.6275    1.6275    1.8179    1.8179    2.1874    2.1874    2.3200    2.3200
    2.5082    2.5082    2.7525    2.7525    2.8901    2.8901    2.9528    2.9528    3.1369    3.1369
    3.1484    3.1484    3.1672    3.1672    3.2169    3.2169    3.3256    3.3256    3.6573    3.6573
    3.9071    3.9071    4.0301    4.0301    4.1723    4.1723    4.3285    4.3285    4.3971    4.3971
    4.4181    4.4181    4.7318    4.7318    4.8588    4.8588    5.0609    5.0609    5.1097    5.1097
    5.1939    5.1939    5.4796    5.4796    5.6153    5.6153    5.6812    5.6812    5.8620    5.8620
    5.9715    5.9715    6.1405    6.1405    6.2714    6.2714    6.3944    6.3944    6.4300    6.4300
    6.6539    6.6539    6.7951    6.7951    6.9332    6.9332    7.1301    7.1301    7.3419    7.3419
    7.4611    7.4611    7.6116    7.6116    7.7968    7.7968    7.8262    7.8262    8.0812    8.0812
    8.2271    8.2271    8.3600    8.3600    8.5014    8.5014    8.7081    8.7081    8.7248    8.7248
    8.9764    8.9764    9.1528    9.1528    9.2170    9.2170    9.4273    9.4273    9.6688    9.6688
    9.8093    9.8093    9.8349    9.8349    9.9442    9.9442   10.0764   10.0764   10.1701   10.1701
   10.5874   10.5874   10.7795   10.7795   10.8736   10.8736   10.9720   10.9720   11.2544   11.2544
   11.3291   11.3291   11.5951   11.5951   11.7624   11.7624   11.9022   11.9022   11.9781   11.9781
   12.1117   12.1117   12.3614   12.3614   12.5244   12.5244   12.5838   12.5838   12.7325   12.7325
   12.9175   12.9175   13.0331   13.0331   13.3700   13.3700   13.6314   13.6314   13.6394   13.6394
   13.7210   13.7210   14.0120   14.0120   14.5496   14.5496   14.9606   14.9606   14.9828   14.9828
   15.0792   15.0792   15.1507   15.1507   15.3372   15.3372   16.0611   16.0611   16.5085   16.5085
   16.9341   16.9341   17.0089   17.0089   17.1328   17.1328   17.2742   17.2742   17.7283   17.7283
   18.2089   18.2089   18.4993   18.4993   18.7285   18.7285   18.8135   18.8135   18.9234   18.9234
   19.0060   19.0060   19.5851   19.5851   19.6339   19.6339   20.0301   20.0301   20.7475   20.7475
   20.8675   20.8675   21.4557   21.4557   21.6644   21.6644   21.8931   21.8931   22.3393   22.3393
   22.4289   22.4289   23.1685   23.1685   23.2194   23.2194   23.3359   23.3359   24.1671   24.1671
   24.6714   24.6714   24.8950   24.8950   25.0990   25.0990   25.8799   25.8799   26.0331   26.0331
   26.4981   26.4981   26.6885   26.6885   26.8130   26.8130   27.7287   27.7287   27.9799   27.9799
   28.5586   28.5586   29.0869   29.0869   29.5544   29.5544   30.7167   30.7167   30.9422   30.9422
   30.9462   30.9462   31.1739   31.1739   31.3742   31.3742   31.4732   31.4732   31.8217   31.8217
   31.9651   31.9651   32.2143   32.2143   32.5844   32.5844   33.4948   33.4948   33.8933   33.8933
   34.1423   34.1423   34.3305   34.3305   34.7521   34.7521   35.1420   35.1420   36.0978   36.0978
   36.1255   36.1255   36.6838   36.6838   37.3025   37.3025   37.4758   37.4758   38.1082   38.1082
   38.3839   38.3839   38.7613   38.7613   38.9850   38.9850   39.2609   39.2609   39.8789   39.8789
   40.4047   40.4047   40.5136   40.5136   41.2023   41.2023   41.2923   41.2923   41.7144   41.7144
   42.3495   42.3495   42.9424   42.9424   43.2793   43.2793   43.7641   43.7641   44.0412   44.0412
   44.8551   44.8551   45.2242   45.2242   45.3504   45.3504   45.6417   45.6417   46.0014   46.0014
   46.5550   46.5550   46.7192   46.7192   47.1815   47.1815   47.7790   47.7790   47.9464   47.9464
   48.2984   48.2984   48.7946   48.7946   49.3392   49.3392   49.7041   49.7041   50.1076   50.1076
   50.2496   50.2496   50.5924   50.5924   50.6392   50.6392   51.2393   51.2393   51.8706   51.8706
   51.9251   51.9251   53.6573   53.6573   54.1595   54.1595   54.2932   54.2932   54.7538   54.7538
   55.4257   55.4257   56.0866   56.0866   56.2554   56.2554   56.7496   56.7496   56.7703   56.7703
   58.0594   58.0594   58.9664   58.9664   59.1855   59.1855   60.9773   60.9773   60.9890   60.9890
   61.3949   61.3949   62.8228   62.8228   63.4083   63.4083   63.6975   63.6975   64.1903   64.1903
   65.7404   65.7404   66.1018   66.1018   67.3362   67.3362   67.8224   67.8224   68.8149   68.8149
   70.0445   70.0445   71.1357   71.1357   72.2103   72.2103   80.5792   80.5792   88.7761   88.7761
   93.1280   93.1280   93.6436   93.6436   95.5551   95.5551   97.0746   97.0746  100.3215  100.3215
  102.4103  102.4103  102.8128  102.8128  116.8862  116.8862  120.0161  120.0161  123.8766  123.8766
  134.2577  134.2577  142.3823  142.3823
siesta: Fermi energy =      -3.819848 eV

siesta: Program's energy decomposition (eV):
siesta: Ebs     =     -1107.005826
siesta: Eions   =      3553.971015
siesta: Ena     =       374.932258
siesta: Ekin    =      2743.122292
siesta: Enl     =     -2523.100373
siesta: Eso     =        -0.004676
siesta: Edftu   =         0.000000
siesta: DEna    =        37.095473
siesta: DUscf   =        13.741841
siesta: DUext   =         0.000000
siesta: Exc     =     -1090.915757
siesta: eta*DQ  =         0.000000
siesta: Emadel  =         0.000000
siesta: Emeta   =         0.000000
siesta: Emolmec =         0.000000
siesta: Ekinion =         0.000000
siesta: Eharris =     -3999.099956
siesta: Etot    =     -3999.099956
siesta: FreeEng =     -3999.099979

siesta: Final energy (eV):
siesta:  Band Struct. =   -1107.005826
siesta:       Kinetic =    2743.122292
siesta:       Hartree =   14200.497886
siesta:       Edftu   =       0.000000
siesta:       Eso     =      -0.004676
siesta:    Ext. field =       0.000000
siesta:   Exch.-corr. =   -1090.915757
siesta:  Ion-electron =  -30835.308418
siesta:       Ion-ion =   10983.508716
siesta:       Ekinion =       0.000000
siesta:         Total =   -3999.099956
siesta:         Fermi =      -3.819848

siesta: Atomic forces (eV/Ang):
siesta:      1    0.142392   -0.032248   -0.000000
siesta:      2   -0.022746    0.035929   -0.000000
siesta:      3   -0.021073   -0.016376    0.000000
siesta:      4    0.067391   -0.134081    0.000000
siesta:      5    0.045757    0.013223   -0.000000
siesta:      6   -0.116860    0.012040   -0.000001
siesta:      7    0.642636    0.000840   -0.000005
siesta:      8   -0.459163    1.219304    0.000015
siesta:      9    0.095697   -0.582787   -0.000033
siesta:     10   -0.078970    0.094270    0.000002
siesta:     11   -0.104033   -0.170227    0.000004
siesta:     12   -0.171090    0.020273    0.000000
siesta:     13   -0.125727   -0.040115    0.000000
siesta:     14    0.015282   -0.062400   -0.000000
siesta:     15    0.065995    0.054295    0.000002
siesta:     16   -0.104011   -0.043088   -0.000950
siesta:     17   -0.004216   -0.039121   -0.000796
siesta:     18   -0.063311    0.017151    0.005319
siesta:     19    0.070021   -0.110718   -0.001488
siesta:     20    0.063492    0.046497   -0.001175
siesta:     21    0.056246   -0.010494   -0.006373
siesta:     22    0.088535    0.013524    0.134287
siesta:     23    0.022006   -0.007628   -0.009354
siesta:     24    0.082326    0.037519   -0.103022
siesta:     25   -0.362221   -0.303715    0.001011
siesta:     26    2.153732    0.157778    0.000486
siesta:     27    0.205974   -0.352812   -0.000548
siesta:     28   -0.118866    0.472681   -0.000084
siesta:     29    0.125588    0.079165   -0.000193
siesta:     30   -0.100318   -2.859617    0.000244
siesta: ----------------------------------------
siesta:    Tot    2.090467   -2.490939    0.017346

siesta: Stress tensor (static) (eV/Ang**3):
siesta:     0.000081    0.000053    0.000000
siesta:     0.000053    0.000257   -0.000004
siesta:     0.000000   -0.000004   -0.000004

siesta: Cell volume =      13500.000000 Ang**3

siesta: Pressure (static):
siesta:                Solid            Molecule  Units
siesta:          -0.00000121          0.00000357  Ry/Bohr**3
siesta:          -0.00011121          0.00032794  eV/Ang**3
siesta:          -0.17817803          0.52542674  kBar
(Free)E+ p_basis*V_orbitals  =       -3977.971894
(Free)Eharris+ p_basis*V_orbitals  =       -3977.971894
     spin moment: S , {S} =    0.00000  -0.00000  -0.00000   0.00000

siesta: Electric dipole (a.u.)  =   -1.170840    1.786618   -0.001786
siesta: Electric dipole (Debye) =   -2.975980    4.541133   -0.004539

cite: Please see "AT.bib" for an exhaustive BiBTeX file.
cite: Please clearly indicate Siesta version in published work: v4.1.5-1-g384057250
cite: This calculation has made use of the following articles
cite: which are encouraged to be cited in a published work.
        Primary SIESTA paper
          DOI: www.doi.org/10.1088/0953-8984/14/11/302
        Spin-orbit coupling (on-site approximation)
          DOI: www.doi.org/10.1088/0953-8984/19/19/489001


WARNING: alloc-realloc-dealloc name mismatch
         Name: atomlist isa
         Size:              -120. Bytes
         Node:     0
         Subsequent mismatches will not be reported
>> End of run:   1-FEB-2024  18:35:43
Job completed
