Siesta Version  : v4.1.5-1-g384057250
Architecture    : gcc
Compiler version: GNU Fortran (Ubuntu 11.4.0-1ubuntu1~22.04) 11.4.0
Compiler flags  : mpifort -O2 -fPIC -ftree-vectorize -fallow-argument-mismatch
PP flags        : -DFC_HAVE_ABORT -DMPI -DSIESTA__FLOOK -DSIESTA__METIS -DSIESTA__MUMPS -DCDF -DNCDF -DNCDF_4 -DNCDF_PARALLEL -DSIESTA__MRRR -DSIESTA__ELPA
Libraries       : libncdf.a libfdict.a  -lflookall -ldl -lnetcdff -lnetcdf -lhdf5_hl -lhdf5 -lhdf5_fortran -lz -lscalapack-openmpi -lopenblas -lmetis -lzmumps -lcmumps -ldmumps -lmumps_common -lpord -lsmumps -lesmumps -lscotch -lscotcherr -fopenmp -lelpa
PARALLEL version
NetCDF support
NetCDF-4 support
NetCDF-4 MPI-IO support
METIS ordering support
Lua support

* Running on 8 nodes in parallel
>> Start of run:   1-FEB-2024  18:20:19

                           ***********************       
                           *  WELCOME TO SIESTA  *       
                           ***********************       

reinit: Reading from standard input
reinit: Dumped input in INPUT_TMP.09763
************************** Dump of input data file ****************************
# mpirun -np 4 siesta-4.1.5 < AT.fdf > AT.out &
SystemLabel      AT
NumberOfAtoms    30
NumberOfSpecies  4
%block ChemicalSpeciesLabel
    1    1  H
    2    7  N
    3   14  Si
    4    8  O
%endblock ChemicalSpeciesLabel
############################################
# This overrides Defaults.fdf configuration
############################################
MD.TypeOfRun                Verlet # CG, Verlet
MD.Steps                    0
MaxSCFIterations            200
SCF.MustConverge            F
AtomicCoordinatesFormat NotScaledCartesianAng
%block AtomicCoordinatesAndAtomicSpecies
    2.28494382 -5.19529124 0.0  1  1  H
    1.37433094 -4.6647107 0.0  2  2  N
    -0.21830245 -5.49458215 0.0  3  3  Si
    -0.17484108 -6.98516892 0.0  1  4  H
    -1.66171682 -4.58600741 0.0  2  5  N
    -1.09026419 -2.87456374 0.0  3  6  Si
    -1.53038332 -0.70765692 0.0  3  7  Si
    -3.14415959 -0.09186471 0.0  2  8  N
    -3.40268075 0.95848335 0.0  1  9  H
    -3.95073599 -0.76720972 0.0  1  10  H
    -0.17836637 0.41349951 0.0  2  11  N
    1.49520211 -0.0473996 0.0  3  12  Si
    2.45603905 1.10727302 0.0  1  13  H
    2.30451743 -1.58574382 0.0  2  14  N
    1.10725559 -2.84610319 0.0  3  15  Si
    0.5767075791335611 7.500428005066232 0.0  1  16  H
    -0.23200310086643888 6.808222125066232 0.0  2  17  N
    -1.8885929408664388 7.521342225066232 0.0  3  18  Si
    -1.7917277708664388 9.032067435066232 0.0  1  19  H
    -3.6147492908664387 6.1782940950662315 0.0  3  20  Si
    -5.969203540866439 6.170307165066232 0.0  3  21  Si
    -6.531621660866439 6.9047968150662316 -1.20183078  1  22  H
    -6.269017290866439 4.6912160350662315 -0.08618332  1  23  H
    -6.531734120866439 6.735139625066232 1.28814761  1  24  H
    -2.685358650866439 4.107722865066232 0.0  3  25  Si
    -3.634827010866439 2.819186735066231 0.0  4  26  O
    -0.894413780866439 3.9339873950662314 0.0  2  27  N
    -0.5634224208664389 2.9016304150662315 0.0  1  28  H
    0.4140444391335611 5.128533815066231 0.0  3  29  Si
    1.979981369133561 4.861286965066232 0.0  4  30  O
%endblock AtomicCoordinatesAndAtomicSpecies
#############
# Unit Cell
#############
LatticeConstant 1.0 Ang
%block LatticeVectors
    30.00000    0.000000    0.000000
    0.000000    45.00000    0.000000
    0.000000    0.000000    10.00000
%endblock LatticeVectors
%include ../../../../Defaults.fdf
************************** End of input data file *****************************

reinit: -----------------------------------------------------------------------
reinit: System Name: 
reinit: -----------------------------------------------------------------------
reinit: System Label: AT
reinit: -----------------------------------------------------------------------

initatom: Reading input for the pseudopotentials and atomic orbitals ----------
Species number:   1 Atomic number:    1 Label: H
Species number:   2 Atomic number:    7 Label: N
Species number:   3 Atomic number:   14 Label: Si
Species number:   4 Atomic number:    8 Label: O

Ground state valence configuration:   1s01
Reading pseudopotential information in formatted form from H.psf

Pseudopotential generated from a relativistic atomic calculation

Valence configuration for pseudopotential generation:
1s( 1.00) rc: 0.01
2p( 0.00) rc: 0.60
3d( 0.00) rc: 1.99
4f( 0.00) rc: 2.49
Ground state valence configuration:   2s02  2p03
Reading pseudopotential information in formatted form from N.psf

Pseudopotential generated from a relativistic atomic calculation

Valence configuration for pseudopotential generation:
2s( 2.00) rc: 0.94
2p( 3.00) rc: 0.59
3d( 0.00) rc: 3.46
4f( 0.00) rc: 2.47
Ground state valence configuration:   3s02  3p02
Reading pseudopotential information in formatted form from Si.psf

Pseudopotential generated from a relativistic atomic calculation

Valence configuration for pseudopotential generation:
3s( 2.00) rc: 1.67
3p( 2.00) rc: 2.04
3d( 0.00) rc: 2.89
4f( 0.00) rc: 2.49
Ground state valence configuration:   2s02  2p04
Reading pseudopotential information in formatted form from O.psf

Pseudopotential generated from a relativistic atomic calculation

Valence configuration for pseudopotential generation:
2s( 2.00) rc: 0.45
2p( 4.00) rc: 0.92
3d( 0.00) rc: 2.24
4f( 0.00) rc: 0.25
For H, standard SIESTA heuristics set lmxkb to 2
 (one more than the basis l, including polarization orbitals).
Use PS.lmax or PS.KBprojectors blocks to override.
For N, standard SIESTA heuristics set lmxkb to 3
 (one more than the basis l, including polarization orbitals).
Use PS.lmax or PS.KBprojectors blocks to override.
For Si, standard SIESTA heuristics set lmxkb to 3
 (one more than the basis l, including polarization orbitals).
Use PS.lmax or PS.KBprojectors blocks to override.
For O, standard SIESTA heuristics set lmxkb to 3
 (one more than the basis l, including polarization orbitals).
Use PS.lmax or PS.KBprojectors blocks to override.

<basis_specs>
===============================================================================
H                    Z=   1    Mass=  1.0100        Charge= 0.17977+309
Lmxo=0 Lmxkb= 2    BasisType=split      Semic=F
L=0  Nsemic=0  Cnfigmx=1
          i=1  nzeta=2  polorb=1  (1s)
            splnorm:   0.62000    
               vcte:    0.0000    
               rinn:    0.0000    
               qcoe:    0.0000    
               qyuk:    0.0000    
               qwid:   0.10000E-01
                rcs:    0.0000      0.0000    
            lambdas:    1.0000      1.0000    
-------------------------------------------------------------------------------
L=0  Nkbl=1  erefs: 0.17977+309
L=1  Nkbl=1  erefs: 0.17977+309
L=2  Nkbl=1  erefs: 0.17977+309
===============================================================================
</basis_specs>

atom: Called for H                     (Z =   1)

read_vps: Pseudopotential generation method:
read_vps: ATM4.2.7  Troullier-Martins                       
Valence charge for ps generation:    1.00000

xc_check: Exchange-correlation functional:
xc_check: GGA Perdew, Burke & Ernzerhof 1996
V l=0 = -2*Zval/r beyond r=  0.0098
V l=1 = -2*Zval/r beyond r=  0.5817
V l=2 = -2*Zval/r beyond r=  1.9372
All V_l potentials equal beyond r=  1.9372
This should be close to max(r_c) in ps generation
All pots = -2*Zval/r beyond r=  1.9372

VLOCAL1: 99.0% of the norm of Vloc inside     11.567 Ry
VLOCAL1: 99.9% of the norm of Vloc inside     26.362 Ry
atom: Maximum radius for 4*pi*r*r*local-pseudopot. charge    2.25106
atom: Maximum radius for r*vlocal+2*Zval:    1.91306
GHOST: No ghost state for L =  0
GHOST: No ghost state for L =  1
GHOST: No ghost state for L =  2

KBgen: Kleinman-Bylander projectors: 
   l= 0   rc=  2.036604   el= -0.477180   Ekb= -6.081590   kbcos= -0.277285
   l= 1   rc=  2.195416   el=  0.001076   Ekb= -0.926943   kbcos= -0.034643
   l= 2   rc=  2.251056   el=  0.002010   Ekb= -0.130941   kbcos= -0.009788

KBgen: Total number of Kleinman-Bylander projectors:    9
atom: -------------------------------------------------------------------------

atom: SANKEY-TYPE ORBITALS:
atom: Selected multiple-zeta basis: split     

SPLIT: Orbitals with angular momentum L= 0

SPLIT: Basis orbitals for state 1s

SPLIT: PAO cut-off radius determined from an
SPLIT: energy shift=  0.002000 Ry

   izeta = 1
                 lambda =    1.000000
                     rc =    6.518340
                 energy =   -0.475305
                kinetic =    0.912139
    potential(screened) =   -1.387444
       potential(ionic) =   -1.907295

   izeta = 2
                 rmatch =    2.141150
              splitnorm =    0.620000
                 energy =    0.566467
                kinetic =    3.772856
    potential(screened) =   -3.206389
       potential(ionic) =   -3.759093

POLgen: Perturbative polarization orbital with L=  1

POLgen: Polarization orbital for state 1s

   izeta = 1
                     rc =    6.518340
                 energy =    0.533861
                kinetic =    1.121086
    potential(screened) =   -0.587225
       potential(ionic) =   -1.053027
atom: Total number of Sankey-type orbitals:  5

atm_pop: Valence configuration (for local Pseudopot. screening):
 1s( 1.00)                                                            
Vna: chval, zval:    1.00000   1.00000

Vna:  Cut-off radius for the neutral-atom potential:   6.518340

atom: _________________________________________________________________________

<basis_specs>
===============================================================================
N                    Z=   7    Mass=  14.010        Charge= 0.17977+309
Lmxo=1 Lmxkb= 3    BasisType=split      Semic=F
L=0  Nsemic=0  Cnfigmx=2
          i=1  nzeta=2  polorb=0  (2s)
            splnorm:   0.28000    
               vcte:    0.0000    
               rinn:    0.0000    
               qcoe:    0.0000    
               qyuk:    0.0000    
               qwid:   0.10000E-01
                rcs:    0.0000      0.0000    
            lambdas:    1.0000      1.0000    
L=1  Nsemic=0  Cnfigmx=2
          i=1  nzeta=2  polorb=1  (2p)
            splnorm:   0.28000    
               vcte:    0.0000    
               rinn:    0.0000    
               qcoe:    0.0000    
               qyuk:    0.0000    
               qwid:   0.10000E-01
                rcs:    0.0000      0.0000    
            lambdas:    1.0000      1.0000    
-------------------------------------------------------------------------------
L=0  Nkbl=1  erefs: 0.17977+309
L=1  Nkbl=1  erefs: 0.17977+309
L=2  Nkbl=1  erefs: 0.17977+309
L=3  Nkbl=1  erefs: 0.17977+309
===============================================================================
</basis_specs>

atom: Called for N                     (Z =   7)

read_vps: Pseudopotential generation method:
read_vps: ATM4.2.7  Troullier-Martins                       
Valence charge for ps generation:    5.00000

xc_check: Exchange-correlation functional:
xc_check: GGA Perdew, Burke & Ernzerhof 1996
V l=0 = -2*Zval/r beyond r=  1.2889
V l=1 = -2*Zval/r beyond r=  1.2889
V l=2 = -2*Zval/r beyond r=  3.4178
V l=3 = -2*Zval/r beyond r=  2.4084
All V_l potentials equal beyond r=  3.3753
This should be close to max(r_c) in ps generation
All pots = -2*Zval/r beyond r=  3.4178

VLOCAL1: 99.0% of the norm of Vloc inside      3.810 Ry
VLOCAL1: 99.9% of the norm of Vloc inside      8.683 Ry
atom: Maximum radius for 4*pi*r*r*local-pseudopot. charge    4.02088
atom: Maximum radius for r*vlocal+2*Zval:    3.54838
GHOST: No ghost state for L =  0
GHOST: No ghost state for L =  1
GHOST: No ghost state for L =  2
GHOST: No ghost state for L =  3

KBgen: Kleinman-Bylander projectors: 
   l= 0   rc=  3.417763   el= -1.365098   Ekb= -4.433130   kbcos= -0.707855
   l= 1   rc=  3.375302   el= -0.521201   Ekb=-13.264039   kbcos= -0.535594
   l= 2   rc=  3.872880   el=  0.001991   Ekb= -0.641094   kbcos= -0.062456
   l= 3   rc=  3.970931   el=  0.003093   Ekb= -0.474517   kbcos= -0.018236

KBgen: Total number of Kleinman-Bylander projectors:   16
atom: -------------------------------------------------------------------------

atom: SANKEY-TYPE ORBITALS:
atom: Selected multiple-zeta basis: split     

SPLIT: Orbitals with angular momentum L= 0

SPLIT: Basis orbitals for state 2s

SPLIT: PAO cut-off radius determined from an
SPLIT: energy shift=  0.002000 Ry

   izeta = 1
                 lambda =    1.000000
                     rc =    4.730425
                 energy =   -1.363399
                kinetic =    1.245246
    potential(screened) =   -2.608645
       potential(ionic) =   -8.121105

   izeta = 2
                 rmatch =    2.531849
              splitnorm =    0.280000
                 energy =   -0.959908
                kinetic =    2.409435
    potential(screened) =   -3.369343
       potential(ionic) =   -9.427975

SPLIT: Orbitals with angular momentum L= 1

SPLIT: Basis orbitals for state 2p

SPLIT: PAO cut-off radius determined from an
SPLIT: energy shift=  0.002000 Ry

   izeta = 1
                 lambda =    1.000000
                     rc =    5.924108
                 energy =   -0.519262
                kinetic =    3.672940
    potential(screened) =   -4.192202
       potential(ionic) =   -9.518354

   izeta = 2
                 rmatch =    2.531849
              splitnorm =    0.280000
                 energy =   -0.104258
                kinetic =    6.807538
    potential(screened) =   -6.911796
       potential(ionic) =  -13.149920

POLgen: Perturbative polarization orbital with L=  2

POLgen: Polarization orbital for state 2p

   izeta = 1
                     rc =    5.924108
                 energy =    1.427508
                kinetic =    2.872379
    potential(screened) =   -1.444871
       potential(ionic) =   -5.563644
atom: Total number of Sankey-type orbitals: 13

atm_pop: Valence configuration (for local Pseudopot. screening):
 2s( 2.00)                                                            
 2p( 3.00)                                                            
Vna: chval, zval:    5.00000   5.00000

Vna:  Cut-off radius for the neutral-atom potential:   5.924108

atom: _________________________________________________________________________

<basis_specs>
===============================================================================
Si                   Z=  14    Mass=  28.090        Charge= 0.17977+309
Lmxo=1 Lmxkb= 3    BasisType=split      Semic=F
L=0  Nsemic=0  Cnfigmx=3
          i=1  nzeta=2  polorb=0  (3s)
            splnorm:   0.28000    
               vcte:    0.0000    
               rinn:    0.0000    
               qcoe:    0.0000    
               qyuk:    0.0000    
               qwid:   0.10000E-01
                rcs:    0.0000      0.0000    
            lambdas:    1.0000      1.0000    
L=1  Nsemic=0  Cnfigmx=3
          i=1  nzeta=2  polorb=1  (3p)
            splnorm:   0.28000    
               vcte:    0.0000    
               rinn:    0.0000    
               qcoe:    0.0000    
               qyuk:    0.0000    
               qwid:   0.10000E-01
                rcs:    0.0000      0.0000    
            lambdas:    1.0000      1.0000    
-------------------------------------------------------------------------------
L=0  Nkbl=1  erefs: 0.17977+309
L=1  Nkbl=1  erefs: 0.17977+309
L=2  Nkbl=1  erefs: 0.17977+309
L=3  Nkbl=1  erefs: 0.17977+309
===============================================================================
</basis_specs>

atom: Called for Si                    (Z =  14)

read_vps: Pseudopotential generation method:
read_vps: ATM4.2.7  Troullier-Martins                       
Valence charge for ps generation:    4.00000

xc_check: Exchange-correlation functional:
xc_check: GGA Perdew, Burke & Ernzerhof 1996
V l=0 = -2*Zval/r beyond r=  2.7826
V l=1 = -2*Zval/r beyond r=  2.7826
V l=2 = -2*Zval/r beyond r=  2.9253
V l=3 = -2*Zval/r beyond r=  2.7826
All V_l potentials equal beyond r=  2.8530
This should be close to max(r_c) in ps generation
All pots = -2*Zval/r beyond r=  2.9253

VLOCAL1: 99.0% of the norm of Vloc inside      5.333 Ry
VLOCAL1: 99.9% of the norm of Vloc inside     12.154 Ry
atom: Maximum radius for 4*pi*r*r*local-pseudopot. charge    3.39869
atom: Maximum radius for r*vlocal+2*Zval:    2.96205
GHOST: No ghost state for L =  0
GHOST: No ghost state for L =  1
GHOST: No ghost state for L =  2
GHOST: No ghost state for L =  3

KBgen: Kleinman-Bylander projectors: 
   l= 0   rc=  3.075247   el= -0.794092   Ekb=  5.879390   kbcos=  0.167461
   l= 1   rc=  3.153101   el= -0.300068   Ekb=  2.642817   kbcos=  0.058301
   l= 2   rc=  3.273594   el=  0.001958   Ekb= -1.185135   kbcos= -0.104411
   l= 3   rc=  3.232927   el=  0.003046   Ekb= -0.497174   kbcos= -0.015889

KBgen: Total number of Kleinman-Bylander projectors:   16
atom: -------------------------------------------------------------------------

atom: SANKEY-TYPE ORBITALS:
atom: Selected multiple-zeta basis: split     

SPLIT: Orbitals with angular momentum L= 0

SPLIT: Basis orbitals for state 3s

SPLIT: PAO cut-off radius determined from an
SPLIT: energy shift=  0.002000 Ry

   izeta = 1
                 lambda =    1.000000
                     rc =    6.429618
                 energy =   -0.792283
                kinetic =    0.525293
    potential(screened) =   -1.317576
       potential(ionic) =   -3.744923

   izeta = 2
                 rmatch =    3.998416
              splitnorm =    0.280000
                 energy =   -0.583081
                kinetic =    1.069570
    potential(screened) =   -1.652651
       potential(ionic) =   -4.235185

SPLIT: Orbitals with angular momentum L= 1

SPLIT: Basis orbitals for state 3p

SPLIT: PAO cut-off radius determined from an
SPLIT: energy shift=  0.002000 Ry

   izeta = 1
                 lambda =    1.000000
                     rc =    8.464845
                 energy =   -0.298236
                kinetic =    0.785360
    potential(screened) =   -1.083596
       potential(ionic) =   -3.273779

   izeta = 2
                 rmatch =    4.587816
              splitnorm =    0.280000
                 energy =   -0.131871
                kinetic =    1.403687
    potential(screened) =   -1.535557
       potential(ionic) =   -4.015310

POLgen: Perturbative polarization orbital with L=  2

POLgen: Polarization orbital for state 3p

   izeta = 1
                     rc =    8.464845
                 energy =    0.321949
                kinetic =    1.055677
    potential(screened) =   -0.733728
       potential(ionic) =   -2.672950
atom: Total number of Sankey-type orbitals: 13

atm_pop: Valence configuration (for local Pseudopot. screening):
 3s( 2.00)                                                            
 3p( 2.00)                                                            
Vna: chval, zval:    4.00000   4.00000

Vna:  Cut-off radius for the neutral-atom potential:   8.464845

atom: _________________________________________________________________________

<basis_specs>
===============================================================================
O                    Z=   8    Mass=  16.000        Charge= 0.17977+309
Lmxo=1 Lmxkb= 3    BasisType=split      Semic=F
L=0  Nsemic=0  Cnfigmx=2
          i=1  nzeta=2  polorb=0  (2s)
            splnorm:   0.28000    
               vcte:    0.0000    
               rinn:    0.0000    
               qcoe:    0.0000    
               qyuk:    0.0000    
               qwid:   0.10000E-01
                rcs:    0.0000      0.0000    
            lambdas:    1.0000      1.0000    
L=1  Nsemic=0  Cnfigmx=2
          i=1  nzeta=2  polorb=1  (2p)
            splnorm:   0.28000    
               vcte:    0.0000    
               rinn:    0.0000    
               qcoe:    0.0000    
               qyuk:    0.0000    
               qwid:   0.10000E-01
                rcs:    0.0000      0.0000    
            lambdas:    1.0000      1.0000    
-------------------------------------------------------------------------------
L=0  Nkbl=1  erefs: 0.17977+309
L=1  Nkbl=1  erefs: 0.17977+309
L=2  Nkbl=1  erefs: 0.17977+309
L=3  Nkbl=1  erefs: 0.17977+309
===============================================================================
</basis_specs>

atom: Called for O                     (Z =   8)

read_vps: Pseudopotential generation method:
read_vps: ATM4.2.7  Troullier-Martins                       
Valence charge for ps generation:    6.00000

xc_check: Exchange-correlation functional:
xc_check: GGA Perdew, Burke & Ernzerhof 1996
V l=0 = -2*Zval/r beyond r=  1.1000
V l=1 = -2*Zval/r beyond r=  1.1000
V l=2 = -2*Zval/r beyond r=  2.2154
V l=3 = -2*Zval/r beyond r=  1.1000
All V_l potentials equal beyond r=  2.2154
This should be close to max(r_c) in ps generation
All pots = -2*Zval/r beyond r=  2.2154

VLOCAL1: 99.0% of the norm of Vloc inside      8.845 Ry
VLOCAL1: 99.9% of the norm of Vloc inside     20.157 Ry
atom: Maximum radius for 4*pi*r*r*local-pseudopot. charge    2.67231
atom: Maximum radius for r*vlocal+2*Zval:    2.32897
GHOST: No ghost state for L =  0
GHOST: No ghost state for L =  1
GHOST: No ghost state for L =  2
GHOST: No ghost state for L =  3

KBgen: Kleinman-Bylander projectors: 
   l= 0   rc=  2.243238   el= -1.759686   Ekb=**********   kbcos= -0.171774
   l= 1   rc=  2.328968   el= -0.663873   Ekb=-14.506792   kbcos= -0.519897
   l= 2   rc=  2.573941   el=  0.002031   Ekb= -1.137373   kbcos= -0.019581
   l= 3   rc=  2.606321   el=  0.003153   Ekb= -1.013546   kbcos= -0.003122

KBgen: Total number of Kleinman-Bylander projectors:   16
atom: -------------------------------------------------------------------------

atom: SANKEY-TYPE ORBITALS:
atom: Selected multiple-zeta basis: split     

SPLIT: Orbitals with angular momentum L= 0

SPLIT: Basis orbitals for state 2s

SPLIT: PAO cut-off radius determined from an
SPLIT: energy shift=  0.002000 Ry

   izeta = 1
                 lambda =    1.000000
                     rc =    4.243912
                 energy =   -1.758270
                kinetic =    3.286084
    potential(screened) =   -5.044353
       potential(ionic) =  -12.921184

   izeta = 2
                 rmatch =    2.187845
              splitnorm =    0.280000
                 energy =   -0.885018
                kinetic =    8.134434
    potential(screened) =   -9.019452
       potential(ionic) =  -17.710645

SPLIT: Orbitals with angular momentum L= 1

SPLIT: Basis orbitals for state 2p

SPLIT: PAO cut-off radius determined from an
SPLIT: energy shift=  0.002000 Ry

   izeta = 1
                 lambda =    1.000000
                     rc =    5.314825
                 energy =   -0.661986
                kinetic =    4.917472
    potential(screened) =   -5.579458
       potential(ionic) =  -13.236259

   izeta = 2
                 rmatch =    2.160663
              splitnorm =    0.280000
                 energy =   -0.068760
                kinetic =    9.183374
    potential(screened) =   -9.252135
       potential(ionic) =  -18.274251

POLgen: Perturbative polarization orbital with L=  2

POLgen: Polarization orbital for state 2p

   izeta = 1
                     rc =    5.314825
                 energy =    1.970580
                kinetic =    3.886128
    potential(screened) =   -1.915547
       potential(ionic) =   -7.749584
atom: Total number of Sankey-type orbitals: 13

atm_pop: Valence configuration (for local Pseudopot. screening):
 2s( 2.00)                                                            
 2p( 4.00)                                                            
Vna: chval, zval:    6.00000   6.00000

Vna:  Cut-off radius for the neutral-atom potential:   5.314825

atom: _________________________________________________________________________

prinput: Basis input ----------------------------------------------------------

PAO.BasisType split     

%block ChemicalSpeciesLabel
    1    1 H                       # Species index, atomic number, species label
    2    7 N                       # Species index, atomic number, species label
    3   14 Si                      # Species index, atomic number, species label
    4    8 O                       # Species index, atomic number, species label
%endblock ChemicalSpeciesLabel

%block PAO.Basis                 # Define Basis set
H                     1                    # Species label, number of l-shells
 n=1   0   2 P   1                   # n, l, Nzeta, Polarization, NzetaPol
   6.518      2.141   
   1.000      1.000   
N                     2                    # Species label, number of l-shells
 n=2   0   2                         # n, l, Nzeta 
   4.730      2.532   
   1.000      1.000   
 n=2   1   2 P   1                   # n, l, Nzeta, Polarization, NzetaPol
   5.924      2.532   
   1.000      1.000   
Si                    2                    # Species label, number of l-shells
 n=3   0   2                         # n, l, Nzeta 
   6.430      3.998   
   1.000      1.000   
 n=3   1   2 P   1                   # n, l, Nzeta, Polarization, NzetaPol
   8.465      4.588   
   1.000      1.000   
O                     2                    # Species label, number of l-shells
 n=2   0   2                         # n, l, Nzeta 
   4.244      2.188   
   1.000      1.000   
 n=2   1   2 P   1                   # n, l, Nzeta, Polarization, NzetaPol
   5.315      2.161   
   1.000      1.000   
%endblock PAO.Basis

prinput: ----------------------------------------------------------------------

Dumping basis to NetCDF file H.ion.nc
Dumping basis to NetCDF file N.ion.nc
Dumping basis to NetCDF file Si.ion.nc
Dumping basis to NetCDF file O.ion.nc
coor:   Atomic-coordinates input format  =     Cartesian coordinates
coor:                                          (in Angstroms)

siesta: Atomic coordinates (Bohr) and species
siesta:      4.31792  -9.81768   0.00000  1        1
siesta:      2.59711  -8.81503   0.00000  2        2
siesta:     -0.41253 -10.38326   0.00000  3        3
siesta:     -0.33040 -13.20006   0.00000  1        4
siesta:     -3.14019  -8.66630   0.00000  2        5
siesta:     -2.06030  -5.43214   0.00000  3        6
siesta:     -2.89201  -1.33728   0.00000  3        7
siesta:     -5.94160  -0.17360   0.00000  2        8
siesta:     -6.43014   1.81127   0.00000  1        9
siesta:     -7.46581  -1.44982   0.00000  1       10
siesta:     -0.33706   0.78140   0.00000  2       11
siesta:      2.82552  -0.08957   0.00000  3       12
siesta:      4.64124   2.09244   0.00000  1       13
siesta:      4.35491  -2.99662   0.00000  2       14
siesta:      2.09241  -5.37836   0.00000  3       15
siesta:      1.08982  14.17376   0.00000  1       16
siesta:     -0.43842  12.86568   0.00000  2       17
siesta:     -3.56892  14.21328   0.00000  3       18
siesta:     -3.38588  17.06814   0.00000  1       19
siesta:     -6.83089  11.67529   0.00000  3       20
siesta:    -11.28016  11.66020   0.00000  3       21
siesta:    -12.34298  13.04818  -2.27113  1       22
siesta:    -11.84673   8.86512  -0.16286  1       23
siesta:    -12.34319  12.72757   2.43425  1       24
siesta:     -5.07459   7.76247   0.00000  3       25
siesta:     -6.86883   5.32749   0.00000  4       26
siesta:     -1.69020   7.43416   0.00000  2       27
siesta:     -1.06471   5.48329   0.00000  1       28
siesta:      0.78243   9.69153   0.00000  3       29
siesta:      3.74162   9.18650   0.00000  4       30

siesta: System type = molecule  

initatomlists: Number of atoms, orbitals, and projectors:     30   302   403

siesta: ******************** Simulation parameters ****************************
siesta:
siesta: The following are some of the parameters of the simulation.
siesta: A complete list of the parameters used, including default values,
siesta: can be found in file out.fdf
siesta:
redata: Spin configuration                          = spin-orbit
redata: Number of spin components                   = 8
redata: Time-Reversal Symmetry                      = F
redata: Spin spiral                                 = F
############################################################
This spin-orbit implementation uses a local approximation.
From 4.2 and onwards the full non-local approximation is implemented
You are strongly advised to use >=4.2 versions!
############################################################
redata: Long output                                 =   F
redata: Number of Atomic Species                    =        4
redata: Charge density info will appear in .RHO file
redata: Write Mulliken Pop.                         = NO
redata: Matel table size (NRTAB)                    =     1024
redata: Mesh Cutoff                                 =   340.0000 Ry
redata: Net charge of the system                    =     0.0000 |e|
redata: Min. number of SCF Iter                     =        1
redata: Max. number of SCF Iter                     =      200
redata: SCF mix quantity                            = Hamiltonian
redata: Mix DM or H after convergence               =   F
redata: Recompute H after scf cycle                 =   F
redata: Mix DM in first SCF step                    =   T
redata: Write Pulay info on disk                    =   F
redata: New DM Occupancy tolerance                  = 0.000000000001
redata: No kicks to SCF
redata: DM Mixing Weight for Kicks                  =     0.5000
redata: Require Harris convergence for SCF          =   F
redata: Harris energy tolerance for SCF             =     0.000100 eV
redata: Require DM convergence for SCF              =   T
redata: DM tolerance for SCF                        =     0.000008
redata: Require EDM convergence for SCF             =   F
redata: EDM tolerance for SCF                       =     0.001000 eV
redata: Require H convergence for SCF               =   T
redata: Hamiltonian tolerance for SCF               =     0.000001 eV
redata: Require (free) Energy convergence for SCF   =   F
redata: (free) Energy tolerance for SCF             =     0.000100 eV
redata: Using Saved Data (generic)                  =   F
redata: Use continuation files for DM               =   T
redata: Neglect nonoverlap interactions             =   F
redata: Method of Calculation                       = Diagonalization
redata: Electronic Temperature                      =   299.9978 K
redata: Fix the spin of the system                  =   F
redata: Dynamics option                             = Verlet MD run
redata: Initial MD time step                        =        1
redata:   Final MD time step                        =        1
redata: Length of MD time step                      =     0.5000 fs
redata: Initial Temperature of MD run               =     0.0000 K
redata: Perform a MD quench                         =   F
mix.SCF: Pulay mixing                            = Pulay
mix.SCF:    Variant                              = stable
mix.SCF:    History steps                        = 6
mix.SCF:    Linear mixing weight                 =     0.250000
mix.SCF:    Mixing weight                        =     0.250000
mix.SCF:    SVD condition                        = 0.1000E-07
mix.SCF:    Restart steps                        = 24
mix.SCF:    Restart save steps                   = 3
mix.SCF: Spin-component mixing                   all
redata: Save all siesta data in one NC              =   F
redata: ***********************************************************************

%block SCF.Mixers
  Pulay
%endblock SCF.Mixers

%block SCF.Mixer.Pulay
  # Mixing method
  method pulay
  variant stable

  # Mixing options
  weight 0.2500
  weight.linear 0.2500
  history 6
  restart 24
  restart.save 3
%endblock SCF.Mixer.Pulay

Size of DM history Fstack: 3
Total number of electrons:    98.000000
Total ionic charge:    98.000000

* ProcessorY, Blocksize:    2  24


* Orbital distribution balance (max,min):    48    24


Time-reversal symmetry not used.

siesta: k-grid: Number of k-points =     1
siesta: k-grid: Cutoff (effective) =     5.000 Ang
siesta: k-grid: Supercell and displacements
siesta: k-grid:    1   0   0      0.000
siesta: k-grid:    0   1   0      0.000
siesta: k-grid:    0   0   1      0.000

diag: Algorithm                                     = ELPA-1stage
diag: Parallel over k                               =   F
diag: Use parallel 2D distribution                  =   T
diag: Parallel block-size                           = 24
diag: Parallel distribution                         =     2 x     4
diag: Used triangular part                          = Lower
diag: Absolute tolerance                            =  0.100E-15
diag: Orthogonalization factor                      =  0.100E-05
diag: Memory factor                                 =  1.0000


ts: **************************************************************
ts: Save H and S matrices                           =    F
ts: Save DM and EDM matrices                        =    F
ts: Only save the overlap matrix S                  =    F
ts: **************************************************************

************************ Begin: TS CHECKS AND WARNINGS ************************
************************ End: TS CHECKS AND WARNINGS **************************


                     ====================================
                        Begin MD step =      1
                     ====================================

outcoor: Atomic coordinates (Ang):                          
    2.28494382   -5.19529124    0.00000000   1       1  H
    1.37433094   -4.66471070    0.00000000   2       2  N
   -0.21830245   -5.49458215    0.00000000   3       3  Si
   -0.17484108   -6.98516892    0.00000000   1       4  H
   -1.66171682   -4.58600741    0.00000000   2       5  N
   -1.09026419   -2.87456374    0.00000000   3       6  Si
   -1.53038332   -0.70765692    0.00000000   3       7  Si
   -3.14415959   -0.09186471    0.00000000   2       8  N
   -3.40268075    0.95848335    0.00000000   1       9  H
   -3.95073599   -0.76720972    0.00000000   1      10  H
   -0.17836637    0.41349951    0.00000000   2      11  N
    1.49520211   -0.04739960    0.00000000   3      12  Si
    2.45603905    1.10727302    0.00000000   1      13  H
    2.30451743   -1.58574382    0.00000000   2      14  N
    1.10725559   -2.84610319    0.00000000   3      15  Si
    0.57670758    7.50042801    0.00000000   1      16  H
   -0.23200310    6.80822213    0.00000000   2      17  N
   -1.88859294    7.52134223    0.00000000   3      18  Si
   -1.79172777    9.03206744    0.00000000   1      19  H
   -3.61474929    6.17829410    0.00000000   3      20  Si
   -5.96920354    6.17030717    0.00000000   3      21  Si
   -6.53162166    6.90479682   -1.20183078   1      22  H
   -6.26901729    4.69121604   -0.08618332   1      23  H
   -6.53173412    6.73513963    1.28814761   1      24  H
   -2.68535865    4.10772287    0.00000000   3      25  Si
   -3.63482701    2.81918674    0.00000000   4      26  O
   -0.89441378    3.93398740    0.00000000   2      27  N
   -0.56342242    2.90163042    0.00000000   1      28  H
    0.41404444    5.12853382    0.00000000   3      29  Si
    1.97998137    4.86128697    0.00000000   4      30  O

outcell: Unit cell vectors (Ang):
       30.000000    0.000000    0.000000
        0.000000   45.000000    0.000000
        0.000000    0.000000   10.000000

outcell: Cell vector modules (Ang)   :   30.000000   45.000000   10.000000
outcell: Cell angles (23,13,12) (deg):     90.0000     90.0000     90.0000
outcell: Cell volume (Ang**3)        :  13500.0000
<dSpData1D:S at geom step 1
  <sparsity:sparsity for geom step 1
    nrows_g=302 nrows=48 sparsity=.0986 nnzs=8991, refcount: 8>
  <dData1D:(new from dSpData1D) n=8991, refcount: 1>
refcount: 1>
new_DM -- step:     1
Initializing Density Matrix...

Attempting to read DM from file... Failed...
DM filled with atomic data:
<dSpData2D:DM initialized from atoms
  <sparsity:sparsity for geom step 1
    nrows_g=302 nrows=48 sparsity=.0986 nnzs=8991, refcount: 9>
  <dData2D:DM n=8991 m=8, refcount: 1>
refcount: 1>
     spin moment: S , {S} =   56.00000   0.00000   0.00000  56.00000
No. of atoms with KB's overlaping orbs in proc 0. Max # of overlaps:      28     172

Initializing spin-orbit part of the Hamiltonian
  Adding spin-orbit effects for H 
  Adding spin-orbit effects for N 
  Adding spin-orbit effects for Si
  Adding spin-orbit effects for O 


New grid distribution:   1
           1       1:  180    1:  125    1:   15
           2       1:  180    1:  125   16:   30
           3       1:  180    1:  125   31:   45
           4       1:  180    1:  125   46:   60
           5       1:  180  126:  250    1:   15
           6       1:  180  126:  250   16:   30
           7       1:  180  126:  250   31:   45
           8       1:  180  126:  250   46:   60

InitMesh: MESH =   360 x   500 x   120 =    21600000
InitMesh: (bp) =   180 x   250 x    60 =     2700000
InitMesh: Mesh cutoff (required, used) =   340.000   341.206 Ry
ExtMesh (bp) on 0 =   288 x   225 x   123 =     7970400
New grid distribution:   2
           1     154:  180   40:  229    1:   60
           2       1:  159    1:   23    1:   60
           3       1:  159   24:   39    1:   60
           4     160:  180    1:   20    1:   60
           5       1:  153   40:  230    1:   60
           6       1:  153  231:  250    1:   60
           7     154:  180  230:  250    1:   60
           8     160:  180   21:   39    1:   60
New grid distribution:   3
           1     147:  180   49:  220    1:   60
           2       1:  141    1:   26    1:   60
           3       1:  141   27:   48    1:   60
           4     142:  180    1:   26    1:   60
           5       1:  146   49:  223    1:   60
           6       1:  146  224:  250    1:   60
           7     147:  180  221:  250    1:   60
           8     142:  180   27:   48    1:   60
Setting up quadratic distribution...
ExtMesh (bp) on 0 =   135 x   290 x   168 =     6577200
PhiOnMesh: Number of (b)points on node 0 =               307800
PhiOnMesh: nlist on node 0 =              1660586

stepf: Fermi-Dirac step function

siesta: Program's energy decomposition (eV):
siesta: Ebs     =      -612.413108
siesta: Eions   =      3553.971015
siesta: Ena     =       374.831399
siesta: Ekin    =      3166.353026
siesta: Enl     =     -2980.594295
siesta: Eso     =        -0.003910
siesta: Edftu   =         0.000000
siesta: DEna    =       129.832549
siesta: DUscf   =        73.559987
siesta: DUext   =         0.000000
siesta: Exc     =     -1167.803346
siesta: eta*DQ  =         0.000000
siesta: Emadel  =         0.000000
siesta: Emeta   =         0.000000
siesta: Emolmec =         0.000000
siesta: Ekinion =         0.000000
siesta: Eharris =     -3889.695596
siesta: Etot    =     -3957.795604
siesta: FreeEng =     -3957.798944

        iscf     Eharris(eV)        E_KS(eV)     FreeEng(eV)     dDmax    Ef(eV) dHmax(eV)
   scf:    1    -3889.695596    -3957.795604    -3957.798944  0.968713 -4.937436 20.481583
     spin moment: S , {S} =    2.02384  -0.00000  -0.00000   2.02384
timer: Routine,Calls,Time,% = IterSCF        1      12.462  33.81
   scf:    2    -3998.808935    -3990.469759    -3990.469762  0.462200 -4.226133 10.611172
     spin moment: S , {S} =    2.00010   0.00000  -0.00000   2.00010
   scf:    3    -3974.013579    -3990.614131    -3990.660493  0.426855 -4.110005  9.975961
     spin moment: S , {S} =    1.31915  -0.00000  -0.00000   1.31915
   scf:    4    -4002.169159    -3997.975750    -3997.975752  0.146775 -3.823876  4.380297
     spin moment: S , {S} =    0.00010  -0.00000   0.00000   0.00010
   scf:    5    -3999.365144    -3998.735040    -3998.735040  0.037133 -3.707312  2.491252
     spin moment: S , {S} =    0.00006  -0.00000   0.00000   0.00006
   scf:    6    -3999.473813    -3999.102078    -3999.102078  0.026165 -3.699141  1.426248
     spin moment: S , {S} =    0.00003  -0.00000   0.00000   0.00003
   scf:    7    -3999.477778    -3999.284280    -3999.284281  0.022504 -3.757094  0.726542
     spin moment: S , {S} =    0.00001  -0.00000   0.00000   0.00001
   scf:    8    -3999.400524    -3999.340573    -3999.340574  0.011337 -3.793590  0.436506
     spin moment: S , {S} =    0.00000  -0.00000   0.00000   0.00000
   scf:    9    -3999.386899    -3999.362790    -3999.362796  0.007162 -3.809072  0.307090
     spin moment: S , {S} =    0.00001  -0.00000   0.00000  -0.00001
   scf:   10    -3999.411168    -3999.382807    -3999.382915  0.016498 -3.829001  0.123092
     spin moment: S , {S} =    0.00027  -0.00000  -0.00000  -0.00027
   scf:   11    -3999.385432    -3999.384126    -3999.384226  0.003695 -3.821044  0.047171
     spin moment: S , {S} =    0.00005  -0.00000  -0.00000  -0.00005
   scf:   12    -3999.385026    -3999.384565    -3999.384674  0.001753 -3.819080  0.030093
     spin moment: S , {S} =    0.00002  -0.00000  -0.00000  -0.00002
   scf:   13    -3999.385195    -3999.384866    -3999.384977  0.001678 -3.817449  0.025177
     spin moment: S , {S} =    0.00001  -0.00000  -0.00000  -0.00001
   scf:   14    -3999.385389    -3999.385108    -3999.385219  0.001855 -3.816583  0.018239
     spin moment: S , {S} =    0.00001  -0.00000  -0.00000  -0.00001
   scf:   15    -3999.385526    -3999.385288    -3999.385400  0.002226 -3.816097  0.011887
     spin moment: S , {S} =    0.00001  -0.00000  -0.00000  -0.00001
   scf:   16    -3999.385443    -3999.385351    -3999.385463  0.001580 -3.816098  0.005388
     spin moment: S , {S} =    0.00000  -0.00000  -0.00000  -0.00000
   scf:   17    -3999.385378    -3999.385362    -3999.385474  0.000636 -3.816256  0.003641
     spin moment: S , {S} =    0.00000  -0.00000  -0.00000  -0.00000
   scf:   18    -3999.385371    -3999.385366    -3999.385477  0.000427 -3.816424  0.001502
     spin moment: S , {S} =    0.00000  -0.00000  -0.00000  -0.00000
   scf:   19    -3999.385368    -3999.385367    -3999.385478  0.000145 -3.816433  0.000820
     spin moment: S , {S} =    0.00000   0.00000  -0.00000  -0.00000
   scf:   20    -3999.385367    -3999.385367    -3999.385478  0.000055 -3.816448  0.000582
     spin moment: S , {S} =    0.00000   0.00000  -0.00000  -0.00000
   scf:   21    -3999.385367    -3999.385367    -3999.385478  0.000059 -3.816445  0.000309
     spin moment: S , {S} =    0.00000   0.00000  -0.00000  -0.00000
   scf:   22    -3999.385367    -3999.385367    -3999.385478  0.000058 -3.816453  0.000153
     spin moment: S , {S} =    0.00000   0.00000  -0.00000  -0.00000
   scf:   23    -3999.385367    -3999.385367    -3999.385478  0.000011 -3.816454  0.000117
     spin moment: S , {S} =    0.00000  -0.00000  -0.00000  -0.00000
   scf:   24    -3999.385367    -3999.385367    -3999.385478  0.000006 -3.816453  0.000084
     spin moment: S , {S} =    0.00000   0.00000  -0.00000  -0.00000
mix: Pulay -- resetting history
   scf:   25    -3999.385367    -3999.385367    -3999.385478  0.000008 -3.816451  0.000041
     spin moment: S , {S} =    0.00000   0.00000   0.00000  -0.00000
   scf:   26    -3999.385367    -3999.385367    -3999.385478  0.000004 -3.816450  0.000026
     spin moment: S , {S} =    0.00000   0.00000   0.00000  -0.00000
   scf:   27    -3999.385367    -3999.385367    -3999.385478  0.000003 -3.816450  0.000016
     spin moment: S , {S} =    0.00000   0.00000   0.00000  -0.00000
   scf:   28    -3999.385367    -3999.385367    -3999.385478  0.000001 -3.816450  0.000012
     spin moment: S , {S} =    0.00000   0.00000   0.00000   0.00000
   scf:   29    -3999.385367    -3999.385367    -3999.385478  0.000001 -3.816451  0.000007
     spin moment: S , {S} =    0.00000   0.00000   0.00000   0.00000
   scf:   30    -3999.385367    -3999.385367    -3999.385478  0.000001 -3.816451  0.000004
     spin moment: S , {S} =    0.00000   0.00000   0.00000   0.00000
   scf:   31    -3999.385367    -3999.385367    -3999.385478  0.000001 -3.816451  0.000002
     spin moment: S , {S} =    0.00000   0.00000   0.00000   0.00000
   scf:   32    -3999.385367    -3999.385367    -3999.385478  0.000000 -3.816451  0.000001
     spin moment: S , {S} =    0.00000   0.00000   0.00000   0.00000
   scf:   33    -3999.385367    -3999.385367    -3999.385478  0.000000 -3.816451  0.000001
     spin moment: S , {S} =    0.00000   0.00000   0.00000   0.00000

SCF Convergence by DM+H criterion
max |DM_out - DM_in|         :     0.0000001797
max |H_out - H_in|      (eV) :     0.0000006942
SCF cycle converged after 33 iterations

Using DM_out to compute the final energy and forces
No. of atoms with KB's overlaping orbs in proc 0. Max # of overlaps:      28     172

siesta: E_KS(eV) =            -3999.3854

siesta: E_KS - E_eggbox =     -3999.3854
     spin moment: S , {S} =    0.00000   0.00000   0.00000   0.00000

siesta: Atomic forces (eV/Ang):
     1    0.142118   -0.036732   -0.000000
     2   -0.012705    0.029761   -0.000002
     3   -0.012258   -0.015708    0.000000
     4    0.066625   -0.133905    0.000000
     5    0.039347    0.019525   -0.000001
     6   -0.059472    0.006177   -0.000002
     7    0.322354   -0.004095   -0.000010
     8   -0.272435    0.769341    0.000039
     9    0.056376   -0.219139   -0.000064
    10   -0.045825    0.022559   -0.000003
    11   -0.056268   -0.029274    0.000007
    12   -0.076659    0.010621    0.000000
    13   -0.132243   -0.032003    0.000001
    14    0.001578   -0.021026   -0.000002
    15    0.034119    0.019203    0.000008
    16   -0.074636   -0.107072   -0.000947
    17   -0.012148   -0.009909   -0.000803
    18   -0.010717    0.006391    0.005379
    19    0.038314   -0.151415   -0.001515
    20    0.027429    0.022964   -0.001193
    21    0.053606   -0.002802   -0.005922
    22    0.077424    0.017157    0.118606
    23    0.099277    0.002164   -0.004109
    24    0.074484    0.061405   -0.095145
    25   -0.155739   -0.176745    0.000992
    26   -1.833975   -4.343138    0.000430
    27    0.080845   -0.207682   -0.000545
    28   -0.105373    0.162765   -0.000091
    29    0.083147    0.019284   -0.000174
    30    1.578455   -0.225498    0.000228
----------------------------------------
   Tot   -0.084956   -4.546829    0.015159
----------------------------------------
   Max    4.343138
   Res    0.536642    sqrt( Sum f_i^2 / 3N )
----------------------------------------
   Max    4.343138    constrained

Stress tensor Voigt[x,y,z,yz,xz,xy] (kbar):        0.16        0.22       -0.01       -0.01        0.00        0.09
(Free)E + p*V (eV/cell)    -4000.4371
Target enthalpy (eV/cell)    -3999.3855

siesta: Stress tensor (static) (eV/Ang**3):
         0.000102    0.000055    0.000000
         0.000055    0.000140   -0.000004
         0.000000   -0.000004   -0.000008

siesta: Pressure (static):         -0.12480235  kBar

siesta: Stress tensor (total) (eV/Ang**3):
         0.000102    0.000055    0.000000
         0.000055    0.000140   -0.000004
         0.000000   -0.000004   -0.000008

siesta: Pressure (total):         -0.12480235  kBar

siesta: Temp_ion =       0.000 K

siesta: Eigenvalues (eV):
ik =     1
  -22.8347  -22.8347  -22.6943  -22.6943  -21.7399  -21.7399  -21.1920  -21.1920  -20.8860  -20.8860
  -20.3329  -20.3329  -19.3218  -19.3218  -19.1060  -19.1060  -18.5655  -18.5655  -15.1163  -15.1163
  -14.1853  -14.1853  -13.5188  -13.5188  -13.4832  -13.4832  -13.1401  -13.1401  -12.7445  -12.7445
  -12.3063  -12.3063  -11.9272  -11.9272  -11.7817  -11.7817  -11.4285  -11.4285  -11.3022  -11.3022
  -10.7278  -10.7278  -10.6449  -10.6449  -10.0637  -10.0637   -9.6803   -9.6803   -9.4041   -9.4041
   -9.2511   -9.2511   -9.0108   -9.0108   -8.9937   -8.9937   -8.6858   -8.6858   -8.6432   -8.6432
   -8.4412   -8.4412   -8.1366   -8.1366   -8.0647   -8.0647   -8.0465   -8.0465   -7.9991   -7.9991
   -7.7263   -7.7263   -7.3643   -7.3643   -7.2247   -7.2247   -7.2181   -7.2181   -6.8577   -6.8577
   -6.8325   -6.8325   -6.5981   -6.5981   -6.5956   -6.5956   -6.2107   -6.2107   -6.1734   -6.1734
   -5.8096   -5.8096   -5.6614   -5.6614   -5.4707   -5.4707   -4.0531   -4.0531   -3.5798   -3.5798
   -2.7755   -2.7755   -2.2956   -2.2956   -2.1990   -2.1990   -2.0661   -2.0661   -2.0262   -2.0262
   -1.8371   -1.8371   -1.6712   -1.6712   -1.6232   -1.6232   -1.4313   -1.4313   -1.2697   -1.2697
   -1.1605   -1.1605   -0.3264   -0.3264   -0.2624   -0.2624   -0.1823   -0.1823   -0.1026   -0.1026
   -0.0550   -0.0550   -0.0334   -0.0334    0.1870    0.1870    0.6302    0.6302    0.6933    0.6933
    0.7180    0.7180    0.9569    0.9569    1.3659    1.3659    1.4318    1.4318    1.4622    1.4622
    1.5041    1.5041    1.7575    1.7575    1.8593    1.8593    2.2639    2.2639    2.3638    2.3638
    2.5145    2.5145    2.7124    2.7124    2.9866    2.9866    3.1297    3.1297    3.1605    3.1605
    3.1874    3.1874    3.2124    3.2124    3.2402    3.2402    3.3364    3.3364    3.6611    3.6611
    3.9967    3.9967    4.1169    4.1169    4.2980    4.2980    4.4278    4.4278    4.4816    4.4816
    4.6964    4.6964    4.7050    4.7050    4.8921    4.8921    5.0622    5.0622    5.2230    5.2230
    5.3363    5.3363    5.5482    5.5482    5.6458    5.6458    5.7815    5.7815    5.9792    5.9792
    6.0203    6.0203    6.2305    6.2305    6.3136    6.3136    6.5154    6.5154    6.6330    6.6330
    6.7002    6.7002    6.8168    6.8168    7.0443    7.0443    7.2049    7.2049    7.3951    7.3951
    7.5397    7.5397    7.6580    7.6580    7.8130    7.8130    7.8654    7.8654    8.0914    8.0914
    8.4077    8.4077    8.4825    8.4825    8.5082    8.5082    8.7595    8.7595    8.8479    8.8479
    8.9929    8.9929    9.2080    9.2080    9.2884    9.2884    9.4980    9.4980    9.6772    9.6772
    9.8191    9.8191    9.9124    9.9124    9.9921    9.9921   10.0878   10.0878   10.2370   10.2370
   10.7599   10.7599   10.8321   10.8321   11.0222   11.0222   11.2268   11.2268   11.3845   11.3845
   11.3996   11.3996   11.5700   11.5700   11.8550   11.8550   11.9326   11.9326   12.0367   12.0367
   12.3413   12.3413   12.4097   12.4097   12.5418   12.5418   12.8699   12.8699   12.9951   12.9951
   12.9992   12.9992   13.0656   13.0656   13.5390   13.5390   13.6750   13.6750   13.8726   13.8726
   14.0836   14.0836   14.3116   14.3116   14.5422   14.5422   15.0298   15.0298   15.1369   15.1369
   15.2181   15.2181   15.4245   15.4245   15.6299   15.6299   16.0520   16.0520   16.4785   16.4785
   16.9654   16.9654   17.1110   17.1110   17.2476   17.2476   17.2594   17.2594   17.8376   17.8376
   18.1785   18.1785   18.6862   18.6862   18.8312   18.8312   18.8416   18.8416   18.9423   18.9423
   19.0689   19.0689   19.3705   19.3705   19.7974   19.7974   20.0194   20.0194   20.7910   20.7910
   20.9063   20.9063   21.5917   21.5917   21.7805   21.7805   22.3734   22.3734   22.4284   22.4284
   22.6063   22.6063   23.2167   23.2167   23.3062   23.3062   23.4849   23.4849   24.5320   24.5320
   24.7890   24.7890   25.0041   25.0041   25.2146   25.2146   25.8483   25.8483   26.3143   26.3143
   26.7324   26.7324   26.8320   26.8320   26.9272   26.9272   27.9376   27.9376   28.3254   28.3254
   28.7827   28.7827   29.4885   29.4885   29.7241   29.7241   30.9396   30.9396   31.0022   31.0022
   31.1018   31.1018   31.3616   31.3616   31.4954   31.4954   31.5480   31.5480   32.1276   32.1276
   32.2339   32.2339   32.6717   32.6717   33.5297   33.5297   34.1370   34.1370   34.1809   34.1809
   34.5014   34.5014   34.9684   34.9684   35.3476   35.3476   36.2171   36.2171   36.3593   36.3593
   36.6274   36.6274   37.0286   37.0286   37.3394   37.3394   38.3193   38.3193   38.4838   38.4838
   38.7138   38.7138   39.1862   39.1862   39.3672   39.3672   40.0560   40.0560   40.4452   40.4452
   40.9863   40.9863   41.3072   41.3072   41.5773   41.5773   42.2579   42.2579   42.7040   42.7040
   43.1717   43.1717   43.5287   43.5287   43.8129   43.8129   44.1372   44.1372   44.2278   44.2278
   44.9322   44.9322   45.4585   45.4585   45.7844   45.7844   46.2125   46.2125   46.4146   46.4146
   46.6062   46.6062   47.0802   47.0802   47.5045   47.5045   48.1194   48.1194   48.4188   48.4188
   49.0139   49.0139   49.3535   49.3535   49.6257   49.6257   50.1365   50.1365   50.2034   50.2034
   50.5530   50.5530   50.7568   50.7568   50.7937   50.7937   52.3145   52.3145   52.6038   52.6038
   53.0095   53.0095   54.2492   54.2492   54.9635   54.9635   55.1039   55.1039   55.2803   55.2803
   56.5371   56.5371   56.8456   56.8456   57.4652   57.4652   57.6482   57.6482   58.0290   58.0290
   58.3518   58.3518   59.5200   59.5200   59.7551   59.7551   61.4069   61.4069   61.4777   61.4777
   62.4498   62.4498   63.1901   63.1901   63.8726   63.8726   64.7102   64.7102   66.0548   66.0548
   67.0621   67.0621   67.4431   67.4431   67.5420   67.5420   68.0356   68.0356   68.9583   68.9583
   71.6001   71.6001   72.3546   72.3546   80.4158   80.4158   82.2946   82.2946   88.8335   88.8335
   93.4305   93.4305   94.5469   94.5469   95.9272   95.9272   97.3250   97.3250  100.4584  100.4584
  102.6472  102.6472  102.8736  102.8736  117.9655  117.9655  121.2358  121.2358  124.2027  124.2027
  136.5842  136.5842  145.9247  145.9247
siesta: Fermi energy =      -3.816451 eV

siesta: Program's energy decomposition (eV):
siesta: Ebs     =     -1106.392840
siesta: Eions   =      3553.971015
siesta: Ena     =       374.831399
siesta: Ekin    =      2744.545098
siesta: Enl     =     -2524.278131
siesta: Eso     =        -0.004689
siesta: Edftu   =         0.000000
siesta: DEna    =        37.274159
siesta: DUscf   =        13.661034
siesta: DUext   =         0.000000
siesta: Exc     =     -1091.443222
siesta: eta*DQ  =         0.000000
siesta: Emadel  =         0.000000
siesta: Emeta   =         0.000000
siesta: Emolmec =         0.000000
siesta: Ekinion =         0.000000
siesta: Eharris =     -3999.385367
siesta: Etot    =     -3999.385367
siesta: FreeEng =     -3999.385478

siesta: Final energy (eV):
siesta:  Band Struct. =   -1106.392840
siesta:       Kinetic =    2744.545098
siesta:       Hartree =   14621.835175
siesta:       Edftu   =       0.000000
siesta:       Eso     =      -0.004689
siesta:    Ext. field =       0.000000
siesta:   Exch.-corr. =   -1091.443222
siesta:  Ion-electron =  -31678.077381
siesta:       Ion-ion =   11403.759652
siesta:       Ekinion =       0.000000
siesta:         Total =   -3999.385367
siesta:         Fermi =      -3.816451

siesta: Atomic forces (eV/Ang):
siesta:      1    0.142118   -0.036732   -0.000000
siesta:      2   -0.012705    0.029761   -0.000002
siesta:      3   -0.012258   -0.015708    0.000000
siesta:      4    0.066625   -0.133905    0.000000
siesta:      5    0.039347    0.019525   -0.000001
siesta:      6   -0.059472    0.006177   -0.000002
siesta:      7    0.322354   -0.004095   -0.000010
siesta:      8   -0.272435    0.769341    0.000039
siesta:      9    0.056376   -0.219139   -0.000064
siesta:     10   -0.045825    0.022559   -0.000003
siesta:     11   -0.056268   -0.029274    0.000007
siesta:     12   -0.076659    0.010621    0.000000
siesta:     13   -0.132243   -0.032003    0.000001
siesta:     14    0.001578   -0.021026   -0.000002
siesta:     15    0.034119    0.019203    0.000008
siesta:     16   -0.074636   -0.107072   -0.000947
siesta:     17   -0.012148   -0.009909   -0.000803
siesta:     18   -0.010717    0.006391    0.005379
siesta:     19    0.038314   -0.151415   -0.001515
siesta:     20    0.027429    0.022964   -0.001193
siesta:     21    0.053606   -0.002802   -0.005922
siesta:     22    0.077424    0.017157    0.118606
siesta:     23    0.099277    0.002164   -0.004109
siesta:     24    0.074484    0.061405   -0.095145
siesta:     25   -0.155739   -0.176745    0.000992
siesta:     26   -1.833975   -4.343138    0.000430
siesta:     27    0.080845   -0.207682   -0.000545
siesta:     28   -0.105373    0.162765   -0.000091
siesta:     29    0.083147    0.019284   -0.000174
siesta:     30    1.578455   -0.225498    0.000228
siesta: ----------------------------------------
siesta:    Tot   -0.084956   -4.546829    0.015159

siesta: Stress tensor (static) (eV/Ang**3):
siesta:     0.000102    0.000055    0.000000
siesta:     0.000055    0.000140   -0.000004
siesta:     0.000000   -0.000004   -0.000008

siesta: Cell volume =      13500.000000 Ang**3

siesta: Pressure (static):
siesta:                Solid            Molecule  Units
siesta:          -0.00000085         -0.00000102  Ry/Bohr**3
siesta:          -0.00007789         -0.00009330  eV/Ang**3
siesta:          -0.12480235         -0.14948926  kBar
(Free)E+ p_basis*V_orbitals  =       -3978.257393
(Free)Eharris+ p_basis*V_orbitals  =       -3978.257393
     spin moment: S , {S} =    0.00000   0.00000   0.00000   0.00000

siesta: Electric dipole (a.u.)  =   -1.178622    1.919705   -0.001778
siesta: Electric dipole (Debye) =   -2.995761    4.879406   -0.004518

cite: Please see "AT.bib" for an exhaustive BiBTeX file.
cite: Please clearly indicate Siesta version in published work: v4.1.5-1-g384057250
cite: This calculation has made use of the following articles
cite: which are encouraged to be cited in a published work.
        Primary SIESTA paper
          DOI: www.doi.org/10.1088/0953-8984/14/11/302
        Spin-orbit coupling (on-site approximation)
          DOI: www.doi.org/10.1088/0953-8984/19/19/489001


WARNING: alloc-realloc-dealloc name mismatch
         Name: atomlist isa
         Size:              -120. Bytes
         Node:     0
         Subsequent mismatches will not be reported
>> End of run:   1-FEB-2024  18:24:16
Job completed
