Siesta Version  : v4.1.5-1-g384057250
Architecture    : gcc
Compiler version: GNU Fortran (Ubuntu 11.3.0-1ubuntu1~22.04) 11.3.0
Compiler flags  : mpifort -O2 -fPIC -ftree-vectorize -fallow-argument-mismatch
PP flags        : -DFC_HAVE_ABORT -DMPI -DSIESTA__FLOOK -DSIESTA__METIS -DSIESTA__MUMPS -DCDF -DNCDF -DNCDF_4 -DNCDF_PARALLEL -DSIESTA__MRRR -DSIESTA__ELPA
Libraries       : libncdf.a libfdict.a  -lflookall -ldl -lnetcdff -lnetcdf -lhdf5_hl -lhdf5 -lhdf5_fortran -lz -lscalapack-openmpi -lopenblas -lmetis -lzmumps -lcmumps -ldmumps -lmumps_common -lpord -lsmumps -lesmumps -lscotch -lscotcherr -fopenmp -lelpa
PARALLEL version
NetCDF support
NetCDF-4 support
NetCDF-4 MPI-IO support
METIS ordering support
Lua support

* Running on 4 nodes in parallel
>> Start of run:  22-MAY-2023  16:50:53

                           ***********************       
                           *  WELCOME TO SIESTA  *       
                           ***********************       

reinit: Reading from standard input
reinit: Dumped input in INPUT_TMP.06214
************************** Dump of input data file ****************************
SystemLabel      GC
NumberOfAtoms    29
NumberOfSpecies  4
%block ChemicalSpeciesLabel
    1    8  O
    2    7  N
    3   14  Si
    4    1  H
%endblock ChemicalSpeciesLabel
# Single point calculation
MD.TypeOfRun                CG
MD.Steps                    0
SCF.MustConverge            F # In case it does not. There can be 2 very close atoms
AtomicCoordinatesFormat NotScaledCartesianAng
%block AtomicCoordinatesAndAtomicSpecies
0.854927710    3.902811360    0.000000000       1
-3.151486600   0.823854130    0.000000000       2
1.928518680    1.174000900    0.000000000       2
0.979899500    -1.830275890   0.000000000       2
-2.159258930   -2.028004800   0.000000000       2
3.785319770    -1.112700660   0.000000000       2
-1.345933810   0.976250250    0.000000000       3
-0.599439880   -1.096077170   0.000000000       3
0.453182890    2.350510230    0.000000000       3
2.133302030    -0.576510800   0.000000000       3
-3.516065660   -0.842056510   0.000000000       3
2.824527830    1.754723110    0.000000000       4
-4.877551690   -1.469214660   0.000000000       4
3.994952020    -2.143204000   0.000000000       4
4.620903610    -0.483666060   0.000000000       4
-2.279085180   -3.081514090   0.000000000       4
4.747044251    4.963945812    -0.000000000      3
6.616003741    6.223589442    -0.000000000      3
6.157071361    2.222207592    -0.000000000      3
8.224664081    4.728798812    -0.000000000      3
4.806574201    3.278993352    -0.000000000      2
3.117045051    5.594006042    -0.000000000      2
7.800960231    3.013298002    -0.000000000      2
6.896367441    7.693811962    -0.000000000      4
9.720075461    4.947651352    -0.000000000      4
2.872586061    6.612471992    -0.000000000      4
2.290303871    4.937157912    -0.000000000      4
6.216347121    0.639765562    -0.000000000      1
8.572615821    2.286330642    -0.000000000      4
%endblock AtomicCoordinatesAndAtomicSpecies
%include ../../../Defaults.fdf
************************** End of input data file *****************************

reinit: -----------------------------------------------------------------------
reinit: System Name: 
reinit: -----------------------------------------------------------------------
reinit: System Label: GC
reinit: -----------------------------------------------------------------------

initatom: Reading input for the pseudopotentials and atomic orbitals ----------
Species number:   1 Atomic number:    8 Label: O
Species number:   2 Atomic number:    7 Label: N
Species number:   3 Atomic number:   14 Label: Si
Species number:   4 Atomic number:    1 Label: H

Ground state valence configuration:   2s02  2p04
Reading pseudopotential information in formatted form from O.psf

Pseudopotential generated from a relativistic atomic calculation

Valence configuration for pseudopotential generation:
2s( 2.00) rc: 0.45
2p( 4.00) rc: 0.92
3d( 0.00) rc: 2.24
4f( 0.00) rc: 0.25
Ground state valence configuration:   2s02  2p03
Reading pseudopotential information in formatted form from N.psf

Pseudopotential generated from a relativistic atomic calculation

Valence configuration for pseudopotential generation:
2s( 2.00) rc: 0.94
2p( 3.00) rc: 0.59
3d( 0.00) rc: 3.46
4f( 0.00) rc: 2.47
Ground state valence configuration:   3s02  3p02
Reading pseudopotential information in formatted form from Si.psf

Pseudopotential generated from a relativistic atomic calculation

Valence configuration for pseudopotential generation:
3s( 2.00) rc: 1.67
3p( 2.00) rc: 2.04
3d( 0.00) rc: 2.89
4f( 0.00) rc: 2.49
Ground state valence configuration:   1s01
Reading pseudopotential information in formatted form from H.psf

Pseudopotential generated from a relativistic atomic calculation

Valence configuration for pseudopotential generation:
1s( 1.00) rc: 0.01
2p( 0.00) rc: 0.60
3d( 0.00) rc: 1.99
4f( 0.00) rc: 2.49
For O, standard SIESTA heuristics set lmxkb to 3
 (one more than the basis l, including polarization orbitals).
Use PS.lmax or PS.KBprojectors blocks to override.
For N, standard SIESTA heuristics set lmxkb to 3
 (one more than the basis l, including polarization orbitals).
Use PS.lmax or PS.KBprojectors blocks to override.
For Si, standard SIESTA heuristics set lmxkb to 3
 (one more than the basis l, including polarization orbitals).
Use PS.lmax or PS.KBprojectors blocks to override.
For H, standard SIESTA heuristics set lmxkb to 2
 (one more than the basis l, including polarization orbitals).
Use PS.lmax or PS.KBprojectors blocks to override.

<basis_specs>
===============================================================================
O                    Z=   8    Mass=  16.000        Charge= 0.17977+309
Lmxo=1 Lmxkb= 3    BasisType=split      Semic=F
L=0  Nsemic=0  Cnfigmx=2
          i=1  nzeta=2  polorb=0  (2s)
            splnorm:   0.28000    
               vcte:    0.0000    
               rinn:    0.0000    
               qcoe:    0.0000    
               qyuk:    0.0000    
               qwid:   0.10000E-01
                rcs:    0.0000      0.0000    
            lambdas:    1.0000      1.0000    
L=1  Nsemic=0  Cnfigmx=2
          i=1  nzeta=2  polorb=1  (2p)
            splnorm:   0.28000    
               vcte:    0.0000    
               rinn:    0.0000    
               qcoe:    0.0000    
               qyuk:    0.0000    
               qwid:   0.10000E-01
                rcs:    0.0000      0.0000    
            lambdas:    1.0000      1.0000    
-------------------------------------------------------------------------------
L=0  Nkbl=1  erefs: 0.17977+309
L=1  Nkbl=1  erefs: 0.17977+309
L=2  Nkbl=1  erefs: 0.17977+309
L=3  Nkbl=1  erefs: 0.17977+309
===============================================================================
</basis_specs>

atom: Called for O                     (Z =   8)

read_vps: Pseudopotential generation method:
read_vps: ATM4.2.7  Troullier-Martins                       
Valence charge for ps generation:    6.00000

xc_check: Exchange-correlation functional:
xc_check: GGA Perdew, Burke & Ernzerhof 1996
V l=0 = -2*Zval/r beyond r=  1.1000
V l=1 = -2*Zval/r beyond r=  1.1000
V l=2 = -2*Zval/r beyond r=  2.2154
V l=3 = -2*Zval/r beyond r=  1.1000
All V_l potentials equal beyond r=  2.2154
This should be close to max(r_c) in ps generation
All pots = -2*Zval/r beyond r=  2.2154

VLOCAL1: 99.0% of the norm of Vloc inside      8.845 Ry
VLOCAL1: 99.9% of the norm of Vloc inside     20.157 Ry
atom: Maximum radius for 4*pi*r*r*local-pseudopot. charge    2.67231
atom: Maximum radius for r*vlocal+2*Zval:    2.32897
GHOST: No ghost state for L =  0
GHOST: No ghost state for L =  1
GHOST: No ghost state for L =  2
GHOST: No ghost state for L =  3

KBgen: Kleinman-Bylander projectors: 
   l= 0   rc=  2.243238   el= -1.759686   Ekb=**********   kbcos= -0.171774
   l= 1   rc=  2.328968   el= -0.663873   Ekb=-14.506792   kbcos= -0.519897
   l= 2   rc=  2.573941   el=  0.002031   Ekb= -1.137373   kbcos= -0.019581
   l= 3   rc=  2.606321   el=  0.003153   Ekb= -1.013546   kbcos= -0.003122

KBgen: Total number of Kleinman-Bylander projectors:   16
atom: -------------------------------------------------------------------------

atom: SANKEY-TYPE ORBITALS:
atom: Selected multiple-zeta basis: split     

SPLIT: Orbitals with angular momentum L= 0

SPLIT: Basis orbitals for state 2s

SPLIT: PAO cut-off radius determined from an
SPLIT: energy shift=  0.002000 Ry

   izeta = 1
                 lambda =    1.000000
                     rc =    4.243912
                 energy =   -1.758270
                kinetic =    3.286084
    potential(screened) =   -5.044353
       potential(ionic) =  -12.921184

   izeta = 2
                 rmatch =    2.187845
              splitnorm =    0.280000
                 energy =   -0.885018
                kinetic =    8.134434
    potential(screened) =   -9.019452
       potential(ionic) =  -17.710645

SPLIT: Orbitals with angular momentum L= 1

SPLIT: Basis orbitals for state 2p

SPLIT: PAO cut-off radius determined from an
SPLIT: energy shift=  0.002000 Ry

   izeta = 1
                 lambda =    1.000000
                     rc =    5.314825
                 energy =   -0.661986
                kinetic =    4.917472
    potential(screened) =   -5.579458
       potential(ionic) =  -13.236259

   izeta = 2
                 rmatch =    2.160663
              splitnorm =    0.280000
                 energy =   -0.068760
                kinetic =    9.183374
    potential(screened) =   -9.252135
       potential(ionic) =  -18.274251

POLgen: Perturbative polarization orbital with L=  2

POLgen: Polarization orbital for state 2p

   izeta = 1
                     rc =    5.314825
                 energy =    1.970580
                kinetic =    3.886128
    potential(screened) =   -1.915547
       potential(ionic) =   -7.749584
atom: Total number of Sankey-type orbitals: 13

atm_pop: Valence configuration (for local Pseudopot. screening):
 2s( 2.00)                                                            
 2p( 4.00)                                                            
Vna: chval, zval:    6.00000   6.00000

Vna:  Cut-off radius for the neutral-atom potential:   5.314825

atom: _________________________________________________________________________

<basis_specs>
===============================================================================
N                    Z=   7    Mass=  14.010        Charge= 0.17977+309
Lmxo=1 Lmxkb= 3    BasisType=split      Semic=F
L=0  Nsemic=0  Cnfigmx=2
          i=1  nzeta=2  polorb=0  (2s)
            splnorm:   0.28000    
               vcte:    0.0000    
               rinn:    0.0000    
               qcoe:    0.0000    
               qyuk:    0.0000    
               qwid:   0.10000E-01
                rcs:    0.0000      0.0000    
            lambdas:    1.0000      1.0000    
L=1  Nsemic=0  Cnfigmx=2
          i=1  nzeta=2  polorb=1  (2p)
            splnorm:   0.28000    
               vcte:    0.0000    
               rinn:    0.0000    
               qcoe:    0.0000    
               qyuk:    0.0000    
               qwid:   0.10000E-01
                rcs:    0.0000      0.0000    
            lambdas:    1.0000      1.0000    
-------------------------------------------------------------------------------
L=0  Nkbl=1  erefs: 0.17977+309
L=1  Nkbl=1  erefs: 0.17977+309
L=2  Nkbl=1  erefs: 0.17977+309
L=3  Nkbl=1  erefs: 0.17977+309
===============================================================================
</basis_specs>

atom: Called for N                     (Z =   7)

read_vps: Pseudopotential generation method:
read_vps: ATM4.2.7  Troullier-Martins                       
Valence charge for ps generation:    5.00000

xc_check: Exchange-correlation functional:
xc_check: GGA Perdew, Burke & Ernzerhof 1996
V l=0 = -2*Zval/r beyond r=  1.2889
V l=1 = -2*Zval/r beyond r=  1.2889
V l=2 = -2*Zval/r beyond r=  3.4178
V l=3 = -2*Zval/r beyond r=  2.4084
All V_l potentials equal beyond r=  3.3753
This should be close to max(r_c) in ps generation
All pots = -2*Zval/r beyond r=  3.4178

VLOCAL1: 99.0% of the norm of Vloc inside      3.810 Ry
VLOCAL1: 99.9% of the norm of Vloc inside      8.683 Ry
atom: Maximum radius for 4*pi*r*r*local-pseudopot. charge    4.02088
atom: Maximum radius for r*vlocal+2*Zval:    3.54838
GHOST: No ghost state for L =  0
GHOST: No ghost state for L =  1
GHOST: No ghost state for L =  2
GHOST: No ghost state for L =  3

KBgen: Kleinman-Bylander projectors: 
   l= 0   rc=  3.417763   el= -1.365098   Ekb= -4.433130   kbcos= -0.707855
   l= 1   rc=  3.375302   el= -0.521201   Ekb=-13.264039   kbcos= -0.535594
   l= 2   rc=  3.872880   el=  0.001991   Ekb= -0.641094   kbcos= -0.062456
   l= 3   rc=  3.970931   el=  0.003093   Ekb= -0.474517   kbcos= -0.018236

KBgen: Total number of Kleinman-Bylander projectors:   16
atom: -------------------------------------------------------------------------

atom: SANKEY-TYPE ORBITALS:
atom: Selected multiple-zeta basis: split     

SPLIT: Orbitals with angular momentum L= 0

SPLIT: Basis orbitals for state 2s

SPLIT: PAO cut-off radius determined from an
SPLIT: energy shift=  0.002000 Ry

   izeta = 1
                 lambda =    1.000000
                     rc =    4.730425
                 energy =   -1.363399
                kinetic =    1.245246
    potential(screened) =   -2.608645
       potential(ionic) =   -8.121105

   izeta = 2
                 rmatch =    2.531849
              splitnorm =    0.280000
                 energy =   -0.959908
                kinetic =    2.409435
    potential(screened) =   -3.369343
       potential(ionic) =   -9.427975

SPLIT: Orbitals with angular momentum L= 1

SPLIT: Basis orbitals for state 2p

SPLIT: PAO cut-off radius determined from an
SPLIT: energy shift=  0.002000 Ry

   izeta = 1
                 lambda =    1.000000
                     rc =    5.924108
                 energy =   -0.519262
                kinetic =    3.672940
    potential(screened) =   -4.192202
       potential(ionic) =   -9.518354

   izeta = 2
                 rmatch =    2.531849
              splitnorm =    0.280000
                 energy =   -0.104258
                kinetic =    6.807538
    potential(screened) =   -6.911796
       potential(ionic) =  -13.149920

POLgen: Perturbative polarization orbital with L=  2

POLgen: Polarization orbital for state 2p

   izeta = 1
                     rc =    5.924108
                 energy =    1.427508
                kinetic =    2.872379
    potential(screened) =   -1.444871
       potential(ionic) =   -5.563644
atom: Total number of Sankey-type orbitals: 13

atm_pop: Valence configuration (for local Pseudopot. screening):
 2s( 2.00)                                                            
 2p( 3.00)                                                            
Vna: chval, zval:    5.00000   5.00000

Vna:  Cut-off radius for the neutral-atom potential:   5.924108

atom: _________________________________________________________________________

<basis_specs>
===============================================================================
Si                   Z=  14    Mass=  28.090        Charge= 0.17977+309
Lmxo=1 Lmxkb= 3    BasisType=split      Semic=F
L=0  Nsemic=0  Cnfigmx=3
          i=1  nzeta=2  polorb=0  (3s)
            splnorm:   0.28000    
               vcte:    0.0000    
               rinn:    0.0000    
               qcoe:    0.0000    
               qyuk:    0.0000    
               qwid:   0.10000E-01
                rcs:    0.0000      0.0000    
            lambdas:    1.0000      1.0000    
L=1  Nsemic=0  Cnfigmx=3
          i=1  nzeta=2  polorb=1  (3p)
            splnorm:   0.28000    
               vcte:    0.0000    
               rinn:    0.0000    
               qcoe:    0.0000    
               qyuk:    0.0000    
               qwid:   0.10000E-01
                rcs:    0.0000      0.0000    
            lambdas:    1.0000      1.0000    
-------------------------------------------------------------------------------
L=0  Nkbl=1  erefs: 0.17977+309
L=1  Nkbl=1  erefs: 0.17977+309
L=2  Nkbl=1  erefs: 0.17977+309
L=3  Nkbl=1  erefs: 0.17977+309
===============================================================================
</basis_specs>

atom: Called for Si                    (Z =  14)

read_vps: Pseudopotential generation method:
read_vps: ATM4.2.7  Troullier-Martins                       
Valence charge for ps generation:    4.00000

xc_check: Exchange-correlation functional:
xc_check: GGA Perdew, Burke & Ernzerhof 1996
V l=0 = -2*Zval/r beyond r=  2.7826
V l=1 = -2*Zval/r beyond r=  2.7826
V l=2 = -2*Zval/r beyond r=  2.9253
V l=3 = -2*Zval/r beyond r=  2.7826
All V_l potentials equal beyond r=  2.8530
This should be close to max(r_c) in ps generation
All pots = -2*Zval/r beyond r=  2.9253

VLOCAL1: 99.0% of the norm of Vloc inside      5.333 Ry
VLOCAL1: 99.9% of the norm of Vloc inside     12.154 Ry
atom: Maximum radius for 4*pi*r*r*local-pseudopot. charge    3.39869
atom: Maximum radius for r*vlocal+2*Zval:    2.96205
GHOST: No ghost state for L =  0
GHOST: No ghost state for L =  1
GHOST: No ghost state for L =  2
GHOST: No ghost state for L =  3

KBgen: Kleinman-Bylander projectors: 
   l= 0   rc=  3.075247   el= -0.794092   Ekb=  5.879390   kbcos=  0.167461
   l= 1   rc=  3.153101   el= -0.300068   Ekb=  2.642817   kbcos=  0.058301
   l= 2   rc=  3.273594   el=  0.001958   Ekb= -1.185135   kbcos= -0.104411
   l= 3   rc=  3.232927   el=  0.003046   Ekb= -0.497174   kbcos= -0.015889

KBgen: Total number of Kleinman-Bylander projectors:   16
atom: -------------------------------------------------------------------------

atom: SANKEY-TYPE ORBITALS:
atom: Selected multiple-zeta basis: split     

SPLIT: Orbitals with angular momentum L= 0

SPLIT: Basis orbitals for state 3s

SPLIT: PAO cut-off radius determined from an
SPLIT: energy shift=  0.002000 Ry

   izeta = 1
                 lambda =    1.000000
                     rc =    6.429618
                 energy =   -0.792283
                kinetic =    0.525293
    potential(screened) =   -1.317576
       potential(ionic) =   -3.744923

   izeta = 2
                 rmatch =    3.998416
              splitnorm =    0.280000
                 energy =   -0.583081
                kinetic =    1.069570
    potential(screened) =   -1.652651
       potential(ionic) =   -4.235185

SPLIT: Orbitals with angular momentum L= 1

SPLIT: Basis orbitals for state 3p

SPLIT: PAO cut-off radius determined from an
SPLIT: energy shift=  0.002000 Ry

   izeta = 1
                 lambda =    1.000000
                     rc =    8.464845
                 energy =   -0.298236
                kinetic =    0.785360
    potential(screened) =   -1.083596
       potential(ionic) =   -3.273779

   izeta = 2
                 rmatch =    4.587816
              splitnorm =    0.280000
                 energy =   -0.131871
                kinetic =    1.403687
    potential(screened) =   -1.535557
       potential(ionic) =   -4.015310

POLgen: Perturbative polarization orbital with L=  2

POLgen: Polarization orbital for state 3p

   izeta = 1
                     rc =    8.464845
                 energy =    0.321949
                kinetic =    1.055677
    potential(screened) =   -0.733728
       potential(ionic) =   -2.672950
atom: Total number of Sankey-type orbitals: 13

atm_pop: Valence configuration (for local Pseudopot. screening):
 3s( 2.00)                                                            
 3p( 2.00)                                                            
Vna: chval, zval:    4.00000   4.00000

Vna:  Cut-off radius for the neutral-atom potential:   8.464845

atom: _________________________________________________________________________

<basis_specs>
===============================================================================
H                    Z=   1    Mass=  1.0100        Charge= 0.17977+309
Lmxo=0 Lmxkb= 2    BasisType=split      Semic=F
L=0  Nsemic=0  Cnfigmx=1
          i=1  nzeta=2  polorb=1  (1s)
            splnorm:   0.62000    
               vcte:    0.0000    
               rinn:    0.0000    
               qcoe:    0.0000    
               qyuk:    0.0000    
               qwid:   0.10000E-01
                rcs:    0.0000      0.0000    
            lambdas:    1.0000      1.0000    
-------------------------------------------------------------------------------
L=0  Nkbl=1  erefs: 0.17977+309
L=1  Nkbl=1  erefs: 0.17977+309
L=2  Nkbl=1  erefs: 0.17977+309
===============================================================================
</basis_specs>

atom: Called for H                     (Z =   1)

read_vps: Pseudopotential generation method:
read_vps: ATM4.2.7  Troullier-Martins                       
Valence charge for ps generation:    1.00000

xc_check: Exchange-correlation functional:
xc_check: GGA Perdew, Burke & Ernzerhof 1996
V l=0 = -2*Zval/r beyond r=  0.0098
V l=1 = -2*Zval/r beyond r=  0.5817
V l=2 = -2*Zval/r beyond r=  1.9372
All V_l potentials equal beyond r=  1.9372
This should be close to max(r_c) in ps generation
All pots = -2*Zval/r beyond r=  1.9372

VLOCAL1: 99.0% of the norm of Vloc inside     11.567 Ry
VLOCAL1: 99.9% of the norm of Vloc inside     26.362 Ry
atom: Maximum radius for 4*pi*r*r*local-pseudopot. charge    2.25106
atom: Maximum radius for r*vlocal+2*Zval:    1.91306
GHOST: No ghost state for L =  0
GHOST: No ghost state for L =  1
GHOST: No ghost state for L =  2

KBgen: Kleinman-Bylander projectors: 
   l= 0   rc=  2.036604   el= -0.477180   Ekb= -6.081590   kbcos= -0.277285
   l= 1   rc=  2.195416   el=  0.001076   Ekb= -0.926943   kbcos= -0.034643
   l= 2   rc=  2.251056   el=  0.002010   Ekb= -0.130941   kbcos= -0.009788

KBgen: Total number of Kleinman-Bylander projectors:    9
atom: -------------------------------------------------------------------------

atom: SANKEY-TYPE ORBITALS:
atom: Selected multiple-zeta basis: split     

SPLIT: Orbitals with angular momentum L= 0

SPLIT: Basis orbitals for state 1s

SPLIT: PAO cut-off radius determined from an
SPLIT: energy shift=  0.002000 Ry

   izeta = 1
                 lambda =    1.000000
                     rc =    6.518340
                 energy =   -0.475305
                kinetic =    0.912139
    potential(screened) =   -1.387444
       potential(ionic) =   -1.907295

   izeta = 2
                 rmatch =    2.141150
              splitnorm =    0.620000
                 energy =    0.566467
                kinetic =    3.772856
    potential(screened) =   -3.206389
       potential(ionic) =   -3.759093

POLgen: Perturbative polarization orbital with L=  1

POLgen: Polarization orbital for state 1s

   izeta = 1
                     rc =    6.518340
                 energy =    0.533861
                kinetic =    1.121086
    potential(screened) =   -0.587225
       potential(ionic) =   -1.053027
atom: Total number of Sankey-type orbitals:  5

atm_pop: Valence configuration (for local Pseudopot. screening):
 1s( 1.00)                                                            
Vna: chval, zval:    1.00000   1.00000

Vna:  Cut-off radius for the neutral-atom potential:   6.518340

atom: _________________________________________________________________________

prinput: Basis input ----------------------------------------------------------

PAO.BasisType split     

%block ChemicalSpeciesLabel
    1    8 O                       # Species index, atomic number, species label
    2    7 N                       # Species index, atomic number, species label
    3   14 Si                      # Species index, atomic number, species label
    4    1 H                       # Species index, atomic number, species label
%endblock ChemicalSpeciesLabel

%block PAO.Basis                 # Define Basis set
O                     2                    # Species label, number of l-shells
 n=2   0   2                         # n, l, Nzeta 
   4.244      2.188   
   1.000      1.000   
 n=2   1   2 P   1                   # n, l, Nzeta, Polarization, NzetaPol
   5.315      2.161   
   1.000      1.000   
N                     2                    # Species label, number of l-shells
 n=2   0   2                         # n, l, Nzeta 
   4.730      2.532   
   1.000      1.000   
 n=2   1   2 P   1                   # n, l, Nzeta, Polarization, NzetaPol
   5.924      2.532   
   1.000      1.000   
Si                    2                    # Species label, number of l-shells
 n=3   0   2                         # n, l, Nzeta 
   6.430      3.998   
   1.000      1.000   
 n=3   1   2 P   1                   # n, l, Nzeta, Polarization, NzetaPol
   8.465      4.588   
   1.000      1.000   
H                     1                    # Species label, number of l-shells
 n=1   0   2 P   1                   # n, l, Nzeta, Polarization, NzetaPol
   6.518      2.141   
   1.000      1.000   
%endblock PAO.Basis

prinput: ----------------------------------------------------------------------

Dumping basis to NetCDF file O.ion.nc
Dumping basis to NetCDF file N.ion.nc
Dumping basis to NetCDF file Si.ion.nc
Dumping basis to NetCDF file H.ion.nc
coor:   Atomic-coordinates input format  =     Cartesian coordinates
coor:                                          (in Angstroms)

siesta: Atomic coordinates (Bohr) and species
siesta:      1.61558   7.37525   0.00000  1        1
siesta:     -5.95545   1.55686   0.00000  2        2
siesta:      3.64437   2.21854   0.00000  2        3
siesta:      1.85174  -3.45872   0.00000  2        4
siesta:     -4.08041  -3.83238   0.00000  2        5
siesta:      7.15322  -2.10270   0.00000  2        6
siesta:     -2.54345   1.84485   0.00000  3        7
siesta:     -1.13278  -2.07129   0.00000  3        8
siesta:      0.85639   4.44182   0.00000  3        9
siesta:      4.03136  -1.08945   0.00000  3       10
siesta:     -6.64440  -1.59126   0.00000  3       11
siesta:      5.33759   3.31595   0.00000  4       12
siesta:     -9.21724  -2.77641   0.00000  4       13
siesta:      7.54937  -4.05007   0.00000  4       14
siesta:      8.73225  -0.91400   0.00000  4       15
siesta:     -4.30685  -5.82322   0.00000  4       16
siesta:      8.97062   9.38050  -0.00000  3       17
siesta:     12.50244  11.76088  -0.00000  3       18
siesta:     11.63518   4.19937  -0.00000  3       19
siesta:     15.54237   8.93614  -0.00000  3       20
siesta:      9.08311   6.19640  -0.00000  2       21
siesta:      5.89036  10.57114  -0.00000  2       22
siesta:     14.74168   5.69431  -0.00000  2       23
siesta:     13.03225  14.53920  -0.00000  4       24
siesta:     18.36829   9.34971  -0.00000  4       25
siesta:      5.42840  12.49577  -0.00000  4       26
siesta:      4.32805   9.32988  -0.00000  4       27
siesta:     11.74720   1.20898  -0.00000  1       28
siesta:     16.19990   4.32054  -0.00000  4       29

siesta: Automatic unit cell vectors (Ang):
siesta:   23.645973    0.000000    0.000000
siesta:    0.000000   19.441441    0.000000
siesta:    0.000000    0.000000    9.854683

siesta: System type = molecule  

initatomlists: Number of atoms, orbitals, and projectors:     29   297   394

siesta: ******************** Simulation parameters ****************************
siesta:
siesta: The following are some of the parameters of the simulation.
siesta: A complete list of the parameters used, including default values,
siesta: can be found in file out.fdf
siesta:
redata: Spin configuration                          = spin-orbit
redata: Number of spin components                   = 8
redata: Time-Reversal Symmetry                      = F
redata: Spin spiral                                 = F
############################################################
This spin-orbit implementation uses a local approximation.
From 4.2 and onwards the full non-local approximation is implemented
You are strongly advised to use >=4.2 versions!
############################################################
redata: Long output                                 =   F
redata: Number of Atomic Species                    =        4
redata: Charge density info will appear in .RHO file
redata: Write Mulliken Pop.                         = Atomic and Orbital charges
redata: Matel table size (NRTAB)                    =     1024
redata: Mesh Cutoff                                 =   340.0000 Ry
redata: Net charge of the system                    =     0.0000 |e|
redata: Min. number of SCF Iter                     =        1
redata: Max. number of SCF Iter                     =      200
redata: SCF mix quantity                            = Hamiltonian
redata: Mix DM or H after convergence               =   F
redata: Recompute H after scf cycle                 =   F
redata: Mix DM in first SCF step                    =   T
redata: Write Pulay info on disk                    =   F
redata: New DM Occupancy tolerance                  = 0.000000000001
redata: No kicks to SCF
redata: DM Mixing Weight for Kicks                  =     0.5000
redata: Require Harris convergence for SCF          =   F
redata: Harris energy tolerance for SCF             =     0.000100 eV
redata: Require DM convergence for SCF              =   T
redata: DM tolerance for SCF                        =     0.000008
redata: Require EDM convergence for SCF             =   F
redata: EDM tolerance for SCF                       =     0.001000 eV
redata: Require H convergence for SCF               =   T
redata: Hamiltonian tolerance for SCF               =     0.000001 eV
redata: Require (free) Energy convergence for SCF   =   F
redata: (free) Energy tolerance for SCF             =     0.000100 eV
redata: Using Saved Data (generic)                  =   F
redata: Use continuation files for DM               =   F
redata: Neglect nonoverlap interactions             =   F
redata: Method of Calculation                       = Diagonalization
redata: Electronic Temperature                      =   299.9978 K
redata: Fix the spin of the system                  =   F
redata: Dynamics option                             = Single-point calculation
mix.SCF: Pulay mixing                            = Pulay
mix.SCF:    Variant                              = stable
mix.SCF:    History steps                        = 6
mix.SCF:    Linear mixing weight                 =     0.250000
mix.SCF:    Mixing weight                        =     0.250000
mix.SCF:    SVD condition                        = 0.1000E-07
mix.SCF:    Restart steps                        = 24
mix.SCF:    Restart save steps                   = 3
mix.SCF: Spin-component mixing                   all
redata: Save all siesta data in one NC              =   F
redata: ***********************************************************************

%block SCF.Mixers
  Pulay
%endblock SCF.Mixers

%block SCF.Mixer.Pulay
  # Mixing method
  method pulay
  variant stable

  # Mixing options
  weight 0.2500
  weight.linear 0.2500
  history 6
  restart 24
  restart.save 3
%endblock SCF.Mixer.Pulay

DM_history_depth set to one: no extrapolation allowed by default for geometry relaxation
Size of DM history Fstack: 1
Total number of electrons:    98.000000
Total ionic charge:    98.000000

* ProcessorY, Blocksize:    2  24


* Orbital distribution balance (max,min):    81    72


Time-reversal symmetry not used.

siesta: k-grid: Number of k-points =     1
siesta: k-grid: Cutoff (effective) =     4.927 Ang
siesta: k-grid: Supercell and displacements
siesta: k-grid:    1   0   0      0.000
siesta: k-grid:    0   1   0      0.000
siesta: k-grid:    0   0   1      0.000

diag: Algorithm                                     = ELPA-1stage
diag: Parallel over k                               =   F
diag: Use parallel 2D distribution                  =   T
diag: Parallel block-size                           = 24
diag: Parallel distribution                         =     2 x     2
diag: Used triangular part                          = Lower
diag: Absolute tolerance                            =  0.100E-15
diag: Orthogonalization factor                      =  0.100E-05
diag: Memory factor                                 =  1.0000


ts: **************************************************************
ts: Save H and S matrices                           =    F
ts: Save DM and EDM matrices                        =    F
ts: Only save the overlap matrix S                  =    F
ts: **************************************************************

************************ Begin: TS CHECKS AND WARNINGS ************************
************************ End: TS CHECKS AND WARNINGS **************************


                     ====================================
                        Single-point calculation
                     ====================================

outcoor: Atomic coordinates (Ang):                          
    0.85492771    3.90281136    0.00000000   1       1  O
   -3.15148660    0.82385413    0.00000000   2       2  N
    1.92851868    1.17400090    0.00000000   2       3  N
    0.97989950   -1.83027589    0.00000000   2       4  N
   -2.15925893   -2.02800480    0.00000000   2       5  N
    3.78531977   -1.11270066    0.00000000   2       6  N
   -1.34593381    0.97625025    0.00000000   3       7  Si
   -0.59943988   -1.09607717    0.00000000   3       8  Si
    0.45318289    2.35051023    0.00000000   3       9  Si
    2.13330203   -0.57651080    0.00000000   3      10  Si
   -3.51606566   -0.84205651    0.00000000   3      11  Si
    2.82452783    1.75472311    0.00000000   4      12  H
   -4.87755169   -1.46921466    0.00000000   4      13  H
    3.99495202   -2.14320400    0.00000000   4      14  H
    4.62090361   -0.48366606    0.00000000   4      15  H
   -2.27908518   -3.08151409    0.00000000   4      16  H
    4.74704425    4.96394581    0.00000000   3      17  Si
    6.61600374    6.22358944    0.00000000   3      18  Si
    6.15707136    2.22220759    0.00000000   3      19  Si
    8.22466408    4.72879881    0.00000000   3      20  Si
    4.80657420    3.27899335    0.00000000   2      21  N
    3.11704505    5.59400604    0.00000000   2      22  N
    7.80096023    3.01329800    0.00000000   2      23  N
    6.89636744    7.69381196    0.00000000   4      24  H
    9.72007546    4.94765135    0.00000000   4      25  H
    2.87258606    6.61247199    0.00000000   4      26  H
    2.29030387    4.93715791    0.00000000   4      27  H
    6.21634712    0.63976556    0.00000000   1      28  O
    8.57261582    2.28633064    0.00000000   4      29  H

outcell: Unit cell vectors (Ang):
       23.645973    0.000000    0.000000
        0.000000   19.441441    0.000000
        0.000000    0.000000    9.854683

outcell: Cell vector modules (Ang)   :   23.645973   19.441441    9.854683
outcell: Cell angles (23,13,12) (deg):     90.0000     90.0000     90.0000
outcell: Cell volume (Ang**3)        :   4530.3141
<dSpData1D:S at geom step 0
  <sparsity:sparsity for geom step 0
    nrows_g=297 nrows=81 sparsity=.2265 nnzs=19979, refcount: 8>
  <dData1D:(new from dSpData1D) n=19979, refcount: 1>
refcount: 1>
new_DM -- step:     1
Initializing Density Matrix...
DM filled with atomic data:
<dSpData2D:DM initialized from atoms
  <sparsity:sparsity for geom step 0
    nrows_g=297 nrows=81 sparsity=.2265 nnzs=19979, refcount: 9>
  <dData2D:DM n=19979 m=8, refcount: 1>
refcount: 1>
     spin moment: S , {S} =   56.00000   0.00000   0.00000  56.00000
No. of atoms with KB's overlaping orbs in proc 0. Max # of overlaps:      29     198

Initializing spin-orbit part of the Hamiltonian
  Adding spin-orbit effects for O 
  Adding spin-orbit effects for N 
  Adding spin-orbit effects for Si
  Adding spin-orbit effects for H 


New grid distribution:   1
           1       1:  135    1:   54    1:   30
           2       1:  135    1:   54   31:   60
           3       1:  135   55:  108    1:   30
           4       1:  135   55:  108   31:   60

InitMesh: MESH =   270 x   216 x   120 =     6998400
InitMesh: (bp) =   135 x   108 x    60 =      874800
InitMesh: Mesh cutoff (required, used) =   340.000   341.155 Ry
ExtMesh (bp) on 0 =   239 x   154 x   142 =     5226452
New grid distribution:   2
           1      33:  135    1:   26    1:   60
           2       1:   32    1:   23    1:   60
           3      33:  135   27:  108    1:   60
           4       1:   32   24:  108    1:   60
New grid distribution:   3
           1      45:  135    1:   33    1:   60
           2       1:   44    1:   37    1:   60
           3      45:  135   34:  108    1:   60
           4       1:   44   38:  108    1:   60
Setting up quadratic distribution...
ExtMesh (bp) on 0 =   207 x   126 x   172 =     4486104
PhiOnMesh: Number of (b)points on node 0 =               160680
PhiOnMesh: nlist on node 0 =              2593623

stepf: Fermi-Dirac step function

siesta: Program's energy decomposition (eV):
siesta: Ebs     =      -608.030220
siesta: Eions   =      3585.165840
siesta: Ena     =       384.633328
siesta: Ekin    =      3370.214834
siesta: Enl     =     -3302.965373
siesta: Eso     =        -0.003408
siesta: Edftu   =         0.000000
siesta: DEna    =       155.089051
siesta: DUscf   =        79.320316
siesta: DUext   =         0.000000
siesta: Exc     =     -1204.496027
siesta: eta*DQ  =         0.000000
siesta: Emadel  =         0.000000
siesta: Emeta   =         0.000000
siesta: Emolmec =         0.000000
siesta: Ekinion =         0.000000
siesta: Eharris =     -4026.917962
siesta: Etot    =     -4103.373119
siesta: FreeEng =     -4103.374589

        iscf     Eharris(eV)        E_KS(eV)     FreeEng(eV)     dDmax    Ef(eV) dHmax(eV)
   scf:    1    -4026.917962    -4103.373119    -4103.374589  0.956201 -4.890903 20.341914
     spin moment: S , {S} =    2.00779   0.00000   0.00000   2.00779
timer: Routine,Calls,Time,% = IterSCF        1      11.755  16.07
   scf:    2    -4150.944124    -4138.578757    -4138.584107  0.468364 -4.203823 11.136020
     spin moment: S , {S} =    1.95853   0.00000   0.00000   1.95853
   scf:    3    -4113.440177    -4136.178805    -4136.205959  0.436764 -4.287585 11.137863
     spin moment: S , {S} =    2.00166   0.00000   0.00000   2.00166
   scf:    4    -4151.043864    -4146.436920    -4146.436921  0.281964 -3.931937  5.806758
     spin moment: S , {S} =    0.00010  -0.00000   0.00000   0.00010
   scf:    5    -4147.635623    -4147.132071    -4147.132071  0.038530 -3.729748  4.282681
     spin moment: S , {S} =    0.00006   0.00000  -0.00000   0.00006
   scf:    6    -4147.890746    -4147.514496    -4147.514496  0.025764 -3.734701  2.125841
     spin moment: S , {S} =    0.00003   0.00000   0.00000   0.00003
   scf:    7    -4147.870803    -4147.692804    -4147.692804  0.022024 -3.644600  0.863609
     spin moment: S , {S} =    0.00001   0.00000  -0.00000   0.00001
   scf:    8    -4147.810433    -4147.750253    -4147.750253  0.012552 -3.824818  0.463428
     spin moment: S , {S} =    0.00000  -0.00000  -0.00000   0.00000
   scf:    9    -4147.790985    -4147.769973    -4147.769973  0.007246 -3.771696  0.297213
     spin moment: S , {S} =    0.00000  -0.00000   0.00000   0.00000
   scf:   10    -4147.817443    -4147.790059    -4147.790059  0.016582 -3.807710  0.146879
     spin moment: S , {S} =    0.00000   0.00000  -0.00000  -0.00000
   scf:   11    -4147.793685    -4147.791761    -4147.791761  0.005203 -3.802525  0.051377
     spin moment: S , {S} =    0.00000   0.00000   0.00000   0.00000
   scf:   12    -4147.792591    -4147.792174    -4147.792174  0.001966 -3.796369  0.032375
     spin moment: S , {S} =    0.00000   0.00000   0.00000   0.00000
   scf:   13    -4147.792767    -4147.792453    -4147.792453  0.002008 -3.798993  0.026100
     spin moment: S , {S} =    0.00000   0.00000   0.00000   0.00000
   scf:   14    -4147.792969    -4147.792685    -4147.792685  0.002423 -3.796795  0.018180
     spin moment: S , {S} =    0.00000   0.00000   0.00000   0.00000
   scf:   15    -4147.793017    -4147.792825    -4147.792825  0.002412 -3.795836  0.011314
     spin moment: S , {S} =    0.00000   0.00000   0.00000   0.00000
   scf:   16    -4147.792955    -4147.792876    -4147.792876  0.001801 -3.795697  0.005365
     spin moment: S , {S} =    0.00000   0.00000   0.00000   0.00000
   scf:   17    -4147.792896    -4147.792884    -4147.792884  0.000659 -3.795931  0.002955
     spin moment: S , {S} =    0.00000   0.00000   0.00000   0.00000
   scf:   18    -4147.792890    -4147.792887    -4147.792887  0.000355 -3.796010  0.001233
     spin moment: S , {S} =    0.00000   0.00000   0.00000  -0.00000
   scf:   19    -4147.792889    -4147.792888    -4147.792888  0.000167 -3.796016  0.000609
     spin moment: S , {S} =    0.00000   0.00000   0.00000  -0.00000
   scf:   20    -4147.792888    -4147.792888    -4147.792888  0.000059 -3.795992  0.000426
     spin moment: S , {S} =    0.00000   0.00000   0.00000  -0.00000
   scf:   21    -4147.792888    -4147.792888    -4147.792888  0.000054 -3.795958  0.000190
     spin moment: S , {S} =    0.00000   0.00000   0.00000  -0.00000
   scf:   22    -4147.792888    -4147.792888    -4147.792888  0.000021 -3.795947  0.000097
     spin moment: S , {S} =    0.00000   0.00000   0.00000  -0.00000
   scf:   23    -4147.792888    -4147.792888    -4147.792888  0.000004 -3.795944  0.000069
     spin moment: S , {S} =    0.00000   0.00000   0.00000  -0.00000
   scf:   24    -4147.792888    -4147.792888    -4147.792888  0.000004 -3.795937  0.000057
     spin moment: S , {S} =    0.00000   0.00000   0.00000  -0.00000
mix: Pulay -- resetting history
   scf:   25    -4147.792888    -4147.792888    -4147.792888  0.000004 -3.795930  0.000039
     spin moment: S , {S} =    0.00000   0.00000   0.00000  -0.00000
   scf:   26    -4147.792888    -4147.792888    -4147.792888  0.000002 -3.795927  0.000026
     spin moment: S , {S} =    0.00000   0.00000   0.00000  -0.00000
   scf:   27    -4147.792888    -4147.792888    -4147.792888  0.000002 -3.795926  0.000018
     spin moment: S , {S} =    0.00000   0.00000   0.00000  -0.00000
   scf:   28    -4147.792888    -4147.792888    -4147.792888  0.000002 -3.795926  0.000009
     spin moment: S , {S} =    0.00000   0.00000   0.00000   0.00000
   scf:   29    -4147.792888    -4147.792888    -4147.792888  0.000001 -3.795926  0.000007
     spin moment: S , {S} =    0.00000   0.00000   0.00000   0.00000
   scf:   30    -4147.792888    -4147.792888    -4147.792888  0.000001 -3.795926  0.000003
     spin moment: S , {S} =    0.00000   0.00000   0.00000   0.00000
   scf:   31    -4147.792888    -4147.792888    -4147.792888  0.000000 -3.795926  0.000001
     spin moment: S , {S} =    0.00000   0.00000   0.00000   0.00000
   scf:   32    -4147.792888    -4147.792888    -4147.792888  0.000000 -3.795926  0.000001
     spin moment: S , {S} =    0.00000   0.00000   0.00000   0.00000

SCF Convergence by DM+H criterion
max |DM_out - DM_in|         :     0.0000001953
max |H_out - H_in|      (eV) :     0.0000009945
SCF cycle converged after 32 iterations

Using DM_out to compute the final energy and forces
No. of atoms with KB's overlaping orbs in proc 0. Max # of overlaps:      29     198

siesta: E_KS(eV) =            -4147.7929

siesta: E_KS - E_eggbox =     -4147.7929
     spin moment: S , {S} =    0.00000   0.00000   0.00000   0.00000

siesta: Atomic forces (eV/Ang):
     1    3.652230   -2.409064   -0.000000
     2   -0.018031    0.045090   -0.000000
     3   -0.472750    0.359897   -0.000000
     4   -0.522030   -0.054530    0.000000
     5   -0.029417    0.048198    0.000000
     6   -0.811853   -0.201982    0.000000
     7   -0.044747    0.174241    0.000000
     8    0.325623   -0.155517   -0.000000
     9    0.244068   -0.817596    0.000000
    10    0.855054   -0.114228    0.000000
    11   -0.013921    0.041008   -0.000000
    12    0.152608    0.048127    0.000000
    13   -0.016902    0.135059    0.000000
    14   -0.046275   -0.041643    0.000000
    15    0.880405    0.619397   -0.000000
    16    0.067618    0.256265    0.000000
    17   -0.855895    0.692838    0.000000
    18    0.161386   -0.135897    0.000000
    19    0.102456    0.898219   -0.000000
    20   -0.015184    0.283177   -0.000000
    21    0.220493   -0.817558    0.000000
    22    1.256499    0.343260   -0.000000
    23   -0.176657   -0.406978    0.000000
    24   -0.023115    0.074273   -0.000000
    25   -0.029322    0.121125   -0.000000
    26    0.079003    0.190283   -0.000000
    27   -0.939593   -0.573674    0.000000
    28    0.062702   -2.534055    0.000000
    29    0.104579    0.018393   -0.000000
----------------------------------------
   Tot    4.149030   -3.913873   -0.000000
----------------------------------------
   Max    3.652230
   Res    0.642086    sqrt( Sum f_i^2 / 3N )
----------------------------------------
   Max    3.652230    constrained

Stress tensor Voigt[x,y,z,yz,xz,xy] (kbar):        0.44       -0.26       -0.11        0.00        0.00       -0.08
(Free)E + p*V (eV/cell)    -4147.8686
Target enthalpy (eV/cell)    -4147.7929

mulliken: Atomic and Orbital Populations:

Species: O                   

Atom      Orb        Charge      Spin       Svec
----------------------------------------------------------------
    1  1 2s         1.74881   0.00000     -0.000  -0.000   0.000
    1  2 2s         0.05595   0.00000      0.000   0.000   0.000
    1  3 2py        1.39720   0.00000     -0.000  -0.000   0.000
    1  4 2pz        1.59460   0.00000     -0.000  -0.000   0.000
    1  5 2px        1.62858   0.00000      0.000   0.000   0.000
    1  6 2py        0.06570   0.00000      0.000   0.000   0.000
    1  7 2pz       -0.01330   0.00000     -0.000   0.000   0.000
    1  8 2px        0.00207   0.00000     -0.000  -0.000   0.000
    1  9 3Pdxy      0.00822   0.00000     -0.000  -0.000   0.000
    1 10 3Pdyz      0.00822   0.00000     -0.000   0.000  -0.000
    1 11 3Pdz2      0.00189   0.00000     -0.000   0.000  -0.000
    1 12 3Pdxz      0.00018   0.00000      0.000  -0.000   0.000
    1 13 3Pdx2-y2   0.00621   0.00000      0.000  -0.000  -0.000
    1     Total     6.50432   0.00000      0.000  -0.000   0.000

   28  1 2s         1.73844   0.00000      0.000  -0.000   0.000
   28  2 2s         0.06587   0.00000     -0.000   0.000   0.000
   28  3 2py        1.39508   0.00000      0.000  -0.000   0.000
   28  4 2pz        1.57868   0.00000     -0.000   0.000   0.000
   28  5 2px        1.64514   0.00000      0.000   0.000   0.000
   28  6 2py        0.06278   0.00000     -0.000   0.000   0.000
   28  7 2pz       -0.00821   0.00000      0.000  -0.000   0.000
   28  8 2px        0.00436   0.00000     -0.000   0.000   0.000
   28  9 3Pdxy      0.00760   0.00000      0.000  -0.000  -0.000
   28 10 3Pdyz      0.00950   0.00000      0.000  -0.000  -0.000
   28 11 3Pdz2      0.00130   0.00000     -0.000   0.000  -0.000
   28 12 3Pdxz     -0.00009   0.00000     -0.000  -0.000  -0.000
   28 13 3Pdx2-y2   0.00728   0.00000     -0.000  -0.000  -0.000
   28     Total     6.50771   0.00000     -0.000   0.000   0.000

----------------------------------------------------------------
Total              13.01203   0.00000     -0.000   0.000   0.000


Species: N                   

Atom      Orb        Charge      Spin       Svec
----------------------------------------------------------------
    2  1 2s         1.54761   0.00000     -0.000  -0.000  -0.000
    2  2 2s         0.08500   0.00000      0.000  -0.000   0.000
    2  3 2py        1.03142   0.00000      0.000  -0.000  -0.000
    2  4 2pz        1.22433   0.00000      0.000  -0.000  -0.000
    2  5 2px        1.00797   0.00000      0.000   0.000  -0.000
    2  6 2py        0.19262   0.00000     -0.000   0.000   0.000
    2  7 2pz        0.05444   0.00000     -0.000   0.000   0.000
    2  8 2px        0.19060   0.00000     -0.000  -0.000   0.000
    2  9 3Pdxy      0.00839   0.00000     -0.000   0.000  -0.000
    2 10 3Pdyz      0.01079   0.00000     -0.000  -0.000   0.000
    2 11 3Pdz2      0.00192   0.00000      0.000  -0.000   0.000
    2 12 3Pdxz      0.00753   0.00000      0.000   0.000   0.000
    2 13 3Pdx2-y2   0.00892   0.00000      0.000  -0.000  -0.000
    2     Total     5.37154   0.00000      0.000  -0.000  -0.000

    3  1 2s         1.39407   0.00000      0.000   0.000   0.000
    3  2 2s         0.12012   0.00000     -0.000  -0.000   0.000
    3  3 2py        0.93582   0.00000     -0.000  -0.000   0.000
    3  4 2pz        1.53700   0.00000      0.000  -0.000   0.000
    3  5 2px        1.09416   0.00000     -0.000  -0.000   0.000
    3  6 2py        0.25253   0.00000      0.000  -0.000  -0.000
    3  7 2pz        0.00668   0.00000      0.000  -0.000   0.000
    3  8 2px        0.17386   0.00000     -0.000   0.000   0.000
    3  9 3Pdxy      0.00436   0.00000      0.000   0.000   0.000
    3 10 3Pdyz      0.00397   0.00000     -0.000   0.000  -0.000
    3 11 3Pdz2      0.00070   0.00000      0.000   0.000  -0.000
    3 12 3Pdxz      0.00258   0.00000      0.000  -0.000  -0.000
    3 13 3Pdx2-y2   0.00275   0.00000     -0.000   0.000   0.000
    3     Total     5.52860   0.00000     -0.000  -0.000   0.000

    4  1 2s         1.47023   0.00000      0.000   0.000   0.000
    4  2 2s         0.11688   0.00000     -0.000  -0.000   0.000
    4  3 2py        1.10256   0.00000      0.000  -0.000   0.000
    4  4 2pz        1.29087   0.00000     -0.000  -0.000   0.000
    4  5 2px        0.84078   0.00000     -0.000  -0.000   0.000
    4  6 2py        0.15681   0.00000      0.000   0.000   0.000
    4  7 2pz        0.05323   0.00000      0.000   0.000   0.000
    4  8 2px        0.28689   0.00000      0.000   0.000   0.000
    4  9 3Pdxy      0.00857   0.00000     -0.000  -0.000  -0.000
    4 10 3Pdyz      0.01077   0.00000      0.000  -0.000  -0.000
    4 11 3Pdz2      0.00133   0.00000     -0.000   0.000   0.000
    4 12 3Pdxz      0.00484   0.00000     -0.000  -0.000   0.000
    4 13 3Pdx2-y2   0.00853   0.00000     -0.000   0.000  -0.000
    4     Total     5.35227   0.00000      0.000  -0.000   0.000

    5  1 2s         1.37306   0.00000      0.000  -0.000  -0.000
    5  2 2s         0.12924   0.00000     -0.000   0.000   0.000
    5  3 2py        1.02680   0.00000     -0.000  -0.000  -0.000
    5  4 2pz        1.50134   0.00000      0.000   0.000  -0.000
    5  5 2px        1.05878   0.00000     -0.000  -0.000  -0.000
    5  6 2py        0.20340   0.00000     -0.000   0.000   0.000
    5  7 2pz        0.01347   0.00000     -0.000  -0.000   0.000
    5  8 2px        0.20291   0.00000     -0.000   0.000   0.000
    5  9 3Pdxy      0.00366   0.00000      0.000   0.000   0.000
    5 10 3Pdyz      0.00251   0.00000      0.000   0.000   0.000
    5 11 3Pdz2      0.00138   0.00000      0.000   0.000   0.000
    5 12 3Pdxz      0.00666   0.00000     -0.000   0.000   0.000
    5 13 3Pdx2-y2   0.00572   0.00000      0.000  -0.000  -0.000
    5     Total     5.52892   0.00000      0.000  -0.000  -0.000

    6  1 2s         1.26163   0.00000     -0.000  -0.000  -0.000
    6  2 2s         0.18205   0.00000      0.000   0.000   0.000
    6  3 2py        1.07122   0.00000     -0.000  -0.000  -0.000
    6  4 2pz        1.54216   0.00000     -0.000  -0.000  -0.000
    6  5 2px        0.97817   0.00000     -0.000  -0.000  -0.000
    6  6 2py        0.19548   0.00000      0.000   0.000   0.000
    6  7 2pz        0.03154   0.00000      0.000   0.000   0.000
    6  8 2px        0.25512   0.00000      0.000   0.000   0.000
    6  9 3Pdxy      0.00234   0.00000     -0.000   0.000  -0.000
    6 10 3Pdyz      0.00004   0.00000      0.000   0.000  -0.000
    6 11 3Pdz2      0.00143   0.00000      0.000   0.000  -0.000
    6 12 3Pdxz      0.00325   0.00000      0.000   0.000  -0.000
    6 13 3Pdx2-y2   0.00331   0.00000      0.000   0.000   0.000
    6     Total     5.52774   0.00000     -0.000  -0.000  -0.000

   21  1 2s         1.40249   0.00000      0.000   0.000   0.000
   21  2 2s         0.13445   0.00000     -0.000   0.000   0.000
   21  3 2py        0.87853   0.00000      0.000   0.000   0.000
   21  4 2pz        1.31539   0.00000     -0.000   0.000   0.000
   21  5 2px        1.16762   0.00000      0.000  -0.000   0.000
   21  6 2py        0.27959   0.00000     -0.000   0.000   0.000
   21  7 2pz        0.04548   0.00000      0.000  -0.000   0.000
   21  8 2px        0.15923   0.00000     -0.000   0.000   0.000
   21  9 3Pdxy      0.00634   0.00000      0.000   0.000   0.000
   21 10 3Pdyz      0.00477   0.00000      0.000   0.000  -0.000
   21 11 3Pdz2     -0.00018   0.00000      0.000  -0.000  -0.000
   21 12 3Pdxz      0.00582   0.00000     -0.000   0.000  -0.000
   21 13 3Pdx2-y2   0.00575   0.00000     -0.000  -0.000   0.000
   21     Total     5.40528   0.00000      0.000   0.000   0.000

   22  1 2s         1.28169   0.00000      0.000  -0.000   0.000
   22  2 2s         0.17382   0.00000     -0.000   0.000  -0.000
   22  3 2py        1.07091   0.00000      0.000  -0.000  -0.000
   22  4 2pz        1.50647   0.00000      0.000  -0.000   0.000
   22  5 2px        1.01035   0.00000      0.000   0.000  -0.000
   22  6 2py        0.19892   0.00000      0.000  -0.000   0.000
   22  7 2pz        0.03094   0.00000      0.000   0.000   0.000
   22  8 2px        0.23487   0.00000     -0.000  -0.000   0.000
   22  9 3Pdxy      0.00307   0.00000     -0.000   0.000  -0.000
   22 10 3Pdyz      0.00004   0.00000      0.000  -0.000   0.000
   22 11 3Pdz2      0.00219   0.00000     -0.000   0.000  -0.000
   22 12 3Pdxz      0.00341   0.00000     -0.000   0.000   0.000
   22 13 3Pdx2-y2   0.00354   0.00000      0.000   0.000   0.000
   22     Total     5.52021   0.00000      0.000  -0.000  -0.000

   23  1 2s         1.37963   0.00000      0.000  -0.000   0.000
   23  2 2s         0.12631   0.00000     -0.000   0.000   0.000
   23  3 2py        0.99538   0.00000     -0.000  -0.000  -0.000
   23  4 2pz        1.52876   0.00000     -0.000  -0.000   0.000
   23  5 2px        1.06673   0.00000     -0.000   0.000  -0.000
   23  6 2py        0.22372   0.00000      0.000   0.000   0.000
   23  7 2pz        0.00486   0.00000      0.000   0.000   0.000
   23  8 2px        0.19475   0.00000      0.000  -0.000   0.000
   23  9 3Pdxy      0.00536   0.00000      0.000   0.000  -0.000
   23 10 3Pdyz      0.00456   0.00000      0.000   0.000  -0.000
   23 11 3Pdz2      0.00069   0.00000      0.000  -0.000  -0.000
   23 12 3Pdxz      0.00229   0.00000     -0.000  -0.000  -0.000
   23 13 3Pdx2-y2   0.00124   0.00000      0.000   0.000  -0.000
   23     Total     5.53426   0.00000     -0.000   0.000   0.000

----------------------------------------------------------------
Total              56.78087   0.00000      0.000  -0.000   0.000


Species: Si                  

Atom      Orb        Charge      Spin       Svec
----------------------------------------------------------------
    7  1 3s         0.68542   0.00000      0.000  -0.000   0.000
    7  2 3s         0.35933   0.00000     -0.000   0.000  -0.000
    7  3 3py        0.45458   0.00000      0.000   0.000   0.000
    7  4 3pz        0.70634   0.00000     -0.000  -0.000   0.000
    7  5 3px        0.13269   0.00000     -0.000   0.000  -0.000
    7  6 3py        0.28399   0.00000     -0.000  -0.000   0.000
    7  7 3pz        0.25941   0.00000      0.000   0.000   0.000
    7  8 3px        0.42412   0.00000      0.000   0.000   0.000
    7  9 3Pdxy      0.24309   0.00000     -0.000   0.000   0.000
    7 10 3Pdyz      0.02987   0.00000     -0.000  -0.000  -0.000
    7 11 3Pdz2      0.01175   0.00000     -0.000  -0.000  -0.000
    7 12 3Pdxz      0.13912   0.00000      0.000   0.000  -0.000
    7 13 3Pdx2-y2   0.11423   0.00000      0.000  -0.000  -0.000
    7     Total     3.84394   0.00000     -0.000   0.000   0.000

    8  1 3s         0.64715   0.00000     -0.000  -0.000  -0.000
    8  2 3s         0.37130   0.00000      0.000   0.000   0.000
    8  3 3py        0.39025   0.00000     -0.000   0.000   0.000
    8  4 3pz        0.50969   0.00000      0.000   0.000   0.000
    8  5 3px       -0.02572   0.00000      0.000   0.000  -0.000
    8  6 3py        0.30250   0.00000      0.000  -0.000  -0.000
    8  7 3pz        0.20509   0.00000      0.000  -0.000  -0.000
    8  8 3px        0.52004   0.00000     -0.000  -0.000  -0.000
    8  9 3Pdxy      0.26138   0.00000      0.000  -0.000  -0.000
    8 10 3Pdyz      0.11004   0.00000      0.000   0.000   0.000
    8 11 3Pdz2      0.01275   0.00000     -0.000  -0.000   0.000
    8 12 3Pdxz      0.15853   0.00000      0.000   0.000  -0.000
    8 13 3Pdx2-y2   0.18948   0.00000      0.000  -0.000  -0.000
    8     Total     3.65248   0.00000      0.000   0.000   0.000

    9  1 3s         0.62642   0.00000      0.000  -0.000  -0.000
    9  2 3s         0.35904   0.00000     -0.000   0.000  -0.000
    9  3 3py        0.11376   0.00000     -0.000  -0.000  -0.000
    9  4 3pz        0.47675   0.00000      0.000   0.000  -0.000
    9  5 3px        0.34853   0.00000     -0.000   0.000  -0.000
    9  6 3py        0.40850   0.00000      0.000   0.000  -0.000
    9  7 3pz        0.18568   0.00000     -0.000  -0.000  -0.000
    9  8 3px        0.27912   0.00000      0.000  -0.000  -0.000
    9  9 3Pdxy      0.28981   0.00000      0.000  -0.000  -0.000
    9 10 3Pdyz      0.19117   0.00000     -0.000  -0.000  -0.000
    9 11 3Pdz2      0.01151   0.00000      0.000   0.000  -0.000
    9 12 3Pdxz      0.09475   0.00000     -0.000   0.000  -0.000
    9 13 3Pdx2-y2   0.15974   0.00000      0.000   0.000  -0.000
    9     Total     3.54478   0.00000     -0.000  -0.000  -0.000

   10  1 3s         0.48298   0.00000      0.000   0.000  -0.000
   10  2 3s         0.37997   0.00000     -0.000  -0.000   0.000
   10  3 3py        0.23723   0.00000     -0.000   0.000  -0.000
   10  4 3pz        0.41431   0.00000     -0.000   0.000  -0.000
   10  5 3px        0.10381   0.00000     -0.000   0.000  -0.000
   10  6 3py        0.33369   0.00000      0.000  -0.000  -0.000
   10  7 3pz        0.21836   0.00000      0.000  -0.000  -0.000
   10  8 3px        0.42951   0.00000      0.000   0.000  -0.000
   10  9 3Pdxy      0.16736   0.00000     -0.000   0.000  -0.000
   10 10 3Pdyz      0.14319   0.00000      0.000  -0.000  -0.000
   10 11 3Pdz2      0.01073   0.00000      0.000   0.000  -0.000
   10 12 3Pdxz      0.17484   0.00000     -0.000  -0.000  -0.000
   10 13 3Pdx2-y2   0.31974   0.00000      0.000   0.000  -0.000
   10     Total     3.41573   0.00000     -0.000   0.000  -0.000

   11  1 3s         0.55925   0.00000      0.000  -0.000   0.000
   11  2 3s         0.38178   0.00000     -0.000   0.000   0.000
   11  3 3py        0.30570   0.00000      0.000  -0.000   0.000
   11  4 3pz        0.54267   0.00000     -0.000   0.000   0.000
   11  5 3px        0.14009   0.00000      0.000  -0.000   0.000
   11  6 3py        0.30244   0.00000      0.000   0.000   0.000
   11  7 3pz        0.17676   0.00000      0.000  -0.000   0.000
   11  8 3px        0.43149   0.00000      0.000   0.000  -0.000
   11  9 3Pdxy      0.24436   0.00000     -0.000   0.000   0.000
   11 10 3Pdyz      0.12521   0.00000     -0.000   0.000   0.000
   11 11 3Pdz2      0.00939   0.00000      0.000  -0.000  -0.000
   11 12 3Pdxz      0.05295   0.00000      0.000  -0.000   0.000
   11 13 3Pdx2-y2   0.18424   0.00000      0.000  -0.000   0.000
   11     Total     3.45634   0.00000      0.000  -0.000   0.000

   17  1 3s         0.64669   0.00000      0.000  -0.000  -0.000
   17  2 3s         0.35743   0.00000     -0.000   0.000   0.000
   17  3 3py        0.24393   0.00000     -0.000   0.000   0.000
   17  4 3pz        0.42681   0.00000     -0.000   0.000  -0.000
   17  5 3px        0.22660   0.00000     -0.000   0.000  -0.000
   17  6 3py        0.36433   0.00000     -0.000  -0.000  -0.000
   17  7 3pz        0.21378   0.00000      0.000  -0.000  -0.000
   17  8 3px        0.38610   0.00000      0.000   0.000  -0.000
   17  9 3Pdxy      0.28762   0.00000     -0.000   0.000  -0.000
   17 10 3Pdyz      0.13616   0.00000     -0.000  -0.000  -0.000
   17 11 3Pdz2      0.00891   0.00000      0.000  -0.000  -0.000
   17 12 3Pdxz      0.14970   0.00000     -0.000   0.000  -0.000
   17 13 3Pdx2-y2   0.17327   0.00000     -0.000   0.000  -0.000
   17     Total     3.62132   0.00000     -0.000   0.000  -0.000

   18  1 3s         0.74457   0.00000     -0.000  -0.000  -0.000
   18  2 3s         0.34061   0.00000      0.000   0.000   0.000
   18  3 3py        0.07776   0.00000      0.000   0.000   0.000
   18  4 3pz        0.81743   0.00000      0.000  -0.000   0.000
   18  5 3px        0.54650   0.00000     -0.000   0.000   0.000
   18  6 3py        0.52027   0.00000     -0.000   0.000   0.000
   18  7 3pz        0.19715   0.00000      0.000   0.000   0.000
   18  8 3px        0.25451   0.00000      0.000  -0.000   0.000
   18  9 3Pdxy      0.10748   0.00000      0.000   0.000  -0.000
   18 10 3Pdyz      0.02790   0.00000      0.000   0.000  -0.000
   18 11 3Pdz2      0.00904   0.00000      0.000  -0.000  -0.000
   18 12 3Pdxz      0.03059   0.00000     -0.000  -0.000   0.000
   18 13 3Pdx2-y2   0.10359   0.00000     -0.000   0.000  -0.000
   18     Total     3.77739   0.00000     -0.000  -0.000   0.000

   19  1 3s         0.45924   0.00000      0.000   0.000  -0.000
   19  2 3s         0.36310   0.00000      0.000  -0.000  -0.000
   19  3 3py        0.07642   0.00000     -0.000   0.000  -0.000
   19  4 3pz        0.40752   0.00000      0.000  -0.000  -0.000
   19  5 3px        0.29224   0.00000      0.000  -0.000  -0.000
   19  6 3py        0.46193   0.00000      0.000   0.000  -0.000
   19  7 3pz        0.19075   0.00000     -0.000   0.000  -0.000
   19  8 3px        0.27665   0.00000     -0.000   0.000  -0.000
   19  9 3Pdxy      0.33833   0.00000     -0.000   0.000  -0.000
   19 10 3Pdyz      0.18930   0.00000      0.000  -0.000  -0.000
   19 11 3Pdz2      0.01290   0.00000      0.000  -0.000  -0.000
   19 12 3Pdxz      0.09284   0.00000      0.000  -0.000  -0.000
   19 13 3Pdx2-y2   0.23334   0.00000      0.000  -0.000  -0.000
   19     Total     3.39455   0.00000      0.000  -0.000  -0.000

   20  1 3s         0.67598   0.00000     -0.000  -0.000  -0.000
   20  2 3s         0.37860   0.00000      0.000   0.000   0.000
   20  3 3py        0.34195   0.00000     -0.000  -0.000  -0.000
   20  4 3pz        0.59298   0.00000     -0.000   0.000  -0.000
   20  5 3px        0.14172   0.00000      0.000   0.000   0.000
   20  6 3py        0.28565   0.00000      0.000   0.000   0.000
   20  7 3pz        0.16214   0.00000      0.000   0.000   0.000
   20  8 3px        0.49831   0.00000     -0.000   0.000  -0.000
   20  9 3Pdxy      0.10235   0.00000     -0.000  -0.000  -0.000
   20 10 3Pdyz      0.13284   0.00000     -0.000   0.000  -0.000
   20 11 3Pdz2      0.00763   0.00000     -0.000   0.000  -0.000
   20 12 3Pdxz      0.02655   0.00000     -0.000   0.000  -0.000
   20 13 3Pdx2-y2   0.17385   0.00000      0.000  -0.000   0.000
   20     Total     3.52055   0.00000     -0.000   0.000   0.000

----------------------------------------------------------------
Total              89.00793   0.00000     -0.000  -0.000   0.000


Species: H                   

Atom      Orb        Charge      Spin       Svec
----------------------------------------------------------------
   12  1 1s         0.47432   0.00000      0.000   0.000   0.000
   12  2 1s         0.18563   0.00000     -0.000  -0.000   0.000
   12  3 2Ppy       0.03482   0.00000      0.000   0.000  -0.000
   12  4 2Ppz       0.03205   0.00000     -0.000   0.000  -0.000
   12  5 2Ppx       0.03695   0.00000     -0.000  -0.000  -0.000
   12     Total     0.76376   0.00000      0.000   0.000   0.000

   13  1 1s         1.02113   0.00000     -0.000   0.000  -0.000
   13  2 1s         0.09454   0.00000      0.000  -0.000   0.000
   13  3 2Ppy       0.01981   0.00000     -0.000  -0.000  -0.000
   13  4 2Ppz       0.02014   0.00000      0.000  -0.000   0.000
   13  5 2Ppx       0.03314   0.00000     -0.000   0.000  -0.000
   13     Total     1.18876   0.00000     -0.000   0.000  -0.000

   14  1 1s         0.48103   0.00000      0.000   0.000   0.000
   14  2 1s         0.19710   0.00000     -0.000  -0.000   0.000
   14  3 2Ppy       0.01956   0.00000      0.000   0.000  -0.000
   14  4 2Ppz       0.04852   0.00000      0.000   0.000   0.000
   14  5 2Ppx       0.01905   0.00000     -0.000   0.000   0.000
   14     Total     0.76527   0.00000      0.000   0.000   0.000

   15  1 1s         0.44269   0.00000      0.000  -0.000   0.000
   15  2 1s         0.19546   0.00000     -0.000   0.000   0.000
   15  3 2Ppy       0.02352   0.00000     -0.000   0.000  -0.000
   15  4 2Ppz       0.04360   0.00000      0.000   0.000  -0.000
   15  5 2Ppx       0.06032   0.00000      0.000   0.000  -0.000
   15     Total     0.76558   0.00000      0.000  -0.000   0.000

   16  1 1s         0.50712   0.00000      0.000   0.000   0.000
   16  2 1s         0.18769   0.00000      0.000  -0.000   0.000
   16  3 2Ppy       0.03003   0.00000     -0.000   0.000   0.000
   16  4 2Ppz       0.03924   0.00000     -0.000  -0.000   0.000
   16  5 2Ppx       0.02309   0.00000     -0.000  -0.000   0.000
   16     Total     0.78718   0.00000     -0.000   0.000   0.000

   24  1 1s         1.05729   0.00000     -0.000  -0.000  -0.000
   24  2 1s         0.07577   0.00000      0.000   0.000   0.000
   24  3 2Ppy       0.03163   0.00000     -0.000  -0.000   0.000
   24  4 2Ppz       0.03093   0.00000      0.000  -0.000  -0.000
   24  5 2Ppx       0.01772   0.00000      0.000   0.000  -0.000
   24     Total     1.21333   0.00000     -0.000  -0.000  -0.000

   25  1 1s         1.04674   0.00000     -0.000   0.000  -0.000
   25  2 1s         0.08465   0.00000      0.000  -0.000   0.000
   25  3 2Ppy       0.01168   0.00000     -0.000  -0.000  -0.000
   25  4 2Ppz       0.01824   0.00000     -0.000   0.000  -0.000
   25  5 2Ppx       0.03633   0.00000      0.000  -0.000   0.000
   25     Total     1.19763   0.00000     -0.000   0.000  -0.000

   26  1 1s         0.48879   0.00000      0.000   0.000   0.000
   26  2 1s         0.19677   0.00000     -0.000   0.000   0.000
   26  3 2Ppy       0.02064   0.00000      0.000  -0.000  -0.000
   26  4 2Ppz       0.05086   0.00000      0.000   0.000   0.000
   26  5 2Ppx       0.01823   0.00000      0.000  -0.000  -0.000
   26     Total     0.77530   0.00000      0.000   0.000   0.000

   27  1 1s         0.43167   0.00000      0.000  -0.000   0.000
   27  2 1s         0.19440   0.00000      0.000   0.000   0.000
   27  3 2Ppy       0.03265   0.00000     -0.000   0.000   0.000
   27  4 2Ppz       0.04200   0.00000      0.000   0.000  -0.000
   27  5 2Ppx       0.07209   0.00000      0.000   0.000  -0.000
   27     Total     0.77280   0.00000      0.000   0.000   0.000

   29  1 1s         0.48826   0.00000     -0.000   0.000   0.000
   29  2 1s         0.18802   0.00000      0.000  -0.000   0.000
   29  3 2Ppy       0.02512   0.00000      0.000   0.000  -0.000
   29  4 2Ppz       0.03487   0.00000      0.000   0.000   0.000
   29  5 2Ppx       0.02618   0.00000      0.000  -0.000  -0.000
   29     Total     0.76245   0.00000     -0.000   0.000   0.000

----------------------------------------------------------------
Total              98.00000   0.00000      0.000   0.000   0.000


siesta: Eigenvalues (eV):
ik =     1
  -22.6538  -22.6538  -22.3164  -22.3164  -21.3226  -21.3226  -21.3035  -21.3035  -21.0821  -21.0821
  -20.8756  -20.8756  -20.3778  -20.3778  -19.6380  -19.6380  -19.6168  -19.6168  -19.3686  -19.3686
  -14.7484  -14.7484  -13.8255  -13.8255  -13.2424  -13.2424  -13.1486  -13.1486  -12.8274  -12.8274
  -12.6991  -12.6991  -12.5851  -12.5851  -12.0090  -12.0090  -11.8824  -11.8824  -11.7985  -11.7985
  -11.0959  -11.0959  -10.7900  -10.7900  -10.6320  -10.6320  -10.4318  -10.4318  -10.1371  -10.1371
   -9.6560   -9.6560   -9.0108   -9.0108   -8.9894   -8.9894   -8.8501   -8.8501   -8.5827   -8.5827
   -8.5552   -8.5552   -8.4666   -8.4666   -8.3197   -8.3197   -8.0016   -8.0016   -7.9840   -7.9840
   -7.5599   -7.5599   -7.4297   -7.4297   -7.2287   -7.2287   -7.0747   -7.0747   -6.8454   -6.8454
   -6.6418   -6.6418   -6.6086   -6.6086   -6.4032   -6.4032   -6.3914   -6.3914   -6.2826   -6.2826
   -6.1360   -6.1360   -6.0466   -6.0466   -5.5158   -5.5158   -4.3692   -4.3692   -3.2236   -3.2236
   -2.4223   -2.4223   -2.2895   -2.2895   -2.2359   -2.2359   -1.9734   -1.9734   -1.8933   -1.8933
   -1.8287   -1.8287   -1.7395   -1.7395   -1.6568   -1.6568   -1.2649   -1.2649   -1.2095   -1.2095
   -1.1202   -1.1202   -0.5957   -0.5957   -0.4095   -0.4095   -0.3928   -0.3928    0.3310    0.3310
    0.3643    0.3643    0.5327    0.5327    0.7346    0.7346    0.8317    0.8317    1.2334    1.2334
    1.3390    1.3390    1.4206    1.4206    1.4268    1.4268    1.4859    1.4859    1.9115    1.9115
    2.1101    2.1101    2.6007    2.6007    2.6091    2.6091    2.7064    2.7064    2.8213    2.8213
    2.9680    2.9680    3.0103    3.0103    3.1859    3.1859    3.3600    3.3600    3.6127    3.6127
    3.7797    3.7797    4.0448    4.0448    4.0970    4.0970    4.1484    4.1484    4.2984    4.2984
    4.5882    4.5882    4.6363    4.6363    4.7089    4.7089    5.0766    5.0766    5.1284    5.1284
    5.2796    5.2796    5.3500    5.3500    5.5658    5.5658    5.5963    5.5963    5.8933    5.8933
    6.0177    6.0177    6.1532    6.1532    6.4219    6.4219    6.4805    6.4805    6.5519    6.5519
    6.6414    6.6414    6.6746    6.6746    6.7655    6.7655    7.0547    7.0547    7.0726    7.0726
    7.1967    7.1967    7.5655    7.5655    7.6203    7.6203    7.8302    7.8302    8.0560    8.0560
    8.0606    8.0606    8.1771    8.1771    8.3854    8.3854    8.4441    8.4441    8.6495    8.6495
    8.7126    8.7126    8.8974    8.8974    9.0419    9.0419    9.1303    9.1303    9.3544    9.3544
    9.4310    9.4310    9.7903    9.7903    9.8332    9.8332    9.8699    9.8699   10.0304   10.0304
   10.2292   10.2292   10.5530   10.5530   10.5886   10.5886   11.0754   11.0754   11.1236   11.1236
   11.3278   11.3278   11.4930   11.4930   12.2523   12.2523   12.3030   12.3030   12.3367   12.3367
   12.4186   12.4186   12.4247   12.4247   12.7135   12.7135   12.8720   12.8720   13.1464   13.1464
   13.5027   13.5027   13.6332   13.6332   13.7543   13.7543   13.8338   13.8338   14.0665   14.0665
   14.2212   14.2212   14.3477   14.3477   14.4015   14.4015   14.6248   14.6248   14.8308   14.8308
   15.3586   15.3586   15.9063   15.9063   16.3642   16.3642   16.6901   16.6901   16.7425   16.7425
   17.1634   17.1634   17.7349   17.7349   17.7928   17.7928   18.4846   18.4846   18.8489   18.8489
   19.5336   19.5336   19.9099   19.9099   20.1977   20.1977   20.4331   20.4331   20.8066   20.8066
   21.2805   21.2805   21.8750   21.8750   22.0946   22.0946   22.7131   22.7131   22.8875   22.8875
   23.5886   23.5886   23.6911   23.6911   23.9569   23.9569   24.2561   24.2561   24.9859   24.9859
   25.2958   25.2958   25.6202   25.6202   26.5304   26.5304   27.5772   27.5772   28.6971   28.6971
   29.1078   29.1078   29.5642   29.5642   29.8343   29.8343   30.1949   30.1949   30.5824   30.5824
   30.6728   30.6728   30.9493   30.9493   31.1289   31.1289   31.4106   31.4106   31.6708   31.6708
   31.8019   31.8019   32.4191   32.4191   33.3790   33.3790   34.0658   34.0658   34.1378   34.1378
   34.4842   34.4842   35.2016   35.2016   35.3059   35.3059   35.7569   35.7569   36.0818   36.0818
   36.2575   36.2575   36.2791   36.2791   36.7614   36.7614   37.0141   37.0141   38.1190   38.1190
   38.2416   38.2416   38.9071   38.9071   39.1511   39.1511   39.2162   39.2162   39.6691   39.6691
   39.9492   39.9492   39.9802   39.9802   40.8470   40.8470   41.1854   41.1854   41.2781   41.2781
   41.5412   41.5412   41.9340   41.9340   42.2974   42.2974   42.8868   42.8868   43.1152   43.1152
   43.7893   43.7893   43.8343   43.8343   44.0360   44.0360   44.4127   44.4127   44.5501   44.5501
   44.7763   44.7763   44.9275   44.9275   45.2766   45.2766   45.3183   45.3183   45.6115   45.6115
   46.1937   46.1937   46.7625   46.7625   47.7645   47.7645   47.8435   47.8435   48.9349   48.9349
   49.3824   49.3824   49.6354   49.6354   50.3210   50.3210   50.8027   50.8027   50.8209   50.8209
   51.4001   51.4001   51.5965   51.5965   52.0615   52.0615   53.0855   53.0855   53.7100   53.7100
   53.7237   53.7237   53.9639   53.9639   55.3059   55.3059   55.6878   55.6878   55.7806   55.7806
   55.9959   55.9959   56.6917   56.6917   56.7089   56.7089   57.8899   57.8899   58.1806   58.1806
   59.4739   59.4739   59.5309   59.5309   60.0826   60.0826   60.3980   60.3980   60.6468   60.6468
   61.6610   61.6610   61.7685   61.7685   63.0221   63.0221   63.7918   63.7918   65.6901   65.6901
   66.3393   66.3393   67.6010   67.6010   67.6093   67.6093   67.8330   67.8330   68.1593   68.1593
   69.4415   69.4415   70.0815   70.0815   70.7177   70.7177   74.5973   74.5973   80.8948   80.8948
   83.7012   83.7012   88.3438   88.3438   92.2292   92.2292   93.1181   93.1181   94.2965   94.2965
   98.9922   98.9922   99.7911   99.7911  103.1196  103.1196  103.8685  103.8685  105.0063  105.0063
  113.9418  113.9418  115.9502  115.9502  124.5758  124.5758  127.3858  127.3858  136.8926  136.8926
  147.7043  147.7043  148.1542  148.1542
siesta: Fermi energy =      -3.795926 eV

siesta: Program's energy decomposition (eV):
siesta: Ebs     =     -1134.716487
siesta: Eions   =      3585.165840
siesta: Ena     =       384.633328
siesta: Ekin    =      2910.816319
siesta: Enl     =     -2798.046889
siesta: Eso     =        -0.004290
siesta: Edftu   =         0.000000
siesta: DEna    =        48.109300
siesta: DUscf   =        13.838429
siesta: DUext   =         0.000000
siesta: Exc     =     -1121.973248
siesta: eta*DQ  =         0.000000
siesta: Emadel  =         0.000000
siesta: Emeta   =         0.000000
siesta: Emolmec =         0.000000
siesta: Ekinion =         0.000000
siesta: Eharris =     -4147.792888
siesta: Etot    =     -4147.792888
siesta: FreeEng =     -4147.792888

siesta: Final energy (eV):
siesta:  Band Struct. =   -1134.716487
siesta:       Kinetic =    2910.816319
siesta:       Hartree =    8943.546513
siesta:       Edftu   =       0.000000
siesta:       Eso     =      -0.004290
siesta:    Ext. field =       0.000000
siesta:   Exch.-corr. =   -1121.973248
siesta:  Ion-electron =  -20476.072633
siesta:       Ion-ion =    5595.894450
siesta:       Ekinion =       0.000000
siesta:         Total =   -4147.792888
siesta:         Fermi =      -3.795926

siesta: Atomic forces (eV/Ang):
siesta:      1    3.652230   -2.409064   -0.000000
siesta:      2   -0.018031    0.045090   -0.000000
siesta:      3   -0.472750    0.359897   -0.000000
siesta:      4   -0.522030   -0.054530    0.000000
siesta:      5   -0.029417    0.048198    0.000000
siesta:      6   -0.811853   -0.201982    0.000000
siesta:      7   -0.044747    0.174241    0.000000
siesta:      8    0.325623   -0.155517   -0.000000
siesta:      9    0.244068   -0.817596    0.000000
siesta:     10    0.855054   -0.114228    0.000000
siesta:     11   -0.013921    0.041008   -0.000000
siesta:     12    0.152608    0.048127    0.000000
siesta:     13   -0.016902    0.135059    0.000000
siesta:     14   -0.046275   -0.041643    0.000000
siesta:     15    0.880405    0.619397   -0.000000
siesta:     16    0.067618    0.256265    0.000000
siesta:     17   -0.855895    0.692838    0.000000
siesta:     18    0.161386   -0.135897    0.000000
siesta:     19    0.102456    0.898219   -0.000000
siesta:     20   -0.015184    0.283177   -0.000000
siesta:     21    0.220493   -0.817558    0.000000
siesta:     22    1.256499    0.343260   -0.000000
siesta:     23   -0.176657   -0.406978    0.000000
siesta:     24   -0.023115    0.074273   -0.000000
siesta:     25   -0.029322    0.121125   -0.000000
siesta:     26    0.079003    0.190283   -0.000000
siesta:     27   -0.939593   -0.573674    0.000000
siesta:     28    0.062702   -2.534055    0.000000
siesta:     29    0.104579    0.018393   -0.000000
siesta: ----------------------------------------
siesta:    Tot    4.149030   -3.913873   -0.000000

siesta: Stress tensor (static) (eV/Ang**3):
siesta:     0.000277   -0.000052   -0.000000
siesta:    -0.000052   -0.000159   -0.000000
siesta:     0.000000    0.000000   -0.000067

siesta: Cell volume =       4530.314121 Ang**3

siesta: Pressure (static):
siesta:                Solid            Molecule  Units
siesta:          -0.00000018          0.00000705  Ry/Bohr**3
siesta:          -0.00001671          0.00064757  eV/Ang**3
siesta:          -0.02676685          1.03753377  kBar
(Free)E+ p_basis*V_orbitals  =       -4127.942471
(Free)Eharris+ p_basis*V_orbitals  =       -4127.942471
     spin moment: S , {S} =    0.00000   0.00000   0.00000   0.00000

siesta: Electric dipole (a.u.)  =    1.445994    0.082635    0.000000
siesta: Electric dipole (Debye) =    3.675353    0.210037    0.000000

cite: Please see "GC.bib" for an exhaustive BiBTeX file.
cite: Please clearly indicate Siesta version in published work: v4.1.5-1-g384057250
cite: This calculation has made use of the following articles
cite: which are encouraged to be cited in a published work.
        Primary SIESTA paper
          DOI: www.doi.org/10.1088/0953-8984/14/11/302
        Spin-orbit coupling (on-site approximation)
          DOI: www.doi.org/10.1088/0953-8984/19/19/489001


WARNING: alloc-realloc-dealloc name mismatch
         Name: atomlist isa
         Size:              -116. Bytes
         Node:     0
         Subsequent mismatches will not be reported
>> End of run:  22-MAY-2023  16:55:31
Job completed
