Siesta Version  : v4.1.5-1-g384057250
Architecture    : gcc
Compiler version: GNU Fortran (Ubuntu 11.3.0-1ubuntu1~22.04) 11.3.0
Compiler flags  : mpifort -O2 -fPIC -ftree-vectorize -fallow-argument-mismatch
PP flags        : -DFC_HAVE_ABORT -DMPI -DSIESTA__FLOOK -DSIESTA__METIS -DSIESTA__MUMPS -DCDF -DNCDF -DNCDF_4 -DNCDF_PARALLEL -DSIESTA__MRRR -DSIESTA__ELPA
Libraries       : libncdf.a libfdict.a  -lflookall -ldl -lnetcdff -lnetcdf -lhdf5_hl -lhdf5 -lhdf5_fortran -lz -lscalapack-openmpi -lopenblas -lmetis -lzmumps -lcmumps -ldmumps -lmumps_common -lpord -lsmumps -lesmumps -lscotch -lscotcherr -fopenmp -lelpa
PARALLEL version
NetCDF support
NetCDF-4 support
NetCDF-4 MPI-IO support
METIS ordering support
Lua support

* Running on 4 nodes in parallel
>> Start of run:  28-JUN-2023  15:52:58

                           ***********************       
                           *  WELCOME TO SIESTA  *       
                           ***********************       

reinit: Reading from standard input
reinit: Dumped input in INPUT_TMP.19025
************************** Dump of input data file ****************************
SystemLabel      GC
NumberOfAtoms    29
NumberOfSpecies  4
%block ChemicalSpeciesLabel
    1    8  O
    2    7  N
    3   14  Si
    4    1  H
%endblock ChemicalSpeciesLabel
# Single point calculation
MD.TypeOfRun                CG
MD.Steps                    0
SCF.MustConverge            F # In case it does not. There can be 2 very close atoms
AtomicCoordinatesFormat NotScaledCartesianAng
%block AtomicCoordinatesAndAtomicSpecies
1.043624880    3.939228610    0.000000000       1
-3.040641290   1.071078170    0.000000000       2
2.054601450    1.213582070    0.000000000       2
0.999014100    -1.732643800   0.000000000       2
-2.132351640   -1.812968220   0.000000000       2
3.860190550    -1.112298180   0.000000000       2
-1.236183220   1.152964460    0.000000000       3
-0.532924260   -0.939006270   0.000000000       3
0.635660470    2.374516770    0.000000000       3
2.245170240    -0.549967100   0.000000000       3
-3.449816660   -0.583665030   0.000000000       3
2.963714090    1.790992630    0.000000000       4
-4.845591350   -1.123549660   0.000000000       4
4.007020910    -2.152308560   0.000000000       4
4.772194380    -0.502318160   0.000000000       4
-2.265399090   -2.864605110   0.000000000       4
7.045978801    6.339935692    0.000000000       3
8.950862771    7.546574632    0.000000000       3
8.455108631    3.573600722    0.000000000       3
10.532578921   6.042817882    0.000000000       3
7.105601471    4.622508122    0.000000000       2
5.506843741    7.093613002    0.000000000       2
10.107403891   4.303437942    0.000000000       2
9.142207571    9.038728382    0.000000000       4
12.016946901   6.261548702    0.000000000       4
5.395498461    8.142808112    0.000000000       4
4.574286031    6.468698822    0.000000000       4
8.444881801    1.965489602    0.000000000       1
10.882829771   3.576746382    0.000000000       4
%endblock AtomicCoordinatesAndAtomicSpecies
%include ../../../Defaults.fdf
************************** End of input data file *****************************

reinit: -----------------------------------------------------------------------
reinit: System Name: 
reinit: -----------------------------------------------------------------------
reinit: System Label: GC
reinit: -----------------------------------------------------------------------

initatom: Reading input for the pseudopotentials and atomic orbitals ----------
Species number:   1 Atomic number:    8 Label: O
Species number:   2 Atomic number:    7 Label: N
Species number:   3 Atomic number:   14 Label: Si
Species number:   4 Atomic number:    1 Label: H

Ground state valence configuration:   2s02  2p04
Reading pseudopotential information in formatted form from O.psf

Pseudopotential generated from a relativistic atomic calculation

Valence configuration for pseudopotential generation:
2s( 2.00) rc: 0.45
2p( 4.00) rc: 0.92
3d( 0.00) rc: 2.24
4f( 0.00) rc: 0.25
Ground state valence configuration:   2s02  2p03
Reading pseudopotential information in formatted form from N.psf

Pseudopotential generated from a relativistic atomic calculation

Valence configuration for pseudopotential generation:
2s( 2.00) rc: 0.94
2p( 3.00) rc: 0.59
3d( 0.00) rc: 3.46
4f( 0.00) rc: 2.47
Ground state valence configuration:   3s02  3p02
Reading pseudopotential information in formatted form from Si.psf

Pseudopotential generated from a relativistic atomic calculation

Valence configuration for pseudopotential generation:
3s( 2.00) rc: 1.67
3p( 2.00) rc: 2.04
3d( 0.00) rc: 2.89
4f( 0.00) rc: 2.49
Ground state valence configuration:   1s01
Reading pseudopotential information in formatted form from H.psf

Pseudopotential generated from a relativistic atomic calculation

Valence configuration for pseudopotential generation:
1s( 1.00) rc: 0.01
2p( 0.00) rc: 0.60
3d( 0.00) rc: 1.99
4f( 0.00) rc: 2.49
For O, standard SIESTA heuristics set lmxkb to 3
 (one more than the basis l, including polarization orbitals).
Use PS.lmax or PS.KBprojectors blocks to override.
For N, standard SIESTA heuristics set lmxkb to 3
 (one more than the basis l, including polarization orbitals).
Use PS.lmax or PS.KBprojectors blocks to override.
For Si, standard SIESTA heuristics set lmxkb to 3
 (one more than the basis l, including polarization orbitals).
Use PS.lmax or PS.KBprojectors blocks to override.
For H, standard SIESTA heuristics set lmxkb to 2
 (one more than the basis l, including polarization orbitals).
Use PS.lmax or PS.KBprojectors blocks to override.

<basis_specs>
===============================================================================
O                    Z=   8    Mass=  16.000        Charge= 0.17977+309
Lmxo=1 Lmxkb= 3    BasisType=split      Semic=F
L=0  Nsemic=0  Cnfigmx=2
          i=1  nzeta=2  polorb=0  (2s)
            splnorm:   0.28000    
               vcte:    0.0000    
               rinn:    0.0000    
               qcoe:    0.0000    
               qyuk:    0.0000    
               qwid:   0.10000E-01
                rcs:    0.0000      0.0000    
            lambdas:    1.0000      1.0000    
L=1  Nsemic=0  Cnfigmx=2
          i=1  nzeta=2  polorb=1  (2p)
            splnorm:   0.28000    
               vcte:    0.0000    
               rinn:    0.0000    
               qcoe:    0.0000    
               qyuk:    0.0000    
               qwid:   0.10000E-01
                rcs:    0.0000      0.0000    
            lambdas:    1.0000      1.0000    
-------------------------------------------------------------------------------
L=0  Nkbl=1  erefs: 0.17977+309
L=1  Nkbl=1  erefs: 0.17977+309
L=2  Nkbl=1  erefs: 0.17977+309
L=3  Nkbl=1  erefs: 0.17977+309
===============================================================================
</basis_specs>

atom: Called for O                     (Z =   8)

read_vps: Pseudopotential generation method:
read_vps: ATM4.2.7  Troullier-Martins                       
Valence charge for ps generation:    6.00000

xc_check: Exchange-correlation functional:
xc_check: GGA Perdew, Burke & Ernzerhof 1996
V l=0 = -2*Zval/r beyond r=  1.1000
V l=1 = -2*Zval/r beyond r=  1.1000
V l=2 = -2*Zval/r beyond r=  2.2154
V l=3 = -2*Zval/r beyond r=  1.1000
All V_l potentials equal beyond r=  2.2154
This should be close to max(r_c) in ps generation
All pots = -2*Zval/r beyond r=  2.2154

VLOCAL1: 99.0% of the norm of Vloc inside      8.845 Ry
VLOCAL1: 99.9% of the norm of Vloc inside     20.157 Ry
atom: Maximum radius for 4*pi*r*r*local-pseudopot. charge    2.67231
atom: Maximum radius for r*vlocal+2*Zval:    2.32897
GHOST: No ghost state for L =  0
GHOST: No ghost state for L =  1
GHOST: No ghost state for L =  2
GHOST: No ghost state for L =  3

KBgen: Kleinman-Bylander projectors: 
   l= 0   rc=  2.243238   el= -1.759686   Ekb=**********   kbcos= -0.171774
   l= 1   rc=  2.328968   el= -0.663873   Ekb=-14.506792   kbcos= -0.519897
   l= 2   rc=  2.573941   el=  0.002031   Ekb= -1.137373   kbcos= -0.019581
   l= 3   rc=  2.606321   el=  0.003153   Ekb= -1.013546   kbcos= -0.003122

KBgen: Total number of Kleinman-Bylander projectors:   16
atom: -------------------------------------------------------------------------

atom: SANKEY-TYPE ORBITALS:
atom: Selected multiple-zeta basis: split     

SPLIT: Orbitals with angular momentum L= 0

SPLIT: Basis orbitals for state 2s

SPLIT: PAO cut-off radius determined from an
SPLIT: energy shift=  0.002000 Ry

   izeta = 1
                 lambda =    1.000000
                     rc =    4.243912
                 energy =   -1.758270
                kinetic =    3.286084
    potential(screened) =   -5.044353
       potential(ionic) =  -12.921184

   izeta = 2
                 rmatch =    2.187845
              splitnorm =    0.280000
                 energy =   -0.885018
                kinetic =    8.134434
    potential(screened) =   -9.019452
       potential(ionic) =  -17.710645

SPLIT: Orbitals with angular momentum L= 1

SPLIT: Basis orbitals for state 2p

SPLIT: PAO cut-off radius determined from an
SPLIT: energy shift=  0.002000 Ry

   izeta = 1
                 lambda =    1.000000
                     rc =    5.314825
                 energy =   -0.661986
                kinetic =    4.917472
    potential(screened) =   -5.579458
       potential(ionic) =  -13.236259

   izeta = 2
                 rmatch =    2.160663
              splitnorm =    0.280000
                 energy =   -0.068760
                kinetic =    9.183374
    potential(screened) =   -9.252135
       potential(ionic) =  -18.274251

POLgen: Perturbative polarization orbital with L=  2

POLgen: Polarization orbital for state 2p

   izeta = 1
                     rc =    5.314825
                 energy =    1.970580
                kinetic =    3.886128
    potential(screened) =   -1.915547
       potential(ionic) =   -7.749584
atom: Total number of Sankey-type orbitals: 13

atm_pop: Valence configuration (for local Pseudopot. screening):
 2s( 2.00)                                                            
 2p( 4.00)                                                            
Vna: chval, zval:    6.00000   6.00000

Vna:  Cut-off radius for the neutral-atom potential:   5.314825

atom: _________________________________________________________________________

<basis_specs>
===============================================================================
N                    Z=   7    Mass=  14.010        Charge= 0.17977+309
Lmxo=1 Lmxkb= 3    BasisType=split      Semic=F
L=0  Nsemic=0  Cnfigmx=2
          i=1  nzeta=2  polorb=0  (2s)
            splnorm:   0.28000    
               vcte:    0.0000    
               rinn:    0.0000    
               qcoe:    0.0000    
               qyuk:    0.0000    
               qwid:   0.10000E-01
                rcs:    0.0000      0.0000    
            lambdas:    1.0000      1.0000    
L=1  Nsemic=0  Cnfigmx=2
          i=1  nzeta=2  polorb=1  (2p)
            splnorm:   0.28000    
               vcte:    0.0000    
               rinn:    0.0000    
               qcoe:    0.0000    
               qyuk:    0.0000    
               qwid:   0.10000E-01
                rcs:    0.0000      0.0000    
            lambdas:    1.0000      1.0000    
-------------------------------------------------------------------------------
L=0  Nkbl=1  erefs: 0.17977+309
L=1  Nkbl=1  erefs: 0.17977+309
L=2  Nkbl=1  erefs: 0.17977+309
L=3  Nkbl=1  erefs: 0.17977+309
===============================================================================
</basis_specs>

atom: Called for N                     (Z =   7)

read_vps: Pseudopotential generation method:
read_vps: ATM4.2.7  Troullier-Martins                       
Valence charge for ps generation:    5.00000

xc_check: Exchange-correlation functional:
xc_check: GGA Perdew, Burke & Ernzerhof 1996
V l=0 = -2*Zval/r beyond r=  1.2889
V l=1 = -2*Zval/r beyond r=  1.2889
V l=2 = -2*Zval/r beyond r=  3.4178
V l=3 = -2*Zval/r beyond r=  2.4084
All V_l potentials equal beyond r=  3.3753
This should be close to max(r_c) in ps generation
All pots = -2*Zval/r beyond r=  3.4178

VLOCAL1: 99.0% of the norm of Vloc inside      3.810 Ry
VLOCAL1: 99.9% of the norm of Vloc inside      8.683 Ry
atom: Maximum radius for 4*pi*r*r*local-pseudopot. charge    4.02088
atom: Maximum radius for r*vlocal+2*Zval:    3.54838
GHOST: No ghost state for L =  0
GHOST: No ghost state for L =  1
GHOST: No ghost state for L =  2
GHOST: No ghost state for L =  3

KBgen: Kleinman-Bylander projectors: 
   l= 0   rc=  3.417763   el= -1.365098   Ekb= -4.433130   kbcos= -0.707855
   l= 1   rc=  3.375302   el= -0.521201   Ekb=-13.264039   kbcos= -0.535594
   l= 2   rc=  3.872880   el=  0.001991   Ekb= -0.641094   kbcos= -0.062456
   l= 3   rc=  3.970931   el=  0.003093   Ekb= -0.474517   kbcos= -0.018236

KBgen: Total number of Kleinman-Bylander projectors:   16
atom: -------------------------------------------------------------------------

atom: SANKEY-TYPE ORBITALS:
atom: Selected multiple-zeta basis: split     

SPLIT: Orbitals with angular momentum L= 0

SPLIT: Basis orbitals for state 2s

SPLIT: PAO cut-off radius determined from an
SPLIT: energy shift=  0.002000 Ry

   izeta = 1
                 lambda =    1.000000
                     rc =    4.730425
                 energy =   -1.363399
                kinetic =    1.245246
    potential(screened) =   -2.608645
       potential(ionic) =   -8.121105

   izeta = 2
                 rmatch =    2.531849
              splitnorm =    0.280000
                 energy =   -0.959908
                kinetic =    2.409435
    potential(screened) =   -3.369343
       potential(ionic) =   -9.427975

SPLIT: Orbitals with angular momentum L= 1

SPLIT: Basis orbitals for state 2p

SPLIT: PAO cut-off radius determined from an
SPLIT: energy shift=  0.002000 Ry

   izeta = 1
                 lambda =    1.000000
                     rc =    5.924108
                 energy =   -0.519262
                kinetic =    3.672940
    potential(screened) =   -4.192202
       potential(ionic) =   -9.518354

   izeta = 2
                 rmatch =    2.531849
              splitnorm =    0.280000
                 energy =   -0.104258
                kinetic =    6.807538
    potential(screened) =   -6.911796
       potential(ionic) =  -13.149920

POLgen: Perturbative polarization orbital with L=  2

POLgen: Polarization orbital for state 2p

   izeta = 1
                     rc =    5.924108
                 energy =    1.427508
                kinetic =    2.872379
    potential(screened) =   -1.444871
       potential(ionic) =   -5.563644
atom: Total number of Sankey-type orbitals: 13

atm_pop: Valence configuration (for local Pseudopot. screening):
 2s( 2.00)                                                            
 2p( 3.00)                                                            
Vna: chval, zval:    5.00000   5.00000

Vna:  Cut-off radius for the neutral-atom potential:   5.924108

atom: _________________________________________________________________________

<basis_specs>
===============================================================================
Si                   Z=  14    Mass=  28.090        Charge= 0.17977+309
Lmxo=1 Lmxkb= 3    BasisType=split      Semic=F
L=0  Nsemic=0  Cnfigmx=3
          i=1  nzeta=2  polorb=0  (3s)
            splnorm:   0.28000    
               vcte:    0.0000    
               rinn:    0.0000    
               qcoe:    0.0000    
               qyuk:    0.0000    
               qwid:   0.10000E-01
                rcs:    0.0000      0.0000    
            lambdas:    1.0000      1.0000    
L=1  Nsemic=0  Cnfigmx=3
          i=1  nzeta=2  polorb=1  (3p)
            splnorm:   0.28000    
               vcte:    0.0000    
               rinn:    0.0000    
               qcoe:    0.0000    
               qyuk:    0.0000    
               qwid:   0.10000E-01
                rcs:    0.0000      0.0000    
            lambdas:    1.0000      1.0000    
-------------------------------------------------------------------------------
L=0  Nkbl=1  erefs: 0.17977+309
L=1  Nkbl=1  erefs: 0.17977+309
L=2  Nkbl=1  erefs: 0.17977+309
L=3  Nkbl=1  erefs: 0.17977+309
===============================================================================
</basis_specs>

atom: Called for Si                    (Z =  14)

read_vps: Pseudopotential generation method:
read_vps: ATM4.2.7  Troullier-Martins                       
Valence charge for ps generation:    4.00000

xc_check: Exchange-correlation functional:
xc_check: GGA Perdew, Burke & Ernzerhof 1996
V l=0 = -2*Zval/r beyond r=  2.7826
V l=1 = -2*Zval/r beyond r=  2.7826
V l=2 = -2*Zval/r beyond r=  2.9253
V l=3 = -2*Zval/r beyond r=  2.7826
All V_l potentials equal beyond r=  2.8530
This should be close to max(r_c) in ps generation
All pots = -2*Zval/r beyond r=  2.9253

VLOCAL1: 99.0% of the norm of Vloc inside      5.333 Ry
VLOCAL1: 99.9% of the norm of Vloc inside     12.154 Ry
atom: Maximum radius for 4*pi*r*r*local-pseudopot. charge    3.39869
atom: Maximum radius for r*vlocal+2*Zval:    2.96205
GHOST: No ghost state for L =  0
GHOST: No ghost state for L =  1
GHOST: No ghost state for L =  2
GHOST: No ghost state for L =  3

KBgen: Kleinman-Bylander projectors: 
   l= 0   rc=  3.075247   el= -0.794092   Ekb=  5.879390   kbcos=  0.167461
   l= 1   rc=  3.153101   el= -0.300068   Ekb=  2.642817   kbcos=  0.058301
   l= 2   rc=  3.273594   el=  0.001958   Ekb= -1.185135   kbcos= -0.104411
   l= 3   rc=  3.232927   el=  0.003046   Ekb= -0.497174   kbcos= -0.015889

KBgen: Total number of Kleinman-Bylander projectors:   16
atom: -------------------------------------------------------------------------

atom: SANKEY-TYPE ORBITALS:
atom: Selected multiple-zeta basis: split     

SPLIT: Orbitals with angular momentum L= 0

SPLIT: Basis orbitals for state 3s

SPLIT: PAO cut-off radius determined from an
SPLIT: energy shift=  0.002000 Ry

   izeta = 1
                 lambda =    1.000000
                     rc =    6.429618
                 energy =   -0.792283
                kinetic =    0.525293
    potential(screened) =   -1.317576
       potential(ionic) =   -3.744923

   izeta = 2
                 rmatch =    3.998416
              splitnorm =    0.280000
                 energy =   -0.583081
                kinetic =    1.069570
    potential(screened) =   -1.652651
       potential(ionic) =   -4.235185

SPLIT: Orbitals with angular momentum L= 1

SPLIT: Basis orbitals for state 3p

SPLIT: PAO cut-off radius determined from an
SPLIT: energy shift=  0.002000 Ry

   izeta = 1
                 lambda =    1.000000
                     rc =    8.464845
                 energy =   -0.298236
                kinetic =    0.785360
    potential(screened) =   -1.083596
       potential(ionic) =   -3.273779

   izeta = 2
                 rmatch =    4.587816
              splitnorm =    0.280000
                 energy =   -0.131871
                kinetic =    1.403687
    potential(screened) =   -1.535557
       potential(ionic) =   -4.015310

POLgen: Perturbative polarization orbital with L=  2

POLgen: Polarization orbital for state 3p

   izeta = 1
                     rc =    8.464845
                 energy =    0.321949
                kinetic =    1.055677
    potential(screened) =   -0.733728
       potential(ionic) =   -2.672950
atom: Total number of Sankey-type orbitals: 13

atm_pop: Valence configuration (for local Pseudopot. screening):
 3s( 2.00)                                                            
 3p( 2.00)                                                            
Vna: chval, zval:    4.00000   4.00000

Vna:  Cut-off radius for the neutral-atom potential:   8.464845

atom: _________________________________________________________________________

<basis_specs>
===============================================================================
H                    Z=   1    Mass=  1.0100        Charge= 0.17977+309
Lmxo=0 Lmxkb= 2    BasisType=split      Semic=F
L=0  Nsemic=0  Cnfigmx=1
          i=1  nzeta=2  polorb=1  (1s)
            splnorm:   0.62000    
               vcte:    0.0000    
               rinn:    0.0000    
               qcoe:    0.0000    
               qyuk:    0.0000    
               qwid:   0.10000E-01
                rcs:    0.0000      0.0000    
            lambdas:    1.0000      1.0000    
-------------------------------------------------------------------------------
L=0  Nkbl=1  erefs: 0.17977+309
L=1  Nkbl=1  erefs: 0.17977+309
L=2  Nkbl=1  erefs: 0.17977+309
===============================================================================
</basis_specs>

atom: Called for H                     (Z =   1)

read_vps: Pseudopotential generation method:
read_vps: ATM4.2.7  Troullier-Martins                       
Valence charge for ps generation:    1.00000

xc_check: Exchange-correlation functional:
xc_check: GGA Perdew, Burke & Ernzerhof 1996
V l=0 = -2*Zval/r beyond r=  0.0098
V l=1 = -2*Zval/r beyond r=  0.5817
V l=2 = -2*Zval/r beyond r=  1.9372
All V_l potentials equal beyond r=  1.9372
This should be close to max(r_c) in ps generation
All pots = -2*Zval/r beyond r=  1.9372

VLOCAL1: 99.0% of the norm of Vloc inside     11.567 Ry
VLOCAL1: 99.9% of the norm of Vloc inside     26.362 Ry
atom: Maximum radius for 4*pi*r*r*local-pseudopot. charge    2.25106
atom: Maximum radius for r*vlocal+2*Zval:    1.91306
GHOST: No ghost state for L =  0
GHOST: No ghost state for L =  1
GHOST: No ghost state for L =  2

KBgen: Kleinman-Bylander projectors: 
   l= 0   rc=  2.036604   el= -0.477180   Ekb= -6.081590   kbcos= -0.277285
   l= 1   rc=  2.195416   el=  0.001076   Ekb= -0.926943   kbcos= -0.034643
   l= 2   rc=  2.251056   el=  0.002010   Ekb= -0.130941   kbcos= -0.009788

KBgen: Total number of Kleinman-Bylander projectors:    9
atom: -------------------------------------------------------------------------

atom: SANKEY-TYPE ORBITALS:
atom: Selected multiple-zeta basis: split     

SPLIT: Orbitals with angular momentum L= 0

SPLIT: Basis orbitals for state 1s

SPLIT: PAO cut-off radius determined from an
SPLIT: energy shift=  0.002000 Ry

   izeta = 1
                 lambda =    1.000000
                     rc =    6.518340
                 energy =   -0.475305
                kinetic =    0.912139
    potential(screened) =   -1.387444
       potential(ionic) =   -1.907295

   izeta = 2
                 rmatch =    2.141150
              splitnorm =    0.620000
                 energy =    0.566467
                kinetic =    3.772856
    potential(screened) =   -3.206389
       potential(ionic) =   -3.759093

POLgen: Perturbative polarization orbital with L=  1

POLgen: Polarization orbital for state 1s

   izeta = 1
                     rc =    6.518340
                 energy =    0.533861
                kinetic =    1.121086
    potential(screened) =   -0.587225
       potential(ionic) =   -1.053027
atom: Total number of Sankey-type orbitals:  5

atm_pop: Valence configuration (for local Pseudopot. screening):
 1s( 1.00)                                                            
Vna: chval, zval:    1.00000   1.00000

Vna:  Cut-off radius for the neutral-atom potential:   6.518340

atom: _________________________________________________________________________

prinput: Basis input ----------------------------------------------------------

PAO.BasisType split     

%block ChemicalSpeciesLabel
    1    8 O                       # Species index, atomic number, species label
    2    7 N                       # Species index, atomic number, species label
    3   14 Si                      # Species index, atomic number, species label
    4    1 H                       # Species index, atomic number, species label
%endblock ChemicalSpeciesLabel

%block PAO.Basis                 # Define Basis set
O                     2                    # Species label, number of l-shells
 n=2   0   2                         # n, l, Nzeta 
   4.244      2.188   
   1.000      1.000   
 n=2   1   2 P   1                   # n, l, Nzeta, Polarization, NzetaPol
   5.315      2.161   
   1.000      1.000   
N                     2                    # Species label, number of l-shells
 n=2   0   2                         # n, l, Nzeta 
   4.730      2.532   
   1.000      1.000   
 n=2   1   2 P   1                   # n, l, Nzeta, Polarization, NzetaPol
   5.924      2.532   
   1.000      1.000   
Si                    2                    # Species label, number of l-shells
 n=3   0   2                         # n, l, Nzeta 
   6.430      3.998   
   1.000      1.000   
 n=3   1   2 P   1                   # n, l, Nzeta, Polarization, NzetaPol
   8.465      4.588   
   1.000      1.000   
H                     1                    # Species label, number of l-shells
 n=1   0   2 P   1                   # n, l, Nzeta, Polarization, NzetaPol
   6.518      2.141   
   1.000      1.000   
%endblock PAO.Basis

prinput: ----------------------------------------------------------------------

Dumping basis to NetCDF file O.ion.nc
Dumping basis to NetCDF file N.ion.nc
Dumping basis to NetCDF file Si.ion.nc
Dumping basis to NetCDF file H.ion.nc
coor:   Atomic-coordinates input format  =     Cartesian coordinates
coor:                                          (in Angstroms)

siesta: Atomic coordinates (Bohr) and species
siesta:      1.97217   7.44407   0.00000  1        1
siesta:     -5.74598   2.02405   0.00000  2        2
siesta:      3.88264   2.29334   0.00000  2        3
siesta:      1.88786  -3.27422   0.00000  2        4
siesta:     -4.02956  -3.42601   0.00000  2        5
siesta:      7.29471  -2.10194   0.00000  2        6
siesta:     -2.33605   2.17879   0.00000  3        7
siesta:     -1.00708  -1.77447   0.00000  3        8
siesta:      1.20122   4.48719   0.00000  3        9
siesta:      4.24276  -1.03929   0.00000  3       10
siesta:     -6.51921  -1.10297   0.00000  3       11
siesta:      5.60061   3.38449   0.00000  4       12
siesta:     -9.15684  -2.12320   0.00000  4       13
siesta:      7.57218  -4.06728   0.00000  4       14
siesta:      9.01814  -0.94924   0.00000  4       15
siesta:     -4.28099  -5.41332   0.00000  4       16
siesta:     13.31498  11.98075   0.00000  3       17
siesta:     16.91469  14.26096   0.00000  3       18
siesta:     15.97785   6.75313   0.00000  3       19
siesta:     19.90370  11.41928   0.00000  3       20
siesta:     13.42765   8.73528   0.00000  2       21
siesta:     10.40643  13.40499   0.00000  2       22
siesta:     19.10023   8.13232   0.00000  2       23
siesta:     17.27628  17.08073   0.00000  4       24
siesta:     22.70875  11.83262   0.00000  4       25
siesta:     10.19602  15.38768   0.00000  4       26
siesta:      8.64415  12.22407   0.00000  4       27
siesta:     15.95852   3.71424   0.00000  1       28
siesta:     20.56558   6.75907   0.00000  4       29

siesta: Automatic unit cell vectors (Ang):
siesta:   26.137375    0.000000    0.000000
siesta:    0.000000   20.682250    0.000000
siesta:    0.000000    0.000000    9.854683

siesta: System type = molecule  

initatomlists: Number of atoms, orbitals, and projectors:     29   297   394

siesta: ******************** Simulation parameters ****************************
siesta:
siesta: The following are some of the parameters of the simulation.
siesta: A complete list of the parameters used, including default values,
siesta: can be found in file out.fdf
siesta:
redata: Spin configuration                          = spin-orbit
redata: Number of spin components                   = 8
redata: Time-Reversal Symmetry                      = F
redata: Spin spiral                                 = F
############################################################
This spin-orbit implementation uses a local approximation.
From 4.2 and onwards the full non-local approximation is implemented
You are strongly advised to use >=4.2 versions!
############################################################
redata: Long output                                 =   F
redata: Number of Atomic Species                    =        4
redata: Charge density info will appear in .RHO file
redata: Write Mulliken Pop.                         = Atomic and Orbital charges
redata: Matel table size (NRTAB)                    =     1024
redata: Mesh Cutoff                                 =   340.0000 Ry
redata: Net charge of the system                    =     0.0000 |e|
redata: Min. number of SCF Iter                     =        1
redata: Max. number of SCF Iter                     =      200
redata: SCF mix quantity                            = Hamiltonian
redata: Mix DM or H after convergence               =   F
redata: Recompute H after scf cycle                 =   F
redata: Mix DM in first SCF step                    =   T
redata: Write Pulay info on disk                    =   F
redata: New DM Occupancy tolerance                  = 0.000000000001
redata: No kicks to SCF
redata: DM Mixing Weight for Kicks                  =     0.5000
redata: Require Harris convergence for SCF          =   F
redata: Harris energy tolerance for SCF             =     0.000100 eV
redata: Require DM convergence for SCF              =   T
redata: DM tolerance for SCF                        =     0.000008
redata: Require EDM convergence for SCF             =   F
redata: EDM tolerance for SCF                       =     0.001000 eV
redata: Require H convergence for SCF               =   T
redata: Hamiltonian tolerance for SCF               =     0.000001 eV
redata: Require (free) Energy convergence for SCF   =   F
redata: (free) Energy tolerance for SCF             =     0.000100 eV
redata: Using Saved Data (generic)                  =   F
redata: Use continuation files for DM               =   F
redata: Neglect nonoverlap interactions             =   F
redata: Method of Calculation                       = Diagonalization
redata: Electronic Temperature                      =   299.9978 K
redata: Fix the spin of the system                  =   F
redata: Dynamics option                             = Single-point calculation
mix.SCF: Pulay mixing                            = Pulay
mix.SCF:    Variant                              = stable
mix.SCF:    History steps                        = 6
mix.SCF:    Linear mixing weight                 =     0.250000
mix.SCF:    Mixing weight                        =     0.250000
mix.SCF:    SVD condition                        = 0.1000E-07
mix.SCF:    Restart steps                        = 24
mix.SCF:    Restart save steps                   = 3
mix.SCF: Spin-component mixing                   all
redata: Save all siesta data in one NC              =   F
redata: ***********************************************************************

%block SCF.Mixers
  Pulay
%endblock SCF.Mixers

%block SCF.Mixer.Pulay
  # Mixing method
  method pulay
  variant stable

  # Mixing options
  weight 0.2500
  weight.linear 0.2500
  history 6
  restart 24
  restart.save 3
%endblock SCF.Mixer.Pulay

DM_history_depth set to one: no extrapolation allowed by default for geometry relaxation
Size of DM history Fstack: 1
Total number of electrons:    98.000000
Total ionic charge:    98.000000

* ProcessorY, Blocksize:    2  24


* Orbital distribution balance (max,min):    81    72


Time-reversal symmetry not used.

siesta: k-grid: Number of k-points =     1
siesta: k-grid: Cutoff (effective) =     4.927 Ang
siesta: k-grid: Supercell and displacements
siesta: k-grid:    1   0   0      0.000
siesta: k-grid:    0   1   0      0.000
siesta: k-grid:    0   0   1      0.000

diag: Algorithm                                     = ELPA-1stage
diag: Parallel over k                               =   F
diag: Use parallel 2D distribution                  =   T
diag: Parallel block-size                           = 24
diag: Parallel distribution                         =     2 x     2
diag: Used triangular part                          = Lower
diag: Absolute tolerance                            =  0.100E-15
diag: Orthogonalization factor                      =  0.100E-05
diag: Memory factor                                 =  1.0000


ts: **************************************************************
ts: Save H and S matrices                           =    F
ts: Save DM and EDM matrices                        =    F
ts: Only save the overlap matrix S                  =    F
ts: **************************************************************

************************ Begin: TS CHECKS AND WARNINGS ************************
************************ End: TS CHECKS AND WARNINGS **************************


                     ====================================
                        Single-point calculation
                     ====================================

outcoor: Atomic coordinates (Ang):                          
    1.04362488    3.93922861    0.00000000   1       1  O
   -3.04064129    1.07107817    0.00000000   2       2  N
    2.05460145    1.21358207    0.00000000   2       3  N
    0.99901410   -1.73264380    0.00000000   2       4  N
   -2.13235164   -1.81296822    0.00000000   2       5  N
    3.86019055   -1.11229818    0.00000000   2       6  N
   -1.23618322    1.15296446    0.00000000   3       7  Si
   -0.53292426   -0.93900627    0.00000000   3       8  Si
    0.63566047    2.37451677    0.00000000   3       9  Si
    2.24517024   -0.54996710    0.00000000   3      10  Si
   -3.44981666   -0.58366503    0.00000000   3      11  Si
    2.96371409    1.79099263    0.00000000   4      12  H
   -4.84559135   -1.12354966    0.00000000   4      13  H
    4.00702091   -2.15230856    0.00000000   4      14  H
    4.77219438   -0.50231816    0.00000000   4      15  H
   -2.26539909   -2.86460511    0.00000000   4      16  H
    7.04597880    6.33993569    0.00000000   3      17  Si
    8.95086277    7.54657463    0.00000000   3      18  Si
    8.45510863    3.57360072    0.00000000   3      19  Si
   10.53257892    6.04281788    0.00000000   3      20  Si
    7.10560147    4.62250812    0.00000000   2      21  N
    5.50684374    7.09361300    0.00000000   2      22  N
   10.10740389    4.30343794    0.00000000   2      23  N
    9.14220757    9.03872838    0.00000000   4      24  H
   12.01694690    6.26154870    0.00000000   4      25  H
    5.39549846    8.14280811    0.00000000   4      26  H
    4.57428603    6.46869882    0.00000000   4      27  H
    8.44488180    1.96548960    0.00000000   1      28  O
   10.88282977    3.57674638    0.00000000   4      29  H

outcell: Unit cell vectors (Ang):
       26.137375    0.000000    0.000000
        0.000000   20.682250    0.000000
        0.000000    0.000000    9.854683

outcell: Cell vector modules (Ang)   :   26.137375   20.682250    9.854683
outcell: Cell angles (23,13,12) (deg):     90.0000     90.0000     90.0000
outcell: Cell volume (Ang**3)        :   5327.2418
<dSpData1D:S at geom step 0
  <sparsity:sparsity for geom step 0
    nrows_g=297 nrows=81 sparsity=.1561 nnzs=13771, refcount: 8>
  <dData1D:(new from dSpData1D) n=13771, refcount: 1>
refcount: 1>
new_DM -- step:     1
Initializing Density Matrix...
DM filled with atomic data:
<dSpData2D:DM initialized from atoms
  <sparsity:sparsity for geom step 0
    nrows_g=297 nrows=81 sparsity=.1561 nnzs=13771, refcount: 9>
  <dData2D:DM n=13771 m=8, refcount: 1>
refcount: 1>
     spin moment: S , {S} =   56.00000   0.00000   0.00000  56.00000
No. of atoms with KB's overlaping orbs in proc 0. Max # of overlaps:      29     142

Initializing spin-orbit part of the Hamiltonian
  Adding spin-orbit effects for O 
  Adding spin-orbit effects for N 
  Adding spin-orbit effects for Si
  Adding spin-orbit effects for H 


New grid distribution:   1
           1       1:  150    1:   60    1:   30
           2       1:  150    1:   60   31:   60
           3       1:  150   61:  120    1:   30
           4       1:  150   61:  120   31:   60

InitMesh: MESH =   300 x   240 x   120 =     8640000
InitMesh: (bp) =   150 x   120 x    60 =     1080000
InitMesh: Mesh cutoff (required, used) =   340.000   364.100 Ry
ExtMesh (bp) on 0 =   254 x   164 x   142 =     5915152
New grid distribution:   2
           1      49:  150    1:   33    1:   60
           2       1:   48    1:   33    1:   60
           3      49:  150   34:  120    1:   60
           4       1:   48   34:  120    1:   60
New grid distribution:   3
           1      52:  150    1:   37    1:   60
           2       1:   51    1:   39    1:   60
           3      52:  150   38:  120    1:   60
           4       1:   51   40:  120    1:   60
Setting up quadratic distribution...
ExtMesh (bp) on 0 =   206 x   137 x   172 =     4854184
PhiOnMesh: Number of (b)points on node 0 =               201960
PhiOnMesh: nlist on node 0 =              2590584

stepf: Fermi-Dirac step function

siesta: Program's energy decomposition (eV):
siesta: Ebs     =      -618.278120
siesta: Eions   =      3585.165840
siesta: Ena     =       382.019110
siesta: Ekin    =      3370.521980
siesta: Enl     =     -3299.017990
siesta: Eso     =        -0.003410
siesta: Edftu   =         0.000000
siesta: DEna    =       153.758886
siesta: DUscf   =        81.794605
siesta: DUext   =         0.000000
siesta: Exc     =     -1204.418687
siesta: eta*DQ  =         0.000000
siesta: Emadel  =         0.000000
siesta: Emeta   =         0.000000
siesta: Emolmec =         0.000000
siesta: Ekinion =         0.000000
siesta: Eharris =     -4020.774043
siesta: Etot    =     -4100.511346
siesta: FreeEng =     -4100.512768

        iscf     Eharris(eV)        E_KS(eV)     FreeEng(eV)     dDmax    Ef(eV) dHmax(eV)
   scf:    1    -4020.774043    -4100.511346    -4100.512768  0.965024 -4.904539 21.820104
     spin moment: S , {S} =    2.00728  -0.00000   0.00000   2.00728
timer: Routine,Calls,Time,% = IterSCF        1      12.688  18.18
   scf:    2    -4147.622261    -4136.113652    -4136.115336  0.452858 -4.219249 11.641570
     spin moment: S , {S} =    1.98996  -0.00000   0.00000   1.98996
   scf:    3    -4108.893326    -4133.876666    -4133.890355  0.422838 -4.325157 11.747641
     spin moment: S , {S} =    2.04106  -0.00000  -0.00000   2.04106
   scf:    4    -4149.695814    -4145.078742    -4145.078742  0.312785 -3.899322  6.457100
     spin moment: S , {S} =    0.00010  -0.00000  -0.00000   0.00010
   scf:    5    -4146.402851    -4145.846101    -4145.846101  0.036214 -3.667299  4.238675
     spin moment: S , {S} =    0.00006   0.00000   0.00000   0.00006
   scf:    6    -4146.632080    -4146.248750    -4146.248750  0.024430 -3.517042  2.070575
     spin moment: S , {S} =    0.00003   0.00000  -0.00000   0.00003
   scf:    7    -4146.601326    -4146.421902    -4146.421902  0.021156 -3.729946  0.887457
     spin moment: S , {S} =    0.00001  -0.00000  -0.00000   0.00001
   scf:    8    -4146.541586    -4146.479794    -4146.479794  0.012317 -3.660502  0.499741
     spin moment: S , {S} =    0.00000   0.00000  -0.00000   0.00000
   scf:    9    -4146.518025    -4146.498238    -4146.498238  0.006493 -3.776162  0.369786
     spin moment: S , {S} =    0.00000  -0.00000  -0.00000   0.00000
   scf:   10    -4146.548637    -4146.517669    -4146.517669  0.020880 -3.792921  0.218957
     spin moment: S , {S} =    0.00000   0.00000   0.00000  -0.00000
   scf:   11    -4146.521314    -4146.519469    -4146.519469  0.005636 -3.781182  0.056685
     spin moment: S , {S} =    0.00000   0.00000   0.00000  -0.00000
   scf:   12    -4146.520455    -4146.519975    -4146.519975  0.001062 -3.776516  0.024728
     spin moment: S , {S} =    0.00000   0.00000   0.00000   0.00000
   scf:   13    -4146.520409    -4146.520188    -4146.520188  0.001306 -3.774916  0.015742
     spin moment: S , {S} =    0.00000   0.00000   0.00000   0.00000
   scf:   14    -4146.520429    -4146.520302    -4146.520302  0.001140 -3.773078  0.011637
     spin moment: S , {S} =    0.00000   0.00000   0.00000   0.00000
   scf:   15    -4146.520409    -4146.520352    -4146.520352  0.000944 -3.773547  0.008747
     spin moment: S , {S} =    0.00000   0.00000   0.00000   0.00000
   scf:   16    -4146.520433    -4146.520387    -4146.520387  0.001103 -3.774208  0.005640
     spin moment: S , {S} =    0.00000   0.00000   0.00000   0.00000
   scf:   17    -4146.520407    -4146.520396    -4146.520396  0.000504 -3.774275  0.004197
     spin moment: S , {S} =    0.00000   0.00000   0.00000   0.00000
   scf:   18    -4146.520406    -4146.520400    -4146.520400  0.000376 -3.774479  0.002501
     spin moment: S , {S} =    0.00000   0.00000   0.00000   0.00000
   scf:   19    -4146.520405    -4146.520402    -4146.520402  0.000283 -3.773399  0.001489
     spin moment: S , {S} =    0.00000   0.00000   0.00000   0.00000
   scf:   20    -4146.520405    -4146.520403    -4146.520403  0.000194 -3.773389  0.000796
     spin moment: S , {S} =    0.00000   0.00000   0.00000   0.00000
   scf:   21    -4146.520404    -4146.520404    -4146.520404  0.000134 -3.774592  0.000295
     spin moment: S , {S} =    0.00000   0.00000   0.00000   0.00000
   scf:   22    -4146.520404    -4146.520404    -4146.520404  0.000049 -3.774559  0.000113
     spin moment: S , {S} =    0.00000   0.00000   0.00000   0.00000
   scf:   23    -4146.520404    -4146.520404    -4146.520404  0.000013 -3.774553  0.000072
     spin moment: S , {S} =    0.00000   0.00000   0.00000   0.00000
   scf:   24    -4146.520404    -4146.520404    -4146.520404  0.000006 -3.774547  0.000035
     spin moment: S , {S} =    0.00000   0.00000   0.00000   0.00000
mix: Pulay -- resetting history
   scf:   25    -4146.520404    -4146.520404    -4146.520404  0.000003 -3.774545  0.000024
     spin moment: S , {S} =    0.00000   0.00000   0.00000   0.00000
   scf:   26    -4146.520404    -4146.520404    -4146.520404  0.000001 -3.774543  0.000017
     spin moment: S , {S} =    0.00000   0.00000   0.00000   0.00000
   scf:   27    -4146.520404    -4146.520404    -4146.520404  0.000001 -3.774542  0.000011
     spin moment: S , {S} =    0.00000   0.00000   0.00000   0.00000
   scf:   28    -4146.520404    -4146.520404    -4146.520404  0.000001 -3.774542  0.000006
     spin moment: S , {S} =    0.00000   0.00000   0.00000  -0.00000
   scf:   29    -4146.520404    -4146.520404    -4146.520404  0.000001 -3.774542  0.000004
     spin moment: S , {S} =    0.00000   0.00000   0.00000  -0.00000
   scf:   30    -4146.520404    -4146.520404    -4146.520404  0.000000 -3.774542  0.000002
     spin moment: S , {S} =    0.00000   0.00000   0.00000   0.00000
   scf:   31    -4146.520404    -4146.520404    -4146.520404  0.000000 -3.774542  0.000001
     spin moment: S , {S} =    0.00000   0.00000   0.00000   0.00000
   scf:   32    -4146.520404    -4146.520404    -4146.520404  0.000000 -3.774542  0.000001
     spin moment: S , {S} =    0.00000   0.00000   0.00000   0.00000

SCF Convergence by DM+H criterion
max |DM_out - DM_in|         :     0.0000001449
max |H_out - H_in|      (eV) :     0.0000008346
SCF cycle converged after 32 iterations

Using DM_out to compute the final energy and forces
No. of atoms with KB's overlaping orbs in proc 0. Max # of overlaps:      29     142

siesta: E_KS(eV) =            -4146.5204

siesta: E_KS - E_eggbox =     -4146.5204
     spin moment: S , {S} =    0.00000   0.00000   0.00000   0.00000

siesta: Atomic forces (eV/Ang):
     1    0.231039    1.448848   -0.000000
     2    0.003875    0.024558   -0.000000
     3    0.759609   -0.379721   -0.000000
     4    0.732447   -0.024586    0.000000
     5    0.047691   -0.096049    0.000000
     6    1.794444    0.664623    0.000000
     7    0.043183   -0.255094   -0.000000
     8   -0.412450    0.286753    0.000000
     9   -0.183367    1.264635    0.000000
    10   -1.021325    0.360957   -0.000000
    11   -0.022489   -0.020568   -0.000000
    12   -0.363625   -0.117617    0.000000
    13   -0.019881    0.006254    0.000000
    14    0.250086   -0.207555   -0.000000
    15   -1.245057   -0.931570    0.000000
    16   -0.060988    0.231192   -0.000000
    17    1.010614   -1.105406    0.000000
    18   -0.215877    0.199653    0.000000
    19   -0.194011   -1.253856    0.000000
    20   -0.013877   -0.416394   -0.000000
    21   -0.306548    1.028434   -0.000000
    22   -2.185050   -0.896367   -0.000000
    23    0.282059    0.482084   -0.000000
    24    0.167852    0.073992   -0.000000
    25    0.096242    0.077486    0.000000
    26   -0.249527   -0.190184   -0.000000
    27    1.647468    1.355018    0.000000
    28    1.313609    2.754726    0.000000
    29   -0.042036    0.104272    0.000000
----------------------------------------
   Tot    1.844112    4.468518    0.000000
----------------------------------------
   Max    2.754726
   Res    0.661915    sqrt( Sum f_i^2 / 3N )
----------------------------------------
   Max    2.754726    constrained

Stress tensor Voigt[x,y,z,yz,xz,xy] (kbar):       -0.04        1.52       -0.10        0.00       -0.00        1.41
(Free)E + p*V (eV/cell)    -4148.0449
Target enthalpy (eV/cell)    -4146.5204

mulliken: Atomic and Orbital Populations:

Species: O                   

Atom      Orb        Charge      Spin       Svec
----------------------------------------------------------------
    1  1 2s         1.74634   0.00000     -0.000  -0.000  -0.000
    1  2 2s         0.06718   0.00000      0.000  -0.000   0.000
    1  3 2py        1.42960   0.00000      0.000  -0.000  -0.000
    1  4 2pz        1.54666   0.00000      0.000  -0.000  -0.000
    1  5 2px        1.62654   0.00000     -0.000  -0.000  -0.000
    1  6 2py        0.03774   0.00000     -0.000   0.000   0.000
    1  7 2pz       -0.00637   0.00000      0.000  -0.000   0.000
    1  8 2px        0.00443   0.00000      0.000   0.000   0.000
    1  9 3Pdxy      0.00696   0.00000     -0.000   0.000   0.000
    1 10 3Pdyz      0.00897   0.00000     -0.000   0.000   0.000
    1 11 3Pdz2      0.00158   0.00000      0.000  -0.000  -0.000
    1 12 3Pdxz      0.00037   0.00000     -0.000   0.000   0.000
    1 13 3Pdx2-y2   0.00691   0.00000     -0.000  -0.000   0.000
    1     Total     6.47691   0.00000      0.000  -0.000  -0.000

   28  1 2s         1.74417   0.00000      0.000  -0.000   0.000
   28  2 2s         0.06803   0.00000     -0.000   0.000   0.000
   28  3 2py        1.41203   0.00000      0.000   0.000  -0.000
   28  4 2pz        1.54582   0.00000      0.000  -0.000  -0.000
   28  5 2px        1.64568   0.00000      0.000   0.000  -0.000
   28  6 2py        0.04078   0.00000     -0.000  -0.000   0.000
   28  7 2pz       -0.00476   0.00000     -0.000   0.000   0.000
   28  8 2px        0.00958   0.00000      0.000  -0.000   0.000
   28  9 3Pdxy      0.00636   0.00000      0.000  -0.000   0.000
   28 10 3Pdyz      0.00968   0.00000     -0.000   0.000   0.000
   28 11 3Pdz2      0.00124   0.00000      0.000  -0.000  -0.000
   28 12 3Pdxz     -0.00018   0.00000     -0.000   0.000  -0.000
   28 13 3Pdx2-y2   0.00768   0.00000      0.000  -0.000  -0.000
   28     Total     6.48610   0.00000      0.000  -0.000   0.000

----------------------------------------------------------------
Total              12.96301   0.00000      0.000  -0.000  -0.000


Species: N                   

Atom      Orb        Charge      Spin       Svec
----------------------------------------------------------------
    2  1 2s         1.55108   0.00000      0.000   0.000  -0.000
    2  2 2s         0.08426   0.00000     -0.000  -0.000   0.000
    2  3 2py        1.04404   0.00000      0.000  -0.000  -0.000
    2  4 2pz        1.22424   0.00000     -0.000  -0.000  -0.000
    2  5 2px        0.99015   0.00000     -0.000  -0.000  -0.000
    2  6 2py        0.18830   0.00000     -0.000  -0.000   0.000
    2  7 2pz        0.05537   0.00000      0.000   0.000   0.000
    2  8 2px        0.19578   0.00000      0.000   0.000   0.000
    2  9 3Pdxy      0.00838   0.00000      0.000  -0.000  -0.000
    2 10 3Pdyz      0.01098   0.00000     -0.000   0.000   0.000
    2 11 3Pdz2      0.00195   0.00000     -0.000  -0.000   0.000
    2 12 3Pdxz      0.00758   0.00000      0.000   0.000   0.000
    2 13 3Pdx2-y2   0.00908   0.00000      0.000  -0.000  -0.000
    2     Total     5.37119   0.00000     -0.000  -0.000  -0.000

    3  1 2s         1.40029   0.00000      0.000   0.000  -0.000
    3  2 2s         0.11659   0.00000     -0.000   0.000   0.000
    3  3 2py        0.94165   0.00000     -0.000   0.000  -0.000
    3  4 2pz        1.54380   0.00000      0.000  -0.000  -0.000
    3  5 2px        1.08264   0.00000     -0.000   0.000  -0.000
    3  6 2py        0.24857   0.00000     -0.000  -0.000   0.000
    3  7 2pz        0.00705   0.00000     -0.000   0.000   0.000
    3  8 2px        0.17826   0.00000      0.000   0.000   0.000
    3  9 3Pdxy      0.00396   0.00000      0.000   0.000   0.000
    3 10 3Pdyz      0.00415   0.00000     -0.000  -0.000  -0.000
    3 11 3Pdz2      0.00074   0.00000     -0.000   0.000   0.000
    3 12 3Pdxz      0.00277   0.00000      0.000  -0.000  -0.000
    3 13 3Pdx2-y2   0.00281   0.00000      0.000  -0.000  -0.000
    3     Total     5.53328   0.00000     -0.000  -0.000  -0.000

    4  1 2s         1.45996   0.00000      0.000   0.000  -0.000
    4  2 2s         0.11886   0.00000     -0.000  -0.000   0.000
    4  3 2py        1.13069   0.00000      0.000  -0.000  -0.000
    4  4 2pz        1.29480   0.00000     -0.000  -0.000  -0.000
    4  5 2px        0.82599   0.00000     -0.000   0.000  -0.000
    4  6 2py        0.14964   0.00000      0.000   0.000   0.000
    4  7 2pz        0.05351   0.00000      0.000   0.000   0.000
    4  8 2px        0.29228   0.00000      0.000   0.000   0.000
    4  9 3Pdxy      0.00870   0.00000     -0.000  -0.000   0.000
    4 10 3Pdyz      0.01045   0.00000     -0.000   0.000   0.000
    4 11 3Pdz2      0.00126   0.00000      0.000   0.000   0.000
    4 12 3Pdxz      0.00496   0.00000      0.000   0.000   0.000
    4 13 3Pdx2-y2   0.00798   0.00000     -0.000   0.000  -0.000
    4     Total     5.35909   0.00000      0.000   0.000  -0.000

    5  1 2s         1.37607   0.00000     -0.000  -0.000  -0.000
    5  2 2s         0.12802   0.00000      0.000   0.000   0.000
    5  3 2py        1.02597   0.00000     -0.000   0.000  -0.000
    5  4 2pz        1.50079   0.00000     -0.000   0.000  -0.000
    5  5 2px        1.05994   0.00000     -0.000  -0.000  -0.000
    5  6 2py        0.20385   0.00000      0.000   0.000   0.000
    5  7 2pz        0.01341   0.00000      0.000  -0.000   0.000
    5  8 2px        0.20100   0.00000      0.000   0.000   0.000
    5  9 3Pdxy      0.00393   0.00000      0.000   0.000   0.000
    5 10 3Pdyz      0.00241   0.00000      0.000   0.000   0.000
    5 11 3Pdz2      0.00142   0.00000     -0.000  -0.000   0.000
    5 12 3Pdxz      0.00684   0.00000      0.000  -0.000   0.000
    5 13 3Pdx2-y2   0.00559   0.00000     -0.000   0.000   0.000
    5     Total     5.52923   0.00000     -0.000   0.000  -0.000

    6  1 2s         1.26952   0.00000     -0.000  -0.000  -0.000
    6  2 2s         0.17932   0.00000      0.000  -0.000   0.000
    6  3 2py        1.07665   0.00000     -0.000  -0.000  -0.000
    6  4 2pz        1.57226   0.00000      0.000  -0.000  -0.000
    6  5 2px        0.95729   0.00000     -0.000  -0.000  -0.000
    6  6 2py        0.18830   0.00000      0.000   0.000   0.000
    6  7 2pz        0.02996   0.00000     -0.000   0.000   0.000
    6  8 2px        0.25542   0.00000     -0.000   0.000   0.000
    6  9 3Pdxy      0.00240   0.00000      0.000  -0.000   0.000
    6 10 3Pdyz      0.00015   0.00000     -0.000  -0.000  -0.000
    6 11 3Pdz2      0.00174   0.00000      0.000  -0.000  -0.000
    6 12 3Pdxz      0.00328   0.00000      0.000  -0.000   0.000
    6 13 3Pdx2-y2   0.00394   0.00000      0.000   0.000   0.000
    6     Total     5.54024   0.00000     -0.000  -0.000  -0.000

   21  1 2s         1.42336   0.00000      0.000  -0.000   0.000
   21  2 2s         0.12831   0.00000     -0.000   0.000  -0.000
   21  3 2py        0.87188   0.00000     -0.000  -0.000  -0.000
   21  4 2pz        1.29543   0.00000      0.000   0.000   0.000
   21  5 2px        1.15716   0.00000      0.000   0.000  -0.000
   21  6 2py        0.27537   0.00000      0.000   0.000   0.000
   21  7 2pz        0.04882   0.00000     -0.000   0.000   0.000
   21  8 2px        0.16283   0.00000     -0.000  -0.000   0.000
   21  9 3Pdxy      0.00643   0.00000      0.000   0.000   0.000
   21 10 3Pdyz      0.00503   0.00000     -0.000  -0.000  -0.000
   21 11 3Pdz2      0.00016   0.00000     -0.000  -0.000  -0.000
   21 12 3Pdxz      0.00577   0.00000     -0.000   0.000  -0.000
   21 13 3Pdx2-y2   0.00560   0.00000     -0.000  -0.000  -0.000
   21     Total     5.38616   0.00000      0.000   0.000  -0.000

   22  1 2s         1.29468   0.00000     -0.000   0.000  -0.000
   22  2 2s         0.16781   0.00000      0.000  -0.000   0.000
   22  3 2py        1.05768   0.00000      0.000   0.000  -0.000
   22  4 2pz        1.55502   0.00000      0.000  -0.000  -0.000
   22  5 2px        0.98463   0.00000      0.000  -0.000  -0.000
   22  6 2py        0.19644   0.00000     -0.000  -0.000  -0.000
   22  7 2pz        0.02841   0.00000     -0.000   0.000   0.000
   22  8 2px        0.23471   0.00000     -0.000   0.000   0.000
   22  9 3Pdxy      0.00325   0.00000     -0.000  -0.000   0.000
   22 10 3Pdyz      0.00034   0.00000      0.000   0.000  -0.000
   22 11 3Pdz2      0.00254   0.00000      0.000  -0.000   0.000
   22 12 3Pdxz      0.00319   0.00000      0.000  -0.000  -0.000
   22 13 3Pdx2-y2   0.00475   0.00000      0.000   0.000  -0.000
   22     Total     5.53346   0.00000      0.000  -0.000  -0.000

   23  1 2s         1.39682   0.00000     -0.000   0.000  -0.000
   23  2 2s         0.11807   0.00000      0.000  -0.000  -0.000
   23  3 2py        1.00743   0.00000      0.000   0.000  -0.000
   23  4 2pz        1.52529   0.00000     -0.000   0.000  -0.000
   23  5 2px        1.06482   0.00000      0.000  -0.000  -0.000
   23  6 2py        0.21133   0.00000     -0.000  -0.000   0.000
   23  7 2pz        0.00489   0.00000      0.000  -0.000   0.000
   23  8 2px        0.19795   0.00000     -0.000   0.000   0.000
   23  9 3Pdxy      0.00529   0.00000      0.000  -0.000  -0.000
   23 10 3Pdyz      0.00445   0.00000      0.000  -0.000  -0.000
   23 11 3Pdz2      0.00063   0.00000     -0.000  -0.000  -0.000
   23 12 3Pdxz      0.00244   0.00000      0.000  -0.000  -0.000
   23 13 3Pdx2-y2   0.00136   0.00000     -0.000  -0.000  -0.000
   23     Total     5.54076   0.00000      0.000   0.000  -0.000

----------------------------------------------------------------
Total              56.75642   0.00000      0.000  -0.000  -0.000


Species: Si                  

Atom      Orb        Charge      Spin       Svec
----------------------------------------------------------------
    7  1 3s         0.66788   0.00000     -0.000   0.000   0.000
    7  2 3s         0.36483   0.00000      0.000  -0.000   0.000
    7  3 3py        0.48841   0.00000     -0.000  -0.000  -0.000
    7  4 3pz        0.69175   0.00000     -0.000  -0.000  -0.000
    7  5 3px        0.12520   0.00000     -0.000   0.000  -0.000
    7  6 3py        0.26422   0.00000      0.000   0.000   0.000
    7  7 3pz        0.25889   0.00000      0.000   0.000   0.000
    7  8 3px        0.43798   0.00000     -0.000  -0.000   0.000
    7  9 3Pdxy      0.24552   0.00000     -0.000  -0.000   0.000
    7 10 3Pdyz      0.02931   0.00000     -0.000  -0.000   0.000
    7 11 3Pdz2      0.01176   0.00000      0.000   0.000   0.000
    7 12 3Pdxz      0.14554   0.00000      0.000  -0.000  -0.000
    7 13 3Pdx2-y2   0.11290   0.00000      0.000  -0.000  -0.000
    7     Total     3.84420   0.00000     -0.000  -0.000   0.000

    8  1 3s         0.65678   0.00000      0.000  -0.000   0.000
    8  2 3s         0.36853   0.00000     -0.000   0.000   0.000
    8  3 3py        0.38820   0.00000      0.000   0.000  -0.000
    8  4 3pz        0.52459   0.00000     -0.000   0.000   0.000
    8  5 3px       -0.03054   0.00000     -0.000   0.000   0.000
    8  6 3py        0.30885   0.00000      0.000  -0.000   0.000
    8  7 3pz        0.20211   0.00000     -0.000   0.000   0.000
    8  8 3px        0.51467   0.00000      0.000  -0.000  -0.000
    8  9 3Pdxy      0.24603   0.00000     -0.000   0.000   0.000
    8 10 3Pdyz      0.11217   0.00000     -0.000   0.000  -0.000
    8 11 3Pdz2      0.01449   0.00000     -0.000  -0.000   0.000
    8 12 3Pdxz      0.15346   0.00000     -0.000   0.000   0.000
    8 13 3Pdx2-y2   0.20029   0.00000     -0.000  -0.000   0.000
    8     Total     3.65964   0.00000     -0.000   0.000   0.000

    9  1 3s         0.60460   0.00000      0.000   0.000   0.000
    9  2 3s         0.36601   0.00000     -0.000  -0.000  -0.000
    9  3 3py        0.07524   0.00000     -0.000   0.000  -0.000
    9  4 3pz        0.48510   0.00000      0.000   0.000  -0.000
    9  5 3px        0.37988   0.00000      0.000   0.000  -0.000
    9  6 3py        0.44741   0.00000     -0.000  -0.000   0.000
    9  7 3pz        0.18693   0.00000     -0.000  -0.000  -0.000
    9  8 3px        0.27314   0.00000     -0.000  -0.000   0.000
    9  9 3Pdxy      0.31260   0.00000     -0.000  -0.000  -0.000
    9 10 3Pdyz      0.19026   0.00000      0.000  -0.000  -0.000
    9 11 3Pdz2      0.01641   0.00000     -0.000  -0.000   0.000
    9 12 3Pdxz      0.09768   0.00000     -0.000  -0.000  -0.000
    9 13 3Pdx2-y2   0.17215   0.00000      0.000   0.000   0.000
    9     Total     3.60741   0.00000      0.000   0.000  -0.000

   10  1 3s         0.48249   0.00000      0.000  -0.000   0.000
   10  2 3s         0.37780   0.00000     -0.000   0.000   0.000
   10  3 3py        0.24120   0.00000     -0.000  -0.000   0.000
   10  4 3pz        0.40842   0.00000     -0.000  -0.000   0.000
   10  5 3px        0.10115   0.00000     -0.000  -0.000   0.000
   10  6 3py        0.32753   0.00000      0.000   0.000   0.000
   10  7 3pz        0.22262   0.00000      0.000   0.000   0.000
   10  8 3px        0.42904   0.00000      0.000   0.000   0.000
   10  9 3Pdxy      0.16948   0.00000     -0.000   0.000   0.000
   10 10 3Pdyz      0.13965   0.00000      0.000   0.000   0.000
   10 11 3Pdz2      0.01031   0.00000      0.000   0.000   0.000
   10 12 3Pdxz      0.17489   0.00000     -0.000  -0.000   0.000
   10 13 3Pdx2-y2   0.30993   0.00000      0.000   0.000  -0.000
   10     Total     3.39453   0.00000      0.000  -0.000   0.000

   11  1 3s         0.55277   0.00000      0.000  -0.000   0.000
   11  2 3s         0.38527   0.00000      0.000   0.000   0.000
   11  3 3py        0.32188   0.00000      0.000  -0.000   0.000
   11  4 3pz        0.54081   0.00000      0.000  -0.000   0.000
   11  5 3px        0.12426   0.00000      0.000   0.000   0.000
   11  6 3py        0.28680   0.00000     -0.000   0.000   0.000
   11  7 3pz        0.17738   0.00000     -0.000  -0.000   0.000
   11  8 3px        0.44642   0.00000     -0.000  -0.000   0.000
   11  9 3Pdxy      0.22535   0.00000      0.000   0.000   0.000
   11 10 3Pdyz      0.12634   0.00000      0.000   0.000   0.000
   11 11 3Pdz2      0.00959   0.00000      0.000   0.000  -0.000
   11 12 3Pdxz      0.05279   0.00000      0.000   0.000   0.000
   11 13 3Pdx2-y2   0.20386   0.00000     -0.000  -0.000   0.000
   11     Total     3.45352   0.00000      0.000  -0.000   0.000

   17  1 3s         0.63868   0.00000     -0.000  -0.000   0.000
   17  2 3s         0.36088   0.00000      0.000   0.000  -0.000
   17  3 3py        0.22686   0.00000      0.000   0.000   0.000
   17  4 3pz        0.42253   0.00000     -0.000  -0.000   0.000
   17  5 3px        0.24476   0.00000      0.000  -0.000   0.000
   17  6 3py        0.38766   0.00000     -0.000  -0.000  -0.000
   17  7 3pz        0.21159   0.00000      0.000  -0.000   0.000
   17  8 3px        0.36897   0.00000     -0.000   0.000  -0.000
   17  9 3Pdxy      0.30150   0.00000      0.000  -0.000  -0.000
   17 10 3Pdyz      0.14269   0.00000     -0.000   0.000   0.000
   17 11 3Pdz2      0.00904   0.00000     -0.000   0.000   0.000
   17 12 3Pdxz      0.14332   0.00000      0.000  -0.000   0.000
   17 13 3Pdx2-y2   0.16361   0.00000     -0.000  -0.000   0.000
   17     Total     3.62209   0.00000      0.000  -0.000   0.000

   18  1 3s         0.74422   0.00000     -0.000   0.000   0.000
   18  2 3s         0.33966   0.00000      0.000   0.000   0.000
   18  3 3py        0.07913   0.00000      0.000  -0.000   0.000
   18  4 3pz        0.82083   0.00000     -0.000   0.000   0.000
   18  5 3px        0.55533   0.00000     -0.000   0.000   0.000
   18  6 3py        0.51832   0.00000     -0.000   0.000   0.000
   18  7 3pz        0.19781   0.00000      0.000  -0.000   0.000
   18  8 3px        0.25028   0.00000      0.000  -0.000   0.000
   18  9 3Pdxy      0.10330   0.00000      0.000   0.000  -0.000
   18 10 3Pdyz      0.02748   0.00000     -0.000  -0.000  -0.000
   18 11 3Pdz2      0.00871   0.00000     -0.000   0.000  -0.000
   18 12 3Pdxz      0.03029   0.00000      0.000   0.000  -0.000
   18 13 3Pdx2-y2   0.11289   0.00000     -0.000   0.000   0.000
   18     Total     3.78824   0.00000     -0.000   0.000   0.000

   19  1 3s         0.46014   0.00000     -0.000   0.000   0.000
   19  2 3s         0.36478   0.00000      0.000  -0.000  -0.000
   19  3 3py        0.08308   0.00000     -0.000   0.000   0.000
   19  4 3pz        0.42942   0.00000     -0.000   0.000   0.000
   19  5 3px        0.35841   0.00000      0.000  -0.000  -0.000
   19  6 3py        0.47014   0.00000     -0.000  -0.000  -0.000
   19  7 3pz        0.18253   0.00000      0.000  -0.000  -0.000
   19  8 3px        0.23811   0.00000     -0.000   0.000   0.000
   19  9 3Pdxy      0.34211   0.00000     -0.000  -0.000  -0.000
   19 10 3Pdyz      0.18878   0.00000     -0.000   0.000  -0.000
   19 11 3Pdz2      0.01604   0.00000      0.000   0.000   0.000
   19 12 3Pdxz      0.08834   0.00000     -0.000  -0.000  -0.000
   19 13 3Pdx2-y2   0.23817   0.00000      0.000   0.000   0.000
   19     Total     3.46005   0.00000     -0.000   0.000   0.000

   20  1 3s         0.67354   0.00000      0.000  -0.000  -0.000
   20  2 3s         0.37792   0.00000     -0.000   0.000   0.000
   20  3 3py        0.33037   0.00000     -0.000   0.000  -0.000
   20  4 3pz        0.59121   0.00000      0.000  -0.000  -0.000
   20  5 3px        0.13820   0.00000     -0.000   0.000  -0.000
   20  6 3py        0.29220   0.00000      0.000  -0.000   0.000
   20  7 3pz        0.16372   0.00000     -0.000  -0.000  -0.000
   20  8 3px        0.49973   0.00000      0.000  -0.000   0.000
   20  9 3Pdxy      0.10012   0.00000     -0.000   0.000  -0.000
   20 10 3Pdyz      0.13364   0.00000      0.000   0.000  -0.000
   20 11 3Pdz2      0.00736   0.00000      0.000  -0.000   0.000
   20 12 3Pdxz      0.02693   0.00000      0.000  -0.000   0.000
   20 13 3Pdx2-y2   0.17218   0.00000     -0.000   0.000  -0.000
   20     Total     3.50712   0.00000     -0.000  -0.000  -0.000

----------------------------------------------------------------
Total              89.09321   0.00000     -0.000   0.000   0.000


Species: H                   

Atom      Orb        Charge      Spin       Svec
----------------------------------------------------------------
   12  1 1s         0.49543   0.00000      0.000  -0.000   0.000
   12  2 1s         0.18209   0.00000     -0.000  -0.000   0.000
   12  3 2Ppy       0.02903   0.00000     -0.000   0.000   0.000
   12  4 2Ppz       0.03383   0.00000      0.000   0.000  -0.000
   12  5 2Ppx       0.02277   0.00000      0.000  -0.000   0.000
   12     Total     0.76315   0.00000      0.000  -0.000   0.000

   13  1 1s         1.01910   0.00000     -0.000   0.000  -0.000
   13  2 1s         0.09543   0.00000      0.000  -0.000   0.000
   13  3 2Ppy       0.01808   0.00000     -0.000  -0.000  -0.000
   13  4 2Ppz       0.02009   0.00000      0.000   0.000   0.000
   13  5 2Ppx       0.03512   0.00000      0.000  -0.000   0.000
   13     Total     1.18783   0.00000     -0.000   0.000  -0.000

   14  1 1s         0.46095   0.00000      0.000   0.000   0.000
   14  2 1s         0.20025   0.00000     -0.000  -0.000   0.000
   14  3 2Ppy       0.01795   0.00000      0.000   0.000   0.000
   14  4 2Ppz       0.04539   0.00000     -0.000   0.000  -0.000
   14  5 2Ppx       0.01711   0.00000      0.000  -0.000   0.000
   14     Total     0.74166   0.00000      0.000   0.000   0.000

   15  1 1s         0.49374   0.00000      0.000  -0.000  -0.000
   15  2 1s         0.17890   0.00000      0.000   0.000   0.000
   15  3 2Ppy       0.00507   0.00000     -0.000  -0.000   0.000
   15  4 2Ppz       0.04175   0.00000     -0.000   0.000  -0.000
   15  5 2Ppx       0.02817   0.00000      0.000  -0.000   0.000
   15     Total     0.74763   0.00000      0.000  -0.000  -0.000

   16  1 1s         0.51016   0.00000     -0.000  -0.000   0.000
   16  2 1s         0.18730   0.00000      0.000  -0.000   0.000
   16  3 2Ppy       0.02982   0.00000     -0.000  -0.000   0.000
   16  4 2Ppz       0.03981   0.00000      0.000  -0.000  -0.000
   16  5 2Ppx       0.02359   0.00000      0.000   0.000   0.000
   16     Total     0.79068   0.00000     -0.000  -0.000   0.000

   24  1 1s         1.06273   0.00000      0.000  -0.000  -0.000
   24  2 1s         0.07455   0.00000     -0.000   0.000   0.000
   24  3 2Ppy       0.03211   0.00000     -0.000  -0.000   0.000
   24  4 2Ppz       0.03067   0.00000      0.000   0.000   0.000
   24  5 2Ppx       0.01729   0.00000      0.000  -0.000  -0.000
   24     Total     1.21736   0.00000      0.000  -0.000  -0.000

   25  1 1s         1.04306   0.00000      0.000  -0.000  -0.000
   25  2 1s         0.08655   0.00000     -0.000   0.000  -0.000
   25  3 2Ppy       0.01226   0.00000     -0.000  -0.000  -0.000
   25  4 2Ppz       0.01850   0.00000     -0.000  -0.000  -0.000
   25  5 2Ppx       0.03569   0.00000     -0.000  -0.000   0.000
   25     Total     1.19605   0.00000      0.000  -0.000  -0.000

   26  1 1s         0.47463   0.00000     -0.000   0.000  -0.000
   26  2 1s         0.19626   0.00000      0.000  -0.000   0.000
   26  3 2Ppy       0.02098   0.00000     -0.000  -0.000  -0.000
   26  4 2Ppz       0.04878   0.00000     -0.000   0.000  -0.000
   26  5 2Ppx       0.01601   0.00000     -0.000   0.000  -0.000
   26     Total     0.75667   0.00000     -0.000   0.000  -0.000

   27  1 1s         0.50829   0.00000     -0.000  -0.000  -0.000
   27  2 1s         0.16934   0.00000     -0.000   0.000  -0.000
   27  3 2Ppy       0.00662   0.00000      0.000  -0.000  -0.000
   27  4 2Ppz       0.03694   0.00000      0.000  -0.000  -0.000
   27  5 2Ppx       0.02867   0.00000      0.000  -0.000   0.000
   27     Total     0.74986   0.00000     -0.000  -0.000  -0.000

   29  1 1s         0.48462   0.00000     -0.000   0.000   0.000
   29  2 1s         0.18766   0.00000      0.000   0.000   0.000
   29  3 2Ppy       0.02513   0.00000      0.000  -0.000  -0.000
   29  4 2Ppz       0.03436   0.00000      0.000  -0.000   0.000
   29  5 2Ppx       0.02415   0.00000      0.000  -0.000   0.000
   29     Total     0.75591   0.00000     -0.000  -0.000   0.000

----------------------------------------------------------------
Total              98.00000   0.00000      0.000   0.000   0.000


siesta: Eigenvalues (eV):
ik =     1
  -21.8754  -21.8754  -21.8136  -21.8136  -21.5830  -21.5830  -21.5575  -21.5575  -21.2358  -21.2358
  -21.0129  -21.0129  -20.8248  -20.8248  -19.8201  -19.8201  -19.3908  -19.3908  -19.3659  -19.3659
  -14.7415  -14.7415  -13.8822  -13.8822  -13.3340  -13.3340  -13.1787  -13.1787  -13.1074  -13.1074
  -12.8633  -12.8633  -12.8324  -12.8324  -12.4443  -12.4443  -12.3786  -12.3786  -12.0177  -12.0177
  -11.4392  -11.4392  -10.8000  -10.8000  -10.7544  -10.7544  -10.7060  -10.7060  -10.0886  -10.0886
   -9.5364   -9.5364   -9.2355   -9.2355   -8.8661   -8.8661   -8.7087   -8.7087   -8.6585   -8.6585
   -8.6400   -8.6400   -8.3938   -8.3938   -8.1866   -8.1866   -7.8227   -7.8227   -7.6517   -7.6517
   -7.5818   -7.5818   -7.3221   -7.3221   -7.3120   -7.3120   -6.8803   -6.8803   -6.7469   -6.7469
   -6.5200   -6.5200   -6.5028   -6.5028   -6.1055   -6.1055   -6.0950   -6.0950   -6.0923   -6.0923
   -5.7272   -5.7272   -5.6523   -5.6523   -5.4483   -5.4483   -4.3133   -4.3133   -3.2344   -3.2344
   -2.3243   -2.3243   -2.2906   -2.2906   -2.2438   -2.2438   -1.8757   -1.8757   -1.8636   -1.8636
   -1.8289   -1.8289   -1.7690   -1.7690   -1.5633   -1.5633   -1.5292   -1.5292   -0.9866   -0.9866
   -0.9552   -0.9552   -0.8136   -0.8136   -0.3835   -0.3835   -0.1768   -0.1768    0.0405    0.0405
    0.3566    0.3566    0.4346    0.4346    0.5522    0.5522    0.7074    0.7074    0.7805    0.7805
    0.9928    0.9928    1.2596    1.2596    1.2839    1.2839    1.4111    1.4111    1.4484    1.4484
    1.6853    1.6853    1.8286    1.8286    1.9182    1.9182    2.3657    2.3657    2.7392    2.7392
    2.7445    2.7445    2.8317    2.8318    3.0113    3.0113    3.1352    3.1352    3.3340    3.3340
    3.3879    3.3879    3.7831    3.7831    3.8736    3.8736    4.0888    4.0888    4.3055    4.3055
    4.4244    4.4244    4.5082    4.5082    4.5892    4.5892    4.5938    4.5938    4.8592    4.8592
    4.9411    4.9411    5.0126    5.0126    5.2445    5.2445    5.4934    5.4934    5.6802    5.6802
    5.7093    5.7093    5.7684    5.7684    5.9342    5.9342    5.9842    5.9842    6.0064    6.0064
    6.1811    6.1811    6.3369    6.3369    6.6231    6.6231    6.7416    6.7416    6.8099    6.8099
    7.0517    7.0517    7.1978    7.1978    7.3936    7.3936    7.5431    7.5431    7.7307    7.7307
    7.8091    7.8091    8.0276    8.0276    8.0901    8.0901    8.2447    8.2447    8.2628    8.2628
    8.5428    8.5428    8.6871    8.6871    8.7742    8.7742    8.9456    8.9456    9.1903    9.1903
    9.2330    9.2330    9.2778    9.2778    9.7169    9.7169    9.8266    9.8266    9.8444    9.8444
    9.9917    9.9917   10.1619   10.1619   10.4371   10.4371   10.7912   10.7912   10.8753   10.8753
   10.9576   10.9576   11.0871   11.0871   11.1832   11.1832   11.7042   11.7042   11.8516   11.8516
   11.8835   11.8835   11.9465   11.9465   12.2141   12.2141   12.4027   12.4027   12.5369   12.5369
   12.6996   12.6996   12.7325   12.7325   13.4101   13.4101   13.5108   13.5108   13.7215   13.7215
   13.7943   13.7943   14.0448   14.0448   14.2360   14.2360   14.4775   14.4775   14.8304   14.8304
   14.8436   14.8436   15.3277   15.3277   15.9914   15.9914   16.4245   16.4245   16.6728   16.6728
   16.9555   16.9555   17.4094   17.4094   17.6735   17.6735   18.2383   18.2383   18.3403   18.3403
   18.5727   18.5727   19.0809   19.0809   19.3514   19.3514   19.9647   19.9647   20.2498   20.2498
   20.8875   20.8875   21.3172   21.3172   21.8023   21.8023   22.1665   22.1665   22.4590   22.4590
   23.1106   23.1106   23.3048   23.3048   23.7688   23.7688   23.8440   23.8440   23.9012   23.9012
   24.8360   24.8360   25.2141   25.2141   25.9774   25.9774   26.8186   26.8186   27.5080   27.5080
   28.5957   28.5957   29.0847   29.0847   29.1306   29.1306   29.5134   29.5134   29.6159   29.6159
   30.0748   30.0748   30.1609   30.1609   30.2528   30.2528   30.6489   30.6489   30.8349   30.8349
   31.0180   31.0181   31.1506   31.1506   31.4586   31.4586   31.6186   31.6186   32.2511   32.2511
   32.7204   32.7204   33.8830   33.8830   34.5077   34.5077   34.6602   34.6602   34.9405   34.9405
   34.9428   34.9428   35.0660   35.0660   35.3757   35.3757   35.6774   35.6774   35.8086   35.8086
   36.7547   36.7547   36.8531   36.8531   37.0548   37.0548   37.2440   37.2440   37.6400   37.6400
   38.1733   38.1733   38.3769   38.3769   39.3258   39.3258   39.4969   39.4969   39.9140   39.9140
   40.2363   40.2363   40.5498   40.5498   40.6645   40.6645   40.6951   40.6951   40.9581   40.9581
   41.1788   41.1788   41.4794   41.4794   42.3986   42.3986   42.6976   42.6976   42.9948   42.9948
   43.1768   43.1768   43.7416   43.7416   43.9458   43.9458   44.0598   44.0598   44.2375   44.2375
   44.6868   44.6868   44.6971   44.6971   45.1266   45.1266   45.4108   45.4108   46.0543   46.0543
   46.4817   46.4817   46.8850   46.8850   47.1965   47.1965   48.5951   48.5951   49.0908   49.0908
   49.4944   49.4944   50.2971   50.2971   50.5239   50.5239   50.6859   50.6859   50.9411   50.9411
   51.3899   51.3899   51.5273   51.5273   52.6927   52.6927   52.8209   52.8209   54.1850   54.1850
   54.3949   54.3949   54.4020   54.4020   54.9729   54.9729   55.7898   55.7898   55.8942   55.8942
   55.9332   55.9332   56.1972   56.1972   56.4912   56.4912   57.9837   57.9837   58.2669   58.2669
   58.7135   58.7135   60.1820   60.1820   60.4444   60.4444   60.8796   60.8796   61.1650   61.1650
   61.8010   61.8010   62.0633   62.0633   62.2790   62.2790   64.4963   64.4963   66.4427   66.4427
   67.1864   67.1864   67.2564   67.2564   68.1198   68.1198   68.8153   68.8153   70.8500   70.8500
   74.1170   74.1170   80.0499   80.0499   91.0926   91.0926   91.8992   91.8992   93.3753   93.3753
   98.3961   98.3961   98.8817   98.8817   99.5985   99.5985  103.3670  103.3670  103.8050  103.8050
  110.1694  110.1694  111.7044  111.7044  123.6472  123.6472  125.7005  125.7005  130.0394  130.0394
  135.1041  135.1041  138.4071  138.4071
siesta: Fermi energy =      -3.774542 eV

siesta: Program's energy decomposition (eV):
siesta: Ebs     =     -1134.095860
siesta: Eions   =      3585.165840
siesta: Ena     =       382.019110
siesta: Ekin    =      2903.477391
siesta: Enl     =     -2788.302041
siesta: Eso     =        -0.004280
siesta: Edftu   =         0.000000
siesta: DEna    =        47.027224
siesta: DUscf   =        14.319759
siesta: DUext   =         0.000000
siesta: Exc     =     -1119.891726
siesta: eta*DQ  =         0.000000
siesta: Emadel  =         0.000000
siesta: Emeta   =         0.000000
siesta: Emolmec =         0.000000
siesta: Ekinion =         0.000000
siesta: Eharris =     -4146.520404
siesta: Etot    =     -4146.520404
siesta: FreeEng =     -4146.520404

siesta: Final energy (eV):
siesta:  Band Struct. =   -1134.095860
siesta:       Kinetic =    2903.477391
siesta:       Hartree =    8236.692401
siesta:       Edftu   =       0.000000
siesta:       Eso     =      -0.004280
siesta:    Ext. field =       0.000000
siesta:   Exch.-corr. =   -1119.891726
siesta:  Ion-electron =  -19057.213068
siesta:       Ion-ion =    4890.418879
siesta:       Ekinion =       0.000000
siesta:         Total =   -4146.520404
siesta:         Fermi =      -3.774542

siesta: Atomic forces (eV/Ang):
siesta:      1    0.231039    1.448848   -0.000000
siesta:      2    0.003875    0.024558   -0.000000
siesta:      3    0.759609   -0.379721   -0.000000
siesta:      4    0.732447   -0.024586    0.000000
siesta:      5    0.047691   -0.096049    0.000000
siesta:      6    1.794444    0.664623    0.000000
siesta:      7    0.043183   -0.255094   -0.000000
siesta:      8   -0.412450    0.286753    0.000000
siesta:      9   -0.183367    1.264635    0.000000
siesta:     10   -1.021325    0.360957   -0.000000
siesta:     11   -0.022489   -0.020568   -0.000000
siesta:     12   -0.363625   -0.117617    0.000000
siesta:     13   -0.019881    0.006254    0.000000
siesta:     14    0.250086   -0.207555   -0.000000
siesta:     15   -1.245057   -0.931570    0.000000
siesta:     16   -0.060988    0.231192   -0.000000
siesta:     17    1.010614   -1.105406    0.000000
siesta:     18   -0.215877    0.199653    0.000000
siesta:     19   -0.194011   -1.253856    0.000000
siesta:     20   -0.013877   -0.416394   -0.000000
siesta:     21   -0.306548    1.028434   -0.000000
siesta:     22   -2.185050   -0.896367   -0.000000
siesta:     23    0.282059    0.482084   -0.000000
siesta:     24    0.167852    0.073992   -0.000000
siesta:     25    0.096242    0.077486    0.000000
siesta:     26   -0.249527   -0.190184   -0.000000
siesta:     27    1.647468    1.355018    0.000000
siesta:     28    1.313609    2.754726    0.000000
siesta:     29   -0.042036    0.104272    0.000000
siesta: ----------------------------------------
siesta:    Tot    1.844112    4.468518    0.000000

siesta: Stress tensor (static) (eV/Ang**3):
siesta:    -0.000026    0.000882   -0.000000
siesta:     0.000882    0.000949   -0.000000
siesta:    -0.000000    0.000000   -0.000064

siesta: Cell volume =       5327.241849 Ang**3

siesta: Pressure (static):
siesta:                Solid            Molecule  Units
siesta:          -0.00000312         -0.00000561  Ry/Bohr**3
siesta:          -0.00028617         -0.00051474  eV/Ang**3
siesta:          -0.45850685         -0.82471582  kBar
(Free)E+ p_basis*V_orbitals  =       -4126.669986
(Free)Eharris+ p_basis*V_orbitals  =       -4126.669986
     spin moment: S , {S} =    0.00000   0.00000   0.00000   0.00000

siesta: Electric dipole (a.u.)  =    1.568436    0.043829   -0.000000
siesta: Electric dipole (Debye) =    3.986569    0.111402   -0.000000

cite: Please see "GC.bib" for an exhaustive BiBTeX file.
cite: Please clearly indicate Siesta version in published work: v4.1.5-1-g384057250
cite: This calculation has made use of the following articles
cite: which are encouraged to be cited in a published work.
        Primary SIESTA paper
          DOI: www.doi.org/10.1088/0953-8984/14/11/302
        Spin-orbit coupling (on-site approximation)
          DOI: www.doi.org/10.1088/0953-8984/19/19/489001


WARNING: alloc-realloc-dealloc name mismatch
         Name: atomlist isa
         Size:              -116. Bytes
         Node:     0
         Subsequent mismatches will not be reported
>> End of run:  28-JUN-2023  15:57:45
Job completed
