Siesta Version  : v4.1.5-1-g384057250
Architecture    : gcc
Compiler version: GNU Fortran (Debian 10.2.1-6) 10.2.1 20210110
Compiler flags  : mpifort -O2 -fPIC -ftree-vectorize -fallow-argument-mismatch
PP flags        : -DFC_HAVE_ABORT -DMPI -DSIESTA__FLOOK -DSIESTA__METIS -DSIESTA__MUMPS -DCDF -DNCDF -DNCDF_4 -DNCDF_PARALLEL -DSIESTA__MRRR -DSIESTA__ELPA
Libraries       : libncdf.a libfdict.a  -lflookall -ldl -lnetcdff -lnetcdf -lhdf5_hl -lhdf5 -lhdf5_fortran -lz -lscalapack-openmpi -lopenblas -lmetis -lzmumps -lcmumps -ldmumps -lmumps_common -lpord -lsmumps -lesmumps -lscotch -lscotcherr -fopenmp -lelpa
PARALLEL version
NetCDF support
NetCDF-4 support
NetCDF-4 MPI-IO support
METIS ordering support
Lua support

* Running on 6 nodes in parallel
>> Start of run:  22-MAY-2023  10:34:47

                           ***********************       
                           *  WELCOME TO SIESTA  *       
                           ***********************       

reinit: Reading from standard input
reinit: Dumped input in INPUT_TMP.90965
************************** Dump of input data file ****************************
SystemLabel      AT
NumberOfAtoms    30
NumberOfSpecies  4
%block ChemicalSpeciesLabel
    1    1  H
    2    7  N
    3   14  Si
    4    8  O
%endblock ChemicalSpeciesLabel
# Single point calculation
MD.TypeOfRun                CG
MD.Steps                    0
SCF.MustConverge            F # In case it does not. There can be 2 very close atoms
AtomicCoordinatesFormat NotScaledCartesianAng
%block AtomicCoordinatesAndAtomicSpecies
2.582377650    -5.776830440   0.000000000       1
1.654759240    -5.269361980   0.000000000       2
0.063128840    -6.101704590   0.000000000       3
0.119223240    -7.596849500   0.000000000       1
-1.376892050   -5.182603740   0.000000000       2
-0.824371900   -3.460866440   0.000000000       3
-1.170571480   -1.270002100   0.000000000       3
-2.706933680   -0.417515780   0.000000000       2
-2.754569660   0.634858620    0.000000000       1
-3.637675640   -0.909967860   0.000000000       1
0.218091790    -0.234193970   0.000000000       2
1.872004100    -0.697162300   0.000000000       3
2.828001130    0.461464770    0.000000000       1
2.648150080    -2.255024470   0.000000000       2
1.391921380    -3.454727220   0.000000000       3
1.838056642    8.349629940    0.000000000       2
0.510685122    9.559834240    0.000000000       3
1.150686392    10.921152480   0.000000000       1
-1.575060818   8.889302890    0.000000000       3
-3.604623418   10.019419080   0.000000000       3
-3.450387648   11.179649290   0.940305280       1
-4.590558138   8.997498460    0.512613700       1
-4.020838378   10.495644930   -1.366678340      1
-1.508565398   6.615326270    0.000000000       3
-2.547614128   5.422266770    0.000000000       4
0.148426182    5.981351080    0.000000000       2
0.130408812    4.918906250    0.000000000       1
1.772029252    6.578421290    0.000000000       3
2.967045422    5.563996090    0.000000000       4
2.838094012    8.695137040    0.000000000       1
%endblock AtomicCoordinatesAndAtomicSpecies
%include ../../../Defaults.fdf
************************** End of input data file *****************************

reinit: -----------------------------------------------------------------------
reinit: System Name: 
reinit: -----------------------------------------------------------------------
reinit: System Label: AT
reinit: -----------------------------------------------------------------------

initatom: Reading input for the pseudopotentials and atomic orbitals ----------
Species number:   1 Atomic number:    1 Label: H
Species number:   2 Atomic number:    7 Label: N
Species number:   3 Atomic number:   14 Label: Si
Species number:   4 Atomic number:    8 Label: O

Ground state valence configuration:   1s01
Reading pseudopotential information in formatted form from H.psf

Pseudopotential generated from a relativistic atomic calculation

Valence configuration for pseudopotential generation:
1s( 1.00) rc: 0.01
2p( 0.00) rc: 0.60
3d( 0.00) rc: 1.99
4f( 0.00) rc: 2.49
Ground state valence configuration:   2s02  2p03
Reading pseudopotential information in formatted form from N.psf

Pseudopotential generated from a relativistic atomic calculation

Valence configuration for pseudopotential generation:
2s( 2.00) rc: 0.94
2p( 3.00) rc: 0.59
3d( 0.00) rc: 3.46
4f( 0.00) rc: 2.47
Ground state valence configuration:   3s02  3p02
Reading pseudopotential information in formatted form from Si.psf

Pseudopotential generated from a relativistic atomic calculation

Valence configuration for pseudopotential generation:
3s( 2.00) rc: 1.67
3p( 2.00) rc: 2.04
3d( 0.00) rc: 2.89
4f( 0.00) rc: 2.49
Ground state valence configuration:   2s02  2p04
Reading pseudopotential information in formatted form from O.psf

Pseudopotential generated from a relativistic atomic calculation

Valence configuration for pseudopotential generation:
2s( 2.00) rc: 0.45
2p( 4.00) rc: 0.92
3d( 0.00) rc: 2.24
4f( 0.00) rc: 0.25
For H, standard SIESTA heuristics set lmxkb to 2
 (one more than the basis l, including polarization orbitals).
Use PS.lmax or PS.KBprojectors blocks to override.
For N, standard SIESTA heuristics set lmxkb to 3
 (one more than the basis l, including polarization orbitals).
Use PS.lmax or PS.KBprojectors blocks to override.
For Si, standard SIESTA heuristics set lmxkb to 3
 (one more than the basis l, including polarization orbitals).
Use PS.lmax or PS.KBprojectors blocks to override.
For O, standard SIESTA heuristics set lmxkb to 3
 (one more than the basis l, including polarization orbitals).
Use PS.lmax or PS.KBprojectors blocks to override.

<basis_specs>
===============================================================================
H                    Z=   1    Mass=  1.0100        Charge= 0.17977+309
Lmxo=0 Lmxkb= 2    BasisType=split      Semic=F
L=0  Nsemic=0  Cnfigmx=1
          i=1  nzeta=2  polorb=1  (1s)
            splnorm:   0.62000    
               vcte:    0.0000    
               rinn:    0.0000    
               qcoe:    0.0000    
               qyuk:    0.0000    
               qwid:   0.10000E-01
                rcs:    0.0000      0.0000    
            lambdas:    1.0000      1.0000    
-------------------------------------------------------------------------------
L=0  Nkbl=1  erefs: 0.17977+309
L=1  Nkbl=1  erefs: 0.17977+309
L=2  Nkbl=1  erefs: 0.17977+309
===============================================================================
</basis_specs>

atom: Called for H                     (Z =   1)

read_vps: Pseudopotential generation method:
read_vps: ATM4.2.7  Troullier-Martins                       
Valence charge for ps generation:    1.00000

xc_check: Exchange-correlation functional:
xc_check: GGA Perdew, Burke & Ernzerhof 1996
V l=0 = -2*Zval/r beyond r=  0.0098
V l=1 = -2*Zval/r beyond r=  0.5817
V l=2 = -2*Zval/r beyond r=  1.9372
All V_l potentials equal beyond r=  1.9372
This should be close to max(r_c) in ps generation
All pots = -2*Zval/r beyond r=  1.9372

VLOCAL1: 99.0% of the norm of Vloc inside     11.567 Ry
VLOCAL1: 99.9% of the norm of Vloc inside     26.362 Ry
atom: Maximum radius for 4*pi*r*r*local-pseudopot. charge    2.25106
atom: Maximum radius for r*vlocal+2*Zval:    1.91306
GHOST: No ghost state for L =  0
GHOST: No ghost state for L =  1
GHOST: No ghost state for L =  2

KBgen: Kleinman-Bylander projectors: 
   l= 0   rc=  2.036604   el= -0.477180   Ekb= -6.081590   kbcos= -0.277285
   l= 1   rc=  2.195416   el=  0.001076   Ekb= -0.926943   kbcos= -0.034643
   l= 2   rc=  2.251056   el=  0.002010   Ekb= -0.130941   kbcos= -0.009788

KBgen: Total number of Kleinman-Bylander projectors:    9
atom: -------------------------------------------------------------------------

atom: SANKEY-TYPE ORBITALS:
atom: Selected multiple-zeta basis: split     

SPLIT: Orbitals with angular momentum L= 0

SPLIT: Basis orbitals for state 1s

SPLIT: PAO cut-off radius determined from an
SPLIT: energy shift=  0.002000 Ry

   izeta = 1
                 lambda =    1.000000
                     rc =    6.518340
                 energy =   -0.475305
                kinetic =    0.912139
    potential(screened) =   -1.387444
       potential(ionic) =   -1.907295

   izeta = 2
                 rmatch =    2.141150
              splitnorm =    0.620000
                 energy =    0.566467
                kinetic =    3.772856
    potential(screened) =   -3.206389
       potential(ionic) =   -3.759093

POLgen: Perturbative polarization orbital with L=  1

POLgen: Polarization orbital for state 1s

   izeta = 1
                     rc =    6.518340
                 energy =    0.533861
                kinetic =    1.121086
    potential(screened) =   -0.587225
       potential(ionic) =   -1.053027
atom: Total number of Sankey-type orbitals:  5

atm_pop: Valence configuration (for local Pseudopot. screening):
 1s( 1.00)                                                            
Vna: chval, zval:    1.00000   1.00000

Vna:  Cut-off radius for the neutral-atom potential:   6.518340

atom: _________________________________________________________________________

<basis_specs>
===============================================================================
N                    Z=   7    Mass=  14.010        Charge= 0.17977+309
Lmxo=1 Lmxkb= 3    BasisType=split      Semic=F
L=0  Nsemic=0  Cnfigmx=2
          i=1  nzeta=2  polorb=0  (2s)
            splnorm:   0.28000    
               vcte:    0.0000    
               rinn:    0.0000    
               qcoe:    0.0000    
               qyuk:    0.0000    
               qwid:   0.10000E-01
                rcs:    0.0000      0.0000    
            lambdas:    1.0000      1.0000    
L=1  Nsemic=0  Cnfigmx=2
          i=1  nzeta=2  polorb=1  (2p)
            splnorm:   0.28000    
               vcte:    0.0000    
               rinn:    0.0000    
               qcoe:    0.0000    
               qyuk:    0.0000    
               qwid:   0.10000E-01
                rcs:    0.0000      0.0000    
            lambdas:    1.0000      1.0000    
-------------------------------------------------------------------------------
L=0  Nkbl=1  erefs: 0.17977+309
L=1  Nkbl=1  erefs: 0.17977+309
L=2  Nkbl=1  erefs: 0.17977+309
L=3  Nkbl=1  erefs: 0.17977+309
===============================================================================
</basis_specs>

atom: Called for N                     (Z =   7)

read_vps: Pseudopotential generation method:
read_vps: ATM4.2.7  Troullier-Martins                       
Valence charge for ps generation:    5.00000

xc_check: Exchange-correlation functional:
xc_check: GGA Perdew, Burke & Ernzerhof 1996
V l=0 = -2*Zval/r beyond r=  1.2889
V l=1 = -2*Zval/r beyond r=  1.2889
V l=2 = -2*Zval/r beyond r=  3.4178
V l=3 = -2*Zval/r beyond r=  2.4084
All V_l potentials equal beyond r=  3.3753
This should be close to max(r_c) in ps generation
All pots = -2*Zval/r beyond r=  3.4178

VLOCAL1: 99.0% of the norm of Vloc inside      3.810 Ry
VLOCAL1: 99.9% of the norm of Vloc inside      8.683 Ry
atom: Maximum radius for 4*pi*r*r*local-pseudopot. charge    4.02088
atom: Maximum radius for r*vlocal+2*Zval:    3.54838
GHOST: No ghost state for L =  0
GHOST: No ghost state for L =  1
GHOST: No ghost state for L =  2
GHOST: No ghost state for L =  3

KBgen: Kleinman-Bylander projectors: 
   l= 0   rc=  3.417763   el= -1.365098   Ekb= -4.433130   kbcos= -0.707855
   l= 1   rc=  3.375302   el= -0.521201   Ekb=-13.264039   kbcos= -0.535594
   l= 2   rc=  3.872880   el=  0.001991   Ekb= -0.641094   kbcos= -0.062456
   l= 3   rc=  3.970931   el=  0.003093   Ekb= -0.474517   kbcos= -0.018236

KBgen: Total number of Kleinman-Bylander projectors:   16
atom: -------------------------------------------------------------------------

atom: SANKEY-TYPE ORBITALS:
atom: Selected multiple-zeta basis: split     

SPLIT: Orbitals with angular momentum L= 0

SPLIT: Basis orbitals for state 2s

SPLIT: PAO cut-off radius determined from an
SPLIT: energy shift=  0.002000 Ry

   izeta = 1
                 lambda =    1.000000
                     rc =    4.730425
                 energy =   -1.363399
                kinetic =    1.245246
    potential(screened) =   -2.608645
       potential(ionic) =   -8.121105

   izeta = 2
                 rmatch =    2.531849
              splitnorm =    0.280000
                 energy =   -0.959908
                kinetic =    2.409435
    potential(screened) =   -3.369343
       potential(ionic) =   -9.427975

SPLIT: Orbitals with angular momentum L= 1

SPLIT: Basis orbitals for state 2p

SPLIT: PAO cut-off radius determined from an
SPLIT: energy shift=  0.002000 Ry

   izeta = 1
                 lambda =    1.000000
                     rc =    5.924108
                 energy =   -0.519262
                kinetic =    3.672940
    potential(screened) =   -4.192202
       potential(ionic) =   -9.518354

   izeta = 2
                 rmatch =    2.531849
              splitnorm =    0.280000
                 energy =   -0.104258
                kinetic =    6.807538
    potential(screened) =   -6.911796
       potential(ionic) =  -13.149920

POLgen: Perturbative polarization orbital with L=  2

POLgen: Polarization orbital for state 2p

   izeta = 1
                     rc =    5.924108
                 energy =    1.427508
                kinetic =    2.872379
    potential(screened) =   -1.444871
       potential(ionic) =   -5.563644
atom: Total number of Sankey-type orbitals: 13

atm_pop: Valence configuration (for local Pseudopot. screening):
 2s( 2.00)                                                            
 2p( 3.00)                                                            
Vna: chval, zval:    5.00000   5.00000

Vna:  Cut-off radius for the neutral-atom potential:   5.924108

atom: _________________________________________________________________________

<basis_specs>
===============================================================================
Si                   Z=  14    Mass=  28.090        Charge= 0.17977+309
Lmxo=1 Lmxkb= 3    BasisType=split      Semic=F
L=0  Nsemic=0  Cnfigmx=3
          i=1  nzeta=2  polorb=0  (3s)
            splnorm:   0.28000    
               vcte:    0.0000    
               rinn:    0.0000    
               qcoe:    0.0000    
               qyuk:    0.0000    
               qwid:   0.10000E-01
                rcs:    0.0000      0.0000    
            lambdas:    1.0000      1.0000    
L=1  Nsemic=0  Cnfigmx=3
          i=1  nzeta=2  polorb=1  (3p)
            splnorm:   0.28000    
               vcte:    0.0000    
               rinn:    0.0000    
               qcoe:    0.0000    
               qyuk:    0.0000    
               qwid:   0.10000E-01
                rcs:    0.0000      0.0000    
            lambdas:    1.0000      1.0000    
-------------------------------------------------------------------------------
L=0  Nkbl=1  erefs: 0.17977+309
L=1  Nkbl=1  erefs: 0.17977+309
L=2  Nkbl=1  erefs: 0.17977+309
L=3  Nkbl=1  erefs: 0.17977+309
===============================================================================
</basis_specs>

atom: Called for Si                    (Z =  14)

read_vps: Pseudopotential generation method:
read_vps: ATM4.2.7  Troullier-Martins                       
Valence charge for ps generation:    4.00000

xc_check: Exchange-correlation functional:
xc_check: GGA Perdew, Burke & Ernzerhof 1996
V l=0 = -2*Zval/r beyond r=  2.7826
V l=1 = -2*Zval/r beyond r=  2.7826
V l=2 = -2*Zval/r beyond r=  2.9253
V l=3 = -2*Zval/r beyond r=  2.7826
All V_l potentials equal beyond r=  2.8530
This should be close to max(r_c) in ps generation
All pots = -2*Zval/r beyond r=  2.9253

VLOCAL1: 99.0% of the norm of Vloc inside      5.333 Ry
VLOCAL1: 99.9% of the norm of Vloc inside     12.154 Ry
atom: Maximum radius for 4*pi*r*r*local-pseudopot. charge    3.39869
atom: Maximum radius for r*vlocal+2*Zval:    2.96205
GHOST: No ghost state for L =  0
GHOST: No ghost state for L =  1
GHOST: No ghost state for L =  2
GHOST: No ghost state for L =  3

KBgen: Kleinman-Bylander projectors: 
   l= 0   rc=  3.075247   el= -0.794092   Ekb=  5.879390   kbcos=  0.167461
   l= 1   rc=  3.153101   el= -0.300068   Ekb=  2.642817   kbcos=  0.058301
   l= 2   rc=  3.273594   el=  0.001958   Ekb= -1.185135   kbcos= -0.104411
   l= 3   rc=  3.232927   el=  0.003046   Ekb= -0.497174   kbcos= -0.015889

KBgen: Total number of Kleinman-Bylander projectors:   16
atom: -------------------------------------------------------------------------

atom: SANKEY-TYPE ORBITALS:
atom: Selected multiple-zeta basis: split     

SPLIT: Orbitals with angular momentum L= 0

SPLIT: Basis orbitals for state 3s

SPLIT: PAO cut-off radius determined from an
SPLIT: energy shift=  0.002000 Ry

   izeta = 1
                 lambda =    1.000000
                     rc =    6.429618
                 energy =   -0.792283
                kinetic =    0.525293
    potential(screened) =   -1.317576
       potential(ionic) =   -3.744923

   izeta = 2
                 rmatch =    3.998416
              splitnorm =    0.280000
                 energy =   -0.583081
                kinetic =    1.069570
    potential(screened) =   -1.652651
       potential(ionic) =   -4.235185

SPLIT: Orbitals with angular momentum L= 1

SPLIT: Basis orbitals for state 3p

SPLIT: PAO cut-off radius determined from an
SPLIT: energy shift=  0.002000 Ry

   izeta = 1
                 lambda =    1.000000
                     rc =    8.464845
                 energy =   -0.298236
                kinetic =    0.785360
    potential(screened) =   -1.083596
       potential(ionic) =   -3.273779

   izeta = 2
                 rmatch =    4.587816
              splitnorm =    0.280000
                 energy =   -0.131871
                kinetic =    1.403687
    potential(screened) =   -1.535557
       potential(ionic) =   -4.015310

POLgen: Perturbative polarization orbital with L=  2

POLgen: Polarization orbital for state 3p

   izeta = 1
                     rc =    8.464845
                 energy =    0.321949
                kinetic =    1.055677
    potential(screened) =   -0.733728
       potential(ionic) =   -2.672950
atom: Total number of Sankey-type orbitals: 13

atm_pop: Valence configuration (for local Pseudopot. screening):
 3s( 2.00)                                                            
 3p( 2.00)                                                            
Vna: chval, zval:    4.00000   4.00000

Vna:  Cut-off radius for the neutral-atom potential:   8.464845

atom: _________________________________________________________________________

<basis_specs>
===============================================================================
O                    Z=   8    Mass=  16.000        Charge= 0.17977+309
Lmxo=1 Lmxkb= 3    BasisType=split      Semic=F
L=0  Nsemic=0  Cnfigmx=2
          i=1  nzeta=2  polorb=0  (2s)
            splnorm:   0.28000    
               vcte:    0.0000    
               rinn:    0.0000    
               qcoe:    0.0000    
               qyuk:    0.0000    
               qwid:   0.10000E-01
                rcs:    0.0000      0.0000    
            lambdas:    1.0000      1.0000    
L=1  Nsemic=0  Cnfigmx=2
          i=1  nzeta=2  polorb=1  (2p)
            splnorm:   0.28000    
               vcte:    0.0000    
               rinn:    0.0000    
               qcoe:    0.0000    
               qyuk:    0.0000    
               qwid:   0.10000E-01
                rcs:    0.0000      0.0000    
            lambdas:    1.0000      1.0000    
-------------------------------------------------------------------------------
L=0  Nkbl=1  erefs: 0.17977+309
L=1  Nkbl=1  erefs: 0.17977+309
L=2  Nkbl=1  erefs: 0.17977+309
L=3  Nkbl=1  erefs: 0.17977+309
===============================================================================
</basis_specs>

atom: Called for O                     (Z =   8)

read_vps: Pseudopotential generation method:
read_vps: ATM4.2.7  Troullier-Martins                       
Valence charge for ps generation:    6.00000

xc_check: Exchange-correlation functional:
xc_check: GGA Perdew, Burke & Ernzerhof 1996
V l=0 = -2*Zval/r beyond r=  1.1000
V l=1 = -2*Zval/r beyond r=  1.1000
V l=2 = -2*Zval/r beyond r=  2.2154
V l=3 = -2*Zval/r beyond r=  1.1000
All V_l potentials equal beyond r=  2.2154
This should be close to max(r_c) in ps generation
All pots = -2*Zval/r beyond r=  2.2154

VLOCAL1: 99.0% of the norm of Vloc inside      8.845 Ry
VLOCAL1: 99.9% of the norm of Vloc inside     20.157 Ry
atom: Maximum radius for 4*pi*r*r*local-pseudopot. charge    2.67231
atom: Maximum radius for r*vlocal+2*Zval:    2.32897
GHOST: No ghost state for L =  0
GHOST: No ghost state for L =  1
GHOST: No ghost state for L =  2
GHOST: No ghost state for L =  3

KBgen: Kleinman-Bylander projectors: 
   l= 0   rc=  2.243238   el= -1.759686   Ekb=**********   kbcos= -0.171774
   l= 1   rc=  2.328968   el= -0.663873   Ekb=-14.506792   kbcos= -0.519897
   l= 2   rc=  2.573941   el=  0.002031   Ekb= -1.137373   kbcos= -0.019581
   l= 3   rc=  2.606321   el=  0.003153   Ekb= -1.013546   kbcos= -0.003122

KBgen: Total number of Kleinman-Bylander projectors:   16
atom: -------------------------------------------------------------------------

atom: SANKEY-TYPE ORBITALS:
atom: Selected multiple-zeta basis: split     

SPLIT: Orbitals with angular momentum L= 0

SPLIT: Basis orbitals for state 2s

SPLIT: PAO cut-off radius determined from an
SPLIT: energy shift=  0.002000 Ry

   izeta = 1
                 lambda =    1.000000
                     rc =    4.243912
                 energy =   -1.758270
                kinetic =    3.286084
    potential(screened) =   -5.044353
       potential(ionic) =  -12.921184

   izeta = 2
                 rmatch =    2.187845
              splitnorm =    0.280000
                 energy =   -0.885018
                kinetic =    8.134434
    potential(screened) =   -9.019452
       potential(ionic) =  -17.710645

SPLIT: Orbitals with angular momentum L= 1

SPLIT: Basis orbitals for state 2p

SPLIT: PAO cut-off radius determined from an
SPLIT: energy shift=  0.002000 Ry

   izeta = 1
                 lambda =    1.000000
                     rc =    5.314825
                 energy =   -0.661986
                kinetic =    4.917472
    potential(screened) =   -5.579458
       potential(ionic) =  -13.236259

   izeta = 2
                 rmatch =    2.160663
              splitnorm =    0.280000
                 energy =   -0.068760
                kinetic =    9.183374
    potential(screened) =   -9.252135
       potential(ionic) =  -18.274251

POLgen: Perturbative polarization orbital with L=  2

POLgen: Polarization orbital for state 2p

   izeta = 1
                     rc =    5.314825
                 energy =    1.970580
                kinetic =    3.886128
    potential(screened) =   -1.915547
       potential(ionic) =   -7.749584
atom: Total number of Sankey-type orbitals: 13

atm_pop: Valence configuration (for local Pseudopot. screening):
 2s( 2.00)                                                            
 2p( 4.00)                                                            
Vna: chval, zval:    6.00000   6.00000

Vna:  Cut-off radius for the neutral-atom potential:   5.314825

atom: _________________________________________________________________________

prinput: Basis input ----------------------------------------------------------

PAO.BasisType split     

%block ChemicalSpeciesLabel
    1    1 H                       # Species index, atomic number, species label
    2    7 N                       # Species index, atomic number, species label
    3   14 Si                      # Species index, atomic number, species label
    4    8 O                       # Species index, atomic number, species label
%endblock ChemicalSpeciesLabel

%block PAO.Basis                 # Define Basis set
H                     1                    # Species label, number of l-shells
 n=1   0   2 P   1                   # n, l, Nzeta, Polarization, NzetaPol
   6.518      2.141   
   1.000      1.000   
N                     2                    # Species label, number of l-shells
 n=2   0   2                         # n, l, Nzeta 
   4.730      2.532   
   1.000      1.000   
 n=2   1   2 P   1                   # n, l, Nzeta, Polarization, NzetaPol
   5.924      2.532   
   1.000      1.000   
Si                    2                    # Species label, number of l-shells
 n=3   0   2                         # n, l, Nzeta 
   6.430      3.998   
   1.000      1.000   
 n=3   1   2 P   1                   # n, l, Nzeta, Polarization, NzetaPol
   8.465      4.588   
   1.000      1.000   
O                     2                    # Species label, number of l-shells
 n=2   0   2                         # n, l, Nzeta 
   4.244      2.188   
   1.000      1.000   
 n=2   1   2 P   1                   # n, l, Nzeta, Polarization, NzetaPol
   5.315      2.161   
   1.000      1.000   
%endblock PAO.Basis

prinput: ----------------------------------------------------------------------

Dumping basis to NetCDF file H.ion.nc
Dumping basis to NetCDF file N.ion.nc
Dumping basis to NetCDF file Si.ion.nc
Dumping basis to NetCDF file O.ion.nc
coor:   Atomic-coordinates input format  =     Cartesian coordinates
coor:                                          (in Angstroms)

siesta: Atomic coordinates (Bohr) and species
siesta:      4.87999 -10.91663   0.00000  1        1
siesta:      3.12704  -9.95765   0.00000  2        2
siesta:      0.11930 -11.53056   0.00000  3        3
siesta:      0.22530 -14.35597   0.00000  1        4
siesta:     -2.60195  -9.79371   0.00000  2        5
siesta:     -1.55784  -6.54009   0.00000  3        6
siesta:     -2.21206  -2.39996   0.00000  3        7
siesta:     -5.11537  -0.78899   0.00000  2        8
siesta:     -5.20538   1.19971   0.00000  1        9
siesta:     -6.87421  -1.71959   0.00000  1       10
siesta:      0.41213  -0.44256   0.00000  2       11
siesta:      3.53758  -1.31745   0.00000  3       12
siesta:      5.34415   0.87204   0.00000  1       13
siesta:      5.00428  -4.26138   0.00000  2       14
siesta:      2.63035  -6.52849   0.00000  3       15
siesta:      3.47343  15.77852   0.00000  2       16
siesta:      0.96506  18.06548   0.00000  3       17
siesta:      2.17448  20.63800   0.00000  1       18
siesta:     -2.97643  16.79835   0.00000  3       19
siesta:     -6.81175  18.93397   0.00000  3       20
siesta:     -6.52029  21.12648   1.77692  1       21
siesta:     -8.67490  17.00281   0.96870  1       22
siesta:     -7.59829  19.83390  -2.58265  1       23
siesta:     -2.85078  12.50116   0.00000  3       24
siesta:     -4.81429  10.24660   0.00000  4       25
siesta:      0.28048  11.30312   0.00000  2       26
siesta:      0.24644   9.29539   0.00000  1       27
siesta:      3.34865  12.43142   0.00000  3       28
siesta:      5.60691  10.51443   0.00000  4       29
siesta:      5.36322  16.43143   0.00000  1       30

siesta: Automatic unit cell vectors (Ang):
siesta:   15.878974    0.000000    0.000000
siesta:    0.000000   28.242731    0.000000
siesta:    0.000000    0.000000   10.224979

siesta: System type = molecule  

initatomlists: Number of atoms, orbitals, and projectors:     30   302   403

siesta: ******************** Simulation parameters ****************************
siesta:
siesta: The following are some of the parameters of the simulation.
siesta: A complete list of the parameters used, including default values,
siesta: can be found in file out.fdf
siesta:
redata: Spin configuration                          = spin-orbit
redata: Number of spin components                   = 8
redata: Time-Reversal Symmetry                      = F
redata: Spin spiral                                 = F
############################################################
This spin-orbit implementation uses a local approximation.
From 4.2 and onwards the full non-local approximation is implemented
You are strongly advised to use >=4.2 versions!
############################################################
redata: Long output                                 =   F
redata: Number of Atomic Species                    =        4
redata: Charge density info will appear in .RHO file
redata: Write Mulliken Pop.                         = Atomic and Orbital charges
redata: Matel table size (NRTAB)                    =     1024
redata: Mesh Cutoff                                 =   340.0000 Ry
redata: Net charge of the system                    =     0.0000 |e|
redata: Min. number of SCF Iter                     =        1
redata: Max. number of SCF Iter                     =      200
redata: SCF mix quantity                            = Hamiltonian
redata: Mix DM or H after convergence               =   F
redata: Recompute H after scf cycle                 =   F
redata: Mix DM in first SCF step                    =   T
redata: Write Pulay info on disk                    =   F
redata: New DM Occupancy tolerance                  = 0.000000000001
redata: No kicks to SCF
redata: DM Mixing Weight for Kicks                  =     0.5000
redata: Require Harris convergence for SCF          =   F
redata: Harris energy tolerance for SCF             =     0.000100 eV
redata: Require DM convergence for SCF              =   T
redata: DM tolerance for SCF                        =     0.000008
redata: Require EDM convergence for SCF             =   F
redata: EDM tolerance for SCF                       =     0.001000 eV
redata: Require H convergence for SCF               =   T
redata: Hamiltonian tolerance for SCF               =     0.000001 eV
redata: Require (free) Energy convergence for SCF   =   F
redata: (free) Energy tolerance for SCF             =     0.000100 eV
redata: Using Saved Data (generic)                  =   F
redata: Use continuation files for DM               =   F
redata: Neglect nonoverlap interactions             =   F
redata: Method of Calculation                       = Diagonalization
redata: Electronic Temperature                      =   299.9978 K
redata: Fix the spin of the system                  =   F
redata: Dynamics option                             = Single-point calculation
mix.SCF: Pulay mixing                            = Pulay
mix.SCF:    Variant                              = stable
mix.SCF:    History steps                        = 6
mix.SCF:    Linear mixing weight                 =     0.250000
mix.SCF:    Mixing weight                        =     0.250000
mix.SCF:    SVD condition                        = 0.1000E-07
mix.SCF:    Restart steps                        = 24
mix.SCF:    Restart save steps                   = 3
mix.SCF: Spin-component mixing                   all
redata: Save all siesta data in one NC              =   F
redata: ***********************************************************************

%block SCF.Mixers
  Pulay
%endblock SCF.Mixers

%block SCF.Mixer.Pulay
  # Mixing method
  method pulay
  variant stable

  # Mixing options
  weight 0.2500
  weight.linear 0.2500
  history 6
  restart 24
  restart.save 3
%endblock SCF.Mixer.Pulay

DM_history_depth set to one: no extrapolation allowed by default for geometry relaxation
Size of DM history Fstack: 1
Total number of electrons:    98.000000
Total ionic charge:    98.000000

* ProcessorY, Blocksize:    2  24


* Orbital distribution balance (max,min):    62    48


Time-reversal symmetry not used.

siesta: k-grid: Number of k-points =     1
siesta: k-grid: Cutoff (effective) =     5.112 Ang
siesta: k-grid: Supercell and displacements
siesta: k-grid:    1   0   0      0.000
siesta: k-grid:    0   1   0      0.000
siesta: k-grid:    0   0   1      0.000

diag: Algorithm                                     = ELPA-1stage
diag: Parallel over k                               =   F
diag: Use parallel 2D distribution                  =   T
diag: Parallel block-size                           = 24
diag: Parallel distribution                         =     2 x     3
diag: Used triangular part                          = Lower
diag: Absolute tolerance                            =  0.100E-15
diag: Orthogonalization factor                      =  0.100E-05
diag: Memory factor                                 =  1.0000


ts: **************************************************************
ts: Save H and S matrices                           =    F
ts: Save DM and EDM matrices                        =    F
ts: Only save the overlap matrix S                  =    F
ts: **************************************************************

************************ Begin: TS CHECKS AND WARNINGS ************************
************************ End: TS CHECKS AND WARNINGS **************************


                     ====================================
                        Single-point calculation
                     ====================================

outcoor: Atomic coordinates (Ang):                          
    2.58237765   -5.77683044    0.00000000   1       1  H
    1.65475924   -5.26936198    0.00000000   2       2  N
    0.06312884   -6.10170459    0.00000000   3       3  Si
    0.11922324   -7.59684950    0.00000000   1       4  H
   -1.37689205   -5.18260374    0.00000000   2       5  N
   -0.82437190   -3.46086644    0.00000000   3       6  Si
   -1.17057148   -1.27000210    0.00000000   3       7  Si
   -2.70693368   -0.41751578    0.00000000   2       8  N
   -2.75456966    0.63485862    0.00000000   1       9  H
   -3.63767564   -0.90996786    0.00000000   1      10  H
    0.21809179   -0.23419397    0.00000000   2      11  N
    1.87200410   -0.69716230    0.00000000   3      12  Si
    2.82800113    0.46146477    0.00000000   1      13  H
    2.64815008   -2.25502447    0.00000000   2      14  N
    1.39192138   -3.45472722    0.00000000   3      15  Si
    1.83805664    8.34962994    0.00000000   2      16  N
    0.51068512    9.55983424    0.00000000   3      17  Si
    1.15068639   10.92115248    0.00000000   1      18  H
   -1.57506082    8.88930289    0.00000000   3      19  Si
   -3.60462342   10.01941908    0.00000000   3      20  Si
   -3.45038765   11.17964929    0.94030528   1      21  H
   -4.59055814    8.99749846    0.51261370   1      22  H
   -4.02083838   10.49564493   -1.36667834   1      23  H
   -1.50856540    6.61532627    0.00000000   3      24  Si
   -2.54761413    5.42226677    0.00000000   4      25  O
    0.14842618    5.98135108    0.00000000   2      26  N
    0.13040881    4.91890625    0.00000000   1      27  H
    1.77202925    6.57842129    0.00000000   3      28  Si
    2.96704542    5.56399609    0.00000000   4      29  O
    2.83809401    8.69513704    0.00000000   1      30  H

outcell: Unit cell vectors (Ang):
       15.878974    0.000000    0.000000
        0.000000   28.242731    0.000000
        0.000000    0.000000   10.224979

outcell: Cell vector modules (Ang)   :   15.878974   28.242731   10.224979
outcell: Cell angles (23,13,12) (deg):     90.0000     90.0000     90.0000
outcell: Cell volume (Ang**3)        :   4585.5513
<dSpData1D:S at geom step 0
  <sparsity:sparsity for geom step 0
    nrows_g=302 nrows=62 sparsity=.1009 nnzs=9198, refcount: 8>
  <dData1D:(new from dSpData1D) n=9198, refcount: 1>
refcount: 1>
new_DM -- step:     1
Initializing Density Matrix...
DM filled with atomic data:
<dSpData2D:DM initialized from atoms
  <sparsity:sparsity for geom step 0
    nrows_g=302 nrows=62 sparsity=.1009 nnzs=9198, refcount: 9>
  <dData2D:DM n=9198 m=8, refcount: 1>
refcount: 1>
     spin moment: S , {S} =   56.00000   0.00000   0.00000  56.00000
No. of atoms with KB's overlaping orbs in proc 0. Max # of overlaps:      24     133

Initializing spin-orbit part of the Hamiltonian
  Adding spin-orbit effects for H 
  Adding spin-orbit effects for N 
  Adding spin-orbit effects for Si
  Adding spin-orbit effects for O 


New grid distribution:   1
           1       1:   90    1:   80    1:   20
           2       1:   90    1:   80   21:   40
           3       1:   90    1:   80   41:   60
           4       1:   90   81:  160    1:   20
           5       1:   90   81:  160   21:   40
           6       1:   90   81:  160   41:   60

InitMesh: MESH =   180 x   320 x   120 =     6912000
InitMesh: (bp) =    90 x   160 x    60 =      864000
InitMesh: Mesh cutoff (required, used) =   340.000   354.804 Ry
ExtMesh (bp) on 0 =   194 x   184 x   128 =     4569088
New grid distribution:   2
           1      14:   90   43:   62    1:   60
           2       1:   11   63:  160    1:   60
           3       1:   13    1:   62    1:   60
           4      12:   90   63:  140    1:   60
           5      14:   90    1:   42    1:   60
           6      12:   90  141:  160    1:   60
New grid distribution:   3
           1       1:   19   64:  160    1:   60
           2      22:   90   39:   63    1:   60
           3       1:   21    1:   63    1:   60
           4      20:   90   64:  130    1:   60
           5      22:   90    1:   38    1:   60
           6      20:   90  131:  160    1:   60
Setting up quadratic distribution...
ExtMesh (bp) on 0 =   181 x   124 x   168 =     3770592
PhiOnMesh: Number of (b)points on node 0 =                92400
PhiOnMesh: nlist on node 0 =              1698341

stepf: Fermi-Dirac step function

siesta: Program's energy decomposition (eV):
siesta: Ebs     =      -633.594595
siesta: Eions   =      3553.971015
siesta: Ena     =       377.805307
siesta: Ekin    =      3183.740717
siesta: Enl     =     -2998.608600
siesta: Eso     =        -0.003898
siesta: Edftu   =         0.000000
siesta: DEna    =       130.444420
siesta: DUscf   =        76.838262
siesta: DUext   =         0.000000
siesta: Exc     =     -1171.479826
siesta: eta*DQ  =         0.000000
siesta: Emadel  =         0.000000
siesta: Emeta   =         0.000000
siesta: Emolmec =         0.000000
siesta: Ekinion =         0.000000
siesta: Eharris =     -3882.099723
siesta: Etot    =     -3955.234633
siesta: FreeEng =     -3955.238837

        iscf     Eharris(eV)        E_KS(eV)     FreeEng(eV)     dDmax    Ef(eV) dHmax(eV)
   scf:    1    -3882.099723    -3955.234633    -3955.238837  0.971409 -4.940639 21.524801
     spin moment: S , {S} =    2.03173   0.00003   0.00001   2.03173
timer: Routine,Calls,Time,% = IterSCF        1       5.692  22.10
   scf:    2    -3997.758429    -3989.219145    -3989.219147  0.457229 -4.366664 10.871989
     spin moment: S , {S} =    2.00011  -0.00001   0.00004   2.00011
   scf:    3    -3973.969030    -3990.018099    -3990.053203  0.415330 -4.274977  9.579091
     spin moment: S , {S} =    1.32080   0.00002   0.00001   1.32080
   scf:    4    -4001.285785    -3997.399087    -3997.399089  0.218580 -3.971418  5.626641
     spin moment: S , {S} =    0.00011   0.00001  -0.00000   0.00011
   scf:    5    -3998.707038    -3998.140266    -3998.140267  0.038991 -3.900675  3.354007
     spin moment: S , {S} =    0.00006   0.00001  -0.00000   0.00006
   scf:    6    -3998.813649    -3998.486517    -3998.486517  0.023077 -3.897805  1.865246
     spin moment: S , {S} =    0.00003   0.00000  -0.00000   0.00003
   scf:    7    -3998.878036    -3998.674586    -3998.674586  0.024005 -3.948913  0.737962
     spin moment: S , {S} =    0.00001   0.00000  -0.00000   0.00001
   scf:    8    -3998.786282    -3998.728318    -3998.728318  0.011498 -3.988100  0.423785
     spin moment: S , {S} =    0.00000   0.00000  -0.00000   0.00000
   scf:    9    -3998.770930    -3998.748683    -3998.748683  0.006722 -4.003608  0.321277
     spin moment: S , {S} =    0.00000   0.00000  -0.00000   0.00000
   scf:   10    -3998.801058    -3998.768644    -3998.768655  0.019612 -4.026340  0.173070
     spin moment: S , {S} =    0.00003   0.00000   0.00000  -0.00003
   scf:   11    -3998.771913    -3998.770324    -3998.770340  0.004158 -4.015175  0.047109
     spin moment: S , {S} =    0.00000   0.00000   0.00000   0.00000
   scf:   12    -3998.770877    -3998.770604    -3998.770622  0.001284 -4.013485  0.024884
     spin moment: S , {S} =    0.00000   0.00000   0.00000   0.00000
   scf:   13    -3998.770947    -3998.770772    -3998.770791  0.001053 -4.011732  0.016040
     spin moment: S , {S} =    0.00000   0.00000   0.00000   0.00000
   scf:   14    -3998.770977    -3998.770869    -3998.770889  0.001087 -4.010986  0.012896
     spin moment: S , {S} =    0.00000   0.00000   0.00000   0.00000
   scf:   15    -3998.770995    -3998.770927    -3998.770947  0.001051 -4.010616  0.009077
     spin moment: S , {S} =    0.00000   0.00000   0.00000   0.00000
   scf:   16    -3998.770996    -3998.770958    -3998.770978  0.000870 -4.010621  0.005840
     spin moment: S , {S} =    0.00000   0.00000   0.00000  -0.00000
   scf:   17    -3998.770989    -3998.770972    -3998.770991  0.000684 -4.010689  0.003925
     spin moment: S , {S} =    0.00000   0.00000   0.00000  -0.00000
   scf:   18    -3998.770981    -3998.770976    -3998.770995  0.000348 -4.010756  0.002400
     spin moment: S , {S} =    0.00000   0.00000   0.00000  -0.00000
   scf:   19    -3998.770981    -3998.770978    -3998.770997  0.000326 -4.010753  0.001156
     spin moment: S , {S} =    0.00000   0.00000   0.00000  -0.00000
   scf:   20    -3998.770978    -3998.770978    -3998.770997  0.000094 -4.010757  0.000779
     spin moment: S , {S} =    0.00000   0.00000   0.00000  -0.00000
   scf:   21    -3998.770979    -3998.770978    -3998.770998  0.000098 -4.010756  0.000327
     spin moment: S , {S} =    0.00000   0.00000   0.00000  -0.00000
   scf:   22    -3998.770978    -3998.770978    -3998.770998  0.000062 -4.010765  0.000125
     spin moment: S , {S} =    0.00000   0.00000   0.00000  -0.00000
   scf:   23    -3998.770978    -3998.770978    -3998.770998  0.000014 -4.010771  0.000080
     spin moment: S , {S} =    0.00000   0.00000   0.00000  -0.00000
   scf:   24    -3998.770978    -3998.770978    -3998.770998  0.000004 -4.010773  0.000067
     spin moment: S , {S} =    0.00000   0.00000   0.00000  -0.00000
mix: Pulay -- resetting history
   scf:   25    -3998.770978    -3998.770978    -3998.770998  0.000005 -4.010772  0.000039
     spin moment: S , {S} =    0.00000   0.00000   0.00000  -0.00000
   scf:   26    -3998.770978    -3998.770978    -3998.770998  0.000003 -4.010770  0.000020
     spin moment: S , {S} =    0.00000   0.00000   0.00000  -0.00000
   scf:   27    -3998.770978    -3998.770978    -3998.770998  0.000002 -4.010770  0.000011
     spin moment: S , {S} =    0.00000   0.00000  -0.00000  -0.00000
   scf:   28    -3998.770978    -3998.770978    -3998.770998  0.000001 -4.010770  0.000008
     spin moment: S , {S} =    0.00000   0.00000  -0.00000  -0.00000
   scf:   29    -3998.770978    -3998.770978    -3998.770998  0.000001 -4.010770  0.000005
     spin moment: S , {S} =    0.00000   0.00000  -0.00000   0.00000
   scf:   30    -3998.770978    -3998.770978    -3998.770998  0.000000 -4.010770  0.000003
     spin moment: S , {S} =    0.00000   0.00000  -0.00000   0.00000
   scf:   31    -3998.770978    -3998.770978    -3998.770998  0.000000 -4.010770  0.000002
     spin moment: S , {S} =    0.00000   0.00000  -0.00000   0.00000
   scf:   32    -3998.770978    -3998.770978    -3998.770998  0.000000 -4.010770  0.000001
     spin moment: S , {S} =    0.00000   0.00000  -0.00000   0.00000
   scf:   33    -3998.770978    -3998.770978    -3998.770998  0.000000 -4.010770  0.000001
     spin moment: S , {S} =    0.00000   0.00000  -0.00000   0.00000

SCF Convergence by DM+H criterion
max |DM_out - DM_in|         :     0.0000001007
max |H_out - H_in|      (eV) :     0.0000007188
SCF cycle converged after 33 iterations

Using DM_out to compute the final energy and forces
No. of atoms with KB's overlaping orbs in proc 0. Max # of overlaps:      24     133

siesta: E_KS(eV) =            -3998.7710

siesta: E_KS - E_eggbox =     -3998.7710
     spin moment: S , {S} =    0.00000   0.00000  -0.00000   0.00000

siesta: Atomic forces (eV/Ang):
     1   -0.025599    0.033230    0.000002
     2   -0.004055   -0.039739   -0.000002
     3   -0.003326    0.040744    0.000004
     4   -0.056407    0.005169    0.000001
     5    0.018181   -0.032452   -0.000003
     6    0.023338    0.004973   -0.000000
     7   -0.065104    0.106821    0.000005
     8    0.056312   -0.044495   -0.000020
     9    0.055119   -0.079722    0.000028
    10    0.101632    0.100577    0.000004
    11   -0.038912   -0.035434   -0.000007
    12    0.041431    0.061894    0.000001
    13   -0.092194   -0.176836   -0.000000
    14   -0.006500   -0.050425    0.000000
    15    0.000506    0.066280   -0.000000
    16   -0.012111    0.093636    0.008019
    17   -0.008913   -0.044516   -0.039762
    18   -0.101982    0.161303    0.008235
    19    0.005421    0.029725   -0.041191
    20    0.041645   -0.056377    0.026873
    21   -0.080278    0.209088    0.067495
    22    0.097258    0.223252   -0.016610
    23   -0.012939    0.050008   -0.052286
    24    0.042926   -0.112640   -0.026642
    25   -3.395418   -1.166133    0.002995
    26   -0.029235    0.058380    0.006532
    27    0.002741   -0.057792    0.002787
    28    0.000631   -0.112043   -0.000872
    29    2.954297   -0.875385   -0.001086
    30    0.013960    0.160369    0.008278
----------------------------------------
   Tot   -0.477573   -1.478538   -0.047221
----------------------------------------
   Max    3.395418
   Res    0.502630    sqrt( Sum f_i^2 / 3N )
----------------------------------------
   Max    3.395418    constrained

Stress tensor Voigt[x,y,z,yz,xz,xy] (kbar):       -1.63       -0.41       -0.21       -0.04        0.05        0.28
(Free)E + p*V (eV/cell)    -3996.6235
Target enthalpy (eV/cell)    -3998.7710

mulliken: Atomic and Orbital Populations:

Species: H                   

Atom      Orb        Charge      Spin       Svec
----------------------------------------------------------------
    1  1 1s         0.50852   0.00000      0.000  -0.000  -0.000
    1  2 1s         0.18804   0.00000     -0.000   0.000   0.000
    1  3 2Ppy       0.02792   0.00000     -0.000   0.000   0.000
    1  4 2Ppz       0.03995   0.00000     -0.000  -0.000  -0.000
    1  5 2Ppx       0.02506   0.00000      0.000   0.000   0.000
    1     Total     0.78950   0.00000     -0.000  -0.000  -0.000

    4  1 1s         1.02389   0.00000     -0.000  -0.000  -0.000
    4  2 1s         0.09512   0.00000      0.000   0.000   0.000
    4  3 2Ppy       0.03906   0.00000      0.000   0.000   0.000
    4  4 2Ppz       0.01988   0.00000     -0.000  -0.000   0.000
    4  5 2Ppx       0.01356   0.00000     -0.000  -0.000  -0.000
    4     Total     1.19152   0.00000     -0.000  -0.000  -0.000

    9  1 1s         0.47837   0.00000      0.000  -0.000  -0.000
    9  2 1s         0.19546   0.00000     -0.000   0.000   0.000
    9  3 2Ppy       0.02301   0.00000     -0.000   0.000  -0.000
    9  4 2Ppz       0.04884   0.00000     -0.000   0.000   0.000
    9  5 2Ppx       0.01230   0.00000      0.000   0.000  -0.000
    9     Total     0.75797   0.00000      0.000  -0.000  -0.000

   10  1 1s         0.48208   0.00000      0.000   0.000  -0.000
   10  2 1s         0.19602   0.00000     -0.000  -0.000   0.000
   10  3 2Ppy       0.00686   0.00000     -0.000   0.000   0.000
   10  4 2Ppz       0.05300   0.00000      0.000   0.000   0.000
   10  5 2Ppx       0.02900   0.00000      0.000   0.000  -0.000
   10     Total     0.76695   0.00000      0.000   0.000  -0.000

   13  1 1s         1.01308   0.00000      0.000   0.000  -0.000
   13  2 1s         0.09946   0.00000     -0.000  -0.000   0.000
   13  3 2Ppy       0.02479   0.00000     -0.000   0.000   0.000
   13  4 2Ppz       0.01442   0.00000     -0.000   0.000  -0.000
   13  5 2Ppx       0.01753   0.00000      0.000  -0.000   0.000
   13     Total     1.16928   0.00000      0.000   0.000  -0.000

   18  1 1s         1.05013   0.00000     -0.000  -0.000  -0.000
   18  2 1s         0.08393   0.00000      0.000   0.000   0.000
   18  3 2Ppy       0.02778   0.00000     -0.000  -0.000   0.000
   18  4 2Ppz       0.01892   0.00000      0.000  -0.000  -0.000
   18  5 2Ppx       0.01767   0.00000      0.000   0.000  -0.000
   18     Total     1.19843   0.00000     -0.000  -0.000  -0.000

   21  1 1s         1.06670   0.00000     -0.000  -0.000  -0.000
   21  2 1s         0.08259   0.00000      0.000   0.000   0.000
   21  3 2Ppy       0.02228   0.00000      0.000  -0.000   0.000
   21  4 2Ppz       0.02109   0.00000      0.000   0.000   0.000
   21  5 2Ppx       0.01160   0.00000      0.000  -0.000   0.000
   21     Total     1.20427   0.00000     -0.000  -0.000  -0.000

   22  1 1s         1.05179   0.00000      0.000  -0.000  -0.000
   22  2 1s         0.08384   0.00000     -0.000   0.000   0.000
   22  3 2Ppy       0.02013   0.00000      0.000  -0.000   0.000
   22  4 2Ppz       0.01767   0.00000      0.000  -0.000  -0.000
   22  5 2Ppx       0.01708   0.00000      0.000  -0.000   0.000
   22     Total     1.19052   0.00000      0.000  -0.000  -0.000

   23  1 1s         1.06500   0.00000     -0.000   0.000  -0.000
   23  2 1s         0.08211   0.00000      0.000  -0.000   0.000
   23  3 2Ppy       0.01684   0.00000      0.000  -0.000   0.000
   23  4 2Ppz       0.02461   0.00000     -0.000   0.000   0.000
   23  5 2Ppx       0.01349   0.00000      0.000  -0.000   0.000
   23     Total     1.20205   0.00000     -0.000   0.000  -0.000

   27  1 1s         0.46415   0.00000     -0.000   0.000   0.000
   27  2 1s         0.19047   0.00000      0.000  -0.000   0.000
   27  3 2Ppy       0.02022   0.00000     -0.000   0.000  -0.000
   27  4 2Ppz       0.02557   0.00000     -0.000   0.000  -0.000
   27  5 2Ppx       0.02930   0.00000      0.000   0.000   0.000
   27     Total     0.72970   0.00000     -0.000   0.000   0.000

   30  1 1s         0.48344   0.00000     -0.000  -0.000  -0.000
   30  2 1s         0.18898   0.00000      0.000   0.000   0.000
   30  3 2Ppy       0.02653   0.00000      0.000  -0.000  -0.000
   30  4 2Ppz       0.03453   0.00000      0.000  -0.000   0.000
   30  5 2Ppx       0.02316   0.00000      0.000  -0.000   0.000
   30     Total     0.75664   0.00000      0.000  -0.000   0.000

----------------------------------------------------------------
Total              10.95682   0.00000     -0.000   0.000  -0.000


Species: N                   

Atom      Orb        Charge      Spin       Svec
----------------------------------------------------------------
    2  1 2s         1.38112   0.00000     -0.000  -0.000  -0.000
    2  2 2s         0.12658   0.00000      0.000   0.000  -0.000
    2  3 2py        1.06832   0.00000      0.000   0.000  -0.000
    2  4 2pz        1.49542   0.00000      0.000   0.000  -0.000
    2  5 2px        1.01750   0.00000     -0.000  -0.000  -0.000
    2  6 2py        0.19591   0.00000     -0.000  -0.000   0.000
    2  7 2pz        0.01429   0.00000     -0.000  -0.000   0.000
    2  8 2px        0.20992   0.00000      0.000   0.000   0.000
    2  9 3Pdxy      0.00673   0.00000      0.000   0.000   0.000
    2 10 3Pdyz      0.00606   0.00000      0.000   0.000   0.000
    2 11 3Pdz2      0.00151   0.00000      0.000   0.000   0.000
    2 12 3Pdxz      0.00304   0.00000     -0.000  -0.000   0.000
    2 13 3Pdx2-y2   0.00297   0.00000      0.000   0.000  -0.000
    2     Total     5.52938   0.00000      0.000   0.000  -0.000

    5  1 2s         1.55817   0.00000     -0.000  -0.000  -0.000
    5  2 2s         0.08112   0.00000      0.000   0.000  -0.000
    5  3 2py        0.90449   0.00000      0.000  -0.000  -0.000
    5  4 2pz        1.22247   0.00000     -0.000  -0.000  -0.000
    5  5 2px        1.14182   0.00000      0.000   0.000  -0.000
    5  6 2py        0.23014   0.00000     -0.000   0.000   0.000
    5  7 2pz        0.05524   0.00000      0.000   0.000   0.000
    5  8 2px        0.14632   0.00000     -0.000   0.000   0.000
    5  9 3Pdxy      0.00854   0.00000      0.000   0.000  -0.000
    5 10 3Pdyz      0.00700   0.00000      0.000   0.000   0.000
    5 11 3Pdz2      0.00189   0.00000      0.000  -0.000   0.000
    5 12 3Pdxz      0.01129   0.00000      0.000  -0.000   0.000
    5 13 3Pdx2-y2   0.00920   0.00000     -0.000   0.000   0.000
    5     Total     5.37768   0.00000     -0.000  -0.000  -0.000

    8  1 2s         1.28493   0.00000      0.000  -0.000  -0.000
    8  2 2s         0.17149   0.00000      0.000  -0.000  -0.000
    8  3 2py        1.06247   0.00000     -0.000   0.000  -0.000
    8  4 2pz        1.57144   0.00000     -0.000  -0.000  -0.000
    8  5 2px        1.00437   0.00000      0.000  -0.000  -0.000
    8  6 2py        0.19472   0.00000      0.000  -0.000   0.000
    8  7 2pz        0.02735   0.00000      0.000   0.000  -0.000
    8  8 2px        0.22871   0.00000     -0.000   0.000   0.000
    8  9 3Pdxy      0.00270   0.00000      0.000  -0.000  -0.000
    8 10 3Pdyz      0.00082   0.00000     -0.000   0.000  -0.000
    8 11 3Pdz2      0.00272   0.00000      0.000   0.000   0.000
    8 12 3Pdxz      0.00243   0.00000     -0.000  -0.000  -0.000
    8 13 3Pdx2-y2   0.00435   0.00000      0.000  -0.000   0.000
    8     Total     5.55850   0.00000     -0.000  -0.000  -0.000

   11  1 2s         1.45873   0.00000     -0.000  -0.000   0.000
   11  2 2s         0.11402   0.00000      0.000   0.000  -0.000
   11  3 2py        1.22323   0.00000      0.000   0.000   0.000
   11  4 2pz        1.28779   0.00000      0.000  -0.000   0.000
   11  5 2px        0.79935   0.00000     -0.000   0.000   0.000
   11  6 2py        0.11177   0.00000     -0.000  -0.000  -0.000
   11  7 2pz        0.04618   0.00000     -0.000   0.000  -0.000
   11  8 2px        0.31770   0.00000      0.000  -0.000  -0.000
   11  9 3Pdxy      0.00736   0.00000      0.000  -0.000   0.000
   11 10 3Pdyz      0.00608   0.00000     -0.000   0.000   0.000
   11 11 3Pdz2      0.00055   0.00000     -0.000  -0.000  -0.000
   11 12 3Pdxz      0.00496   0.00000     -0.000  -0.000  -0.000
   11 13 3Pdx2-y2   0.00525   0.00000      0.000   0.000   0.000
   11     Total     5.38295   0.00000      0.000  -0.000   0.000

   14  1 2s         1.50663   0.00000      0.000  -0.000   0.000
   14  2 2s         0.10224   0.00000     -0.000   0.000   0.000
   14  3 2py        0.84402   0.00000      0.000   0.000   0.000
   14  4 2pz        1.23728   0.00000     -0.000   0.000   0.000
   14  5 2px        1.17738   0.00000      0.000   0.000  -0.000
   14  6 2py        0.27741   0.00000      0.000  -0.000  -0.000
   14  7 2pz        0.05440   0.00000      0.000  -0.000  -0.000
   14  8 2px        0.13201   0.00000     -0.000  -0.000   0.000
   14  9 3Pdxy      0.00949   0.00000     -0.000   0.000  -0.000
   14 10 3Pdyz      0.00491   0.00000      0.000   0.000  -0.000
   14 11 3Pdz2      0.00146   0.00000      0.000  -0.000  -0.000
   14 12 3Pdxz      0.01066   0.00000      0.000  -0.000  -0.000
   14 13 3Pdx2-y2   0.00791   0.00000     -0.000  -0.000   0.000
   14     Total     5.36581   0.00000      0.000   0.000   0.000

   16  1 2s         1.37901   0.00000      0.000   0.000  -0.000
   16  2 2s         0.12573   0.00000     -0.000  -0.000   0.000
   16  3 2py        0.99138   0.00000      0.000  -0.000  -0.000
   16  4 2pz        1.54747   0.00000     -0.000   0.000  -0.000
   16  5 2px        1.08047   0.00000     -0.000  -0.000  -0.000
   16  6 2py        0.23940   0.00000     -0.000  -0.000  -0.000
   16  7 2pz        0.00326   0.00000      0.000  -0.000  -0.000
   16  8 2px        0.18040   0.00000      0.000  -0.000  -0.000
   16  9 3Pdxy      0.00153   0.00000     -0.000  -0.000   0.000
   16 10 3Pdyz      0.00476   0.00000     -0.000   0.000  -0.000
   16 11 3Pdz2      0.00088   0.00000      0.000  -0.000   0.000
   16 12 3Pdxz      0.00237   0.00000      0.000   0.000  -0.000
   16 13 3Pdx2-y2   0.00610   0.00000      0.000   0.000   0.000
   16     Total     5.56276   0.00000      0.000   0.000  -0.000

   26  1 2s         1.37337   0.00000      0.000  -0.000  -0.000
   26  2 2s         0.12523   0.00000     -0.000   0.000  -0.000
   26  3 2py        1.11269   0.00000     -0.000  -0.000  -0.000
   26  4 2pz        1.53063   0.00000     -0.000   0.000  -0.000
   26  5 2px        0.94639   0.00000     -0.000  -0.000  -0.000
   26  6 2py        0.16924   0.00000      0.000   0.000   0.000
   26  7 2pz        0.00502   0.00000      0.000  -0.000  -0.000
   26  8 2px        0.26511   0.00000      0.000   0.000   0.000
   26  9 3Pdxy      0.00063   0.00000     -0.000  -0.000  -0.000
   26 10 3Pdyz      0.00079   0.00000      0.000  -0.000   0.000
   26 11 3Pdz2     -0.00127   0.00000     -0.000  -0.000   0.000
   26 12 3Pdxz      0.00470   0.00000     -0.000  -0.000   0.000
   26 13 3Pdx2-y2   0.00219   0.00000     -0.000  -0.000   0.000
   26     Total     5.53471   0.00000     -0.000  -0.000  -0.000

----------------------------------------------------------------
Total              49.26861   0.00000     -0.000   0.000  -0.000


Species: Si                  

Atom      Orb        Charge      Spin       Svec
----------------------------------------------------------------
    3  1 3s         0.55112   0.00000     -0.000  -0.000   0.000
    3  2 3s         0.38747   0.00000      0.000  -0.000   0.000
    3  3 3py        0.08177   0.00000      0.000  -0.000   0.000
    3  4 3pz        0.53555   0.00000      0.000   0.000   0.000
    3  5 3px        0.36833   0.00000      0.000   0.000   0.000
    3  6 3py        0.49907   0.00000     -0.000   0.000   0.000
    3  7 3pz        0.17600   0.00000     -0.000  -0.000   0.000
    3  8 3px        0.23722   0.00000     -0.000  -0.000   0.000
    3  9 3Pdxy      0.10813   0.00000      0.000   0.000   0.000
    3 10 3Pdyz      0.05206   0.00000      0.000   0.000   0.000
    3 11 3Pdz2      0.01014   0.00000     -0.000  -0.000   0.000
    3 12 3Pdxz      0.13295   0.00000      0.000  -0.000   0.000
    3 13 3Pdx2-y2   0.32437   0.00000      0.000  -0.000   0.000
    3     Total     3.46419   0.00000      0.000   0.000   0.000

    6  1 3s         0.66172   0.00000     -0.000   0.000   0.000
    6  2 3s         0.37049   0.00000     -0.000  -0.000   0.000
    6  3 3py        0.13107   0.00000     -0.000  -0.000  -0.000
    6  4 3pz        0.69479   0.00000      0.000   0.000   0.000
    6  5 3px        0.49062   0.00000      0.000  -0.000   0.000
    6  6 3py        0.46528   0.00000      0.000   0.000   0.000
    6  7 3pz        0.24293   0.00000     -0.000  -0.000   0.000
    6  8 3px        0.24557   0.00000     -0.000   0.000   0.000
    6  9 3Pdxy      0.18504   0.00000      0.000   0.000   0.000
    6 10 3Pdyz      0.14722   0.00000     -0.000  -0.000  -0.000
    6 11 3Pdz2      0.01170   0.00000     -0.000   0.000   0.000
    6 12 3Pdxz      0.03652   0.00000      0.000   0.000   0.000
    6 13 3Pdx2-y2   0.18876   0.00000     -0.000  -0.000   0.000
    6     Total     3.87171   0.00000      0.000   0.000   0.000

    7  1 3s         0.62633   0.00000     -0.000   0.000   0.000
    7  2 3s         0.36982   0.00000      0.000  -0.000  -0.000
    7  3 3py        0.37259   0.00000     -0.000  -0.000   0.000
    7  4 3pz        0.49269   0.00000      0.000  -0.000  -0.000
    7  5 3px        0.08015   0.00000     -0.000  -0.000  -0.000
    7  6 3py        0.30331   0.00000      0.000   0.000  -0.000
    7  7 3pz        0.20854   0.00000     -0.000   0.000  -0.000
    7  8 3px        0.42169   0.00000      0.000  -0.000   0.000
    7  9 3Pdxy      0.20445   0.00000      0.000   0.000   0.000
    7 10 3Pdyz      0.14274   0.00000     -0.000  -0.000  -0.000
    7 11 3Pdz2      0.01066   0.00000      0.000   0.000  -0.000
    7 12 3Pdxz      0.15019   0.00000      0.000  -0.000   0.000
    7 13 3Pdx2-y2   0.24198   0.00000      0.000   0.000  -0.000
    7     Total     3.62514   0.00000     -0.000  -0.000  -0.000

   12  1 3s         0.52752   0.00000      0.000  -0.000  -0.000
   12  2 3s         0.40211   0.00000     -0.000   0.000  -0.000
   12  3 3py        0.23039   0.00000      0.000  -0.000  -0.000
   12  4 3pz        0.43819   0.00000      0.000  -0.000  -0.000
   12  5 3px        0.29010   0.00000     -0.000  -0.000  -0.000
   12  6 3py        0.39443   0.00000     -0.000   0.000   0.000
   12  7 3pz        0.17060   0.00000     -0.000   0.000  -0.000
   12  8 3px        0.34395   0.00000      0.000   0.000  -0.000
   12  9 3Pdxy      0.38713   0.00000     -0.000   0.000   0.000
   12 10 3Pdyz      0.08022   0.00000     -0.000  -0.000  -0.000
   12 11 3Pdz2      0.01044   0.00000     -0.000   0.000  -0.000
   12 12 3Pdxz      0.09253   0.00000      0.000   0.000  -0.000
   12 13 3Pdx2-y2   0.16490   0.00000      0.000  -0.000  -0.000
   12     Total     3.53252   0.00000     -0.000  -0.000  -0.000

   15  1 3s         0.66095   0.00000      0.000  -0.000   0.000
   15  2 3s         0.36715   0.00000     -0.000   0.000   0.000
   15  3 3py       -0.03278   0.00000     -0.000   0.000   0.000
   15  4 3pz        0.51035   0.00000     -0.000   0.000  -0.000
   15  5 3px        0.38870   0.00000      0.000  -0.000  -0.000
   15  6 3py        0.47455   0.00000     -0.000  -0.000   0.000
   15  7 3pz        0.20034   0.00000      0.000  -0.000   0.000
   15  8 3px        0.34012   0.00000     -0.000   0.000   0.000
   15  9 3Pdxy      0.14149   0.00000     -0.000   0.000   0.000
   15 10 3Pdyz      0.12583   0.00000     -0.000  -0.000   0.000
   15 11 3Pdz2      0.01383   0.00000      0.000   0.000   0.000
   15 12 3Pdxz      0.12452   0.00000     -0.000  -0.000   0.000
   15 13 3Pdx2-y2   0.30182   0.00000     -0.000   0.000   0.000
   15     Total     3.61688   0.00000     -0.000   0.000   0.000

   17  1 3s         0.73195   0.00000      0.000  -0.000   0.000
   17  2 3s         0.35620   0.00000     -0.000   0.000  -0.000
   17  3 3py        0.09610   0.00000      0.000   0.000   0.000
   17  4 3pz        0.62710   0.00000      0.000  -0.000  -0.000
   17  5 3px        0.35555   0.00000     -0.000  -0.000   0.000
   17  6 3py        0.45293   0.00000     -0.000  -0.000   0.000
   17  7 3pz        0.15080   0.00000     -0.000  -0.000   0.000
   17  8 3px        0.33536   0.00000      0.000   0.000   0.000
   17  9 3Pdxy      0.15123   0.00000      0.000  -0.000   0.000
   17 10 3Pdyz      0.02343   0.00000      0.000   0.000  -0.000
   17 11 3Pdz2      0.00919   0.00000     -0.000   0.000  -0.000
   17 12 3Pdxz      0.12869   0.00000      0.000   0.000  -0.000
   17 13 3Pdx2-y2   0.12696   0.00000     -0.000  -0.000  -0.000
   17     Total     3.54549   0.00000      0.000  -0.000   0.000

   19  1 3s         0.86244   0.00000      0.000   0.000   0.000
   19  2 3s         0.31298   0.00000     -0.000  -0.000  -0.000
   19  3 3py        0.44672   0.00000     -0.000  -0.000  -0.000
   19  4 3pz        0.66018   0.00000     -0.000   0.000   0.000
   19  5 3px        0.35326   0.00000     -0.000  -0.000   0.000
   19  6 3py        0.32165   0.00000      0.000   0.000   0.000
   19  7 3pz        0.26797   0.00000      0.000   0.000   0.000
   19  8 3px        0.35633   0.00000      0.000   0.000  -0.000
   19  9 3Pdxy      0.09353   0.00000      0.000   0.000   0.000
   19 10 3Pdyz      0.02942   0.00000      0.000  -0.000   0.000
   19 11 3Pdz2      0.01455   0.00000      0.000  -0.000   0.000
   19 12 3Pdxz      0.05652   0.00000     -0.000  -0.000   0.000
   19 13 3Pdx2-y2   0.13122   0.00000     -0.000   0.000   0.000
   19     Total     3.90677   0.00000     -0.000  -0.000   0.000

   20  1 3s         0.54049   0.00000      0.000  -0.000   0.000
   20  2 3s         0.44401   0.00000     -0.000   0.000  -0.000
   20  3 3py        0.31074   0.00000     -0.000   0.000   0.000
   20  4 3pz        0.25492   0.00000      0.000   0.000   0.000
   20  5 3px        0.45533   0.00000     -0.000   0.000   0.000
   20  6 3py        0.38733   0.00000      0.000   0.000   0.000
   20  7 3pz        0.42305   0.00000     -0.000  -0.000   0.000
   20  8 3px        0.27753   0.00000      0.000  -0.000   0.000
   20  9 3Pdxy      0.06995   0.00000      0.000  -0.000  -0.000
   20 10 3Pdyz      0.08427   0.00000      0.000  -0.000  -0.000
   20 11 3Pdz2      0.05092   0.00000      0.000   0.000  -0.000
   20 12 3Pdxz      0.07242   0.00000      0.000  -0.000   0.000
   20 13 3Pdx2-y2   0.04585   0.00000      0.000  -0.000   0.000
   20     Total     3.41683   0.00000      0.000   0.000   0.000

   24  1 3s         0.60596   0.00000      0.000   0.000   0.000
   24  2 3s         0.36928   0.00000     -0.000  -0.000  -0.000
   24  3 3py        0.27079   0.00000     -0.000   0.000  -0.000
   24  4 3pz        0.41042   0.00000      0.000  -0.000  -0.000
   24  5 3px        0.16834   0.00000      0.000   0.000   0.000
   24  6 3py        0.39806   0.00000      0.000  -0.000   0.000
   24  7 3pz        0.19289   0.00000      0.000  -0.000  -0.000
   24  8 3px        0.36004   0.00000     -0.000  -0.000  -0.000
   24  9 3Pdxy      0.14202   0.00000      0.000   0.000   0.000
   24 10 3Pdyz      0.14022   0.00000      0.000   0.000  -0.000
   24 11 3Pdz2      0.01531   0.00000      0.000  -0.000  -0.000
   24 12 3Pdxz      0.12101   0.00000     -0.000  -0.000   0.000
   24 13 3Pdx2-y2   0.34956   0.00000     -0.000  -0.000   0.000
   24     Total     3.54391   0.00000      0.000  -0.000   0.000

   28  1 3s         0.43414   0.00000      0.000  -0.000   0.000
   28  2 3s         0.37752   0.00000     -0.000   0.000  -0.000
   28  3 3py        0.16171   0.00000     -0.000  -0.000  -0.000
   28  4 3pz        0.39990   0.00000      0.000   0.000   0.000
   28  5 3px        0.16716   0.00000      0.000   0.000   0.000
   28  6 3py        0.36806   0.00000      0.000   0.000   0.000
   28  7 3pz        0.20447   0.00000      0.000   0.000   0.000
   28  8 3px        0.38560   0.00000     -0.000  -0.000   0.000
   28  9 3Pdxy      0.14381   0.00000     -0.000  -0.000   0.000
   28 10 3Pdyz      0.12396   0.00000      0.000   0.000   0.000
   28 11 3Pdz2      0.01561   0.00000      0.000   0.000   0.000
   28 12 3Pdxz      0.15664   0.00000      0.000   0.000   0.000
   28 13 3Pdx2-y2   0.35163   0.00000     -0.000  -0.000   0.000
   28     Total     3.29021   0.00000      0.000   0.000   0.000

----------------------------------------------------------------
Total              85.08225   0.00000      0.000  -0.000  -0.000


Species: O                   

Atom      Orb        Charge      Spin       Svec
----------------------------------------------------------------
   25  1 2s         1.73947   0.00000     -0.000   0.000   0.000
   25  2 2s         0.07064   0.00000      0.000  -0.000  -0.000
   25  3 2py        1.46489   0.00000     -0.000   0.000   0.000
   25  4 2pz        1.50911   0.00000     -0.000   0.000   0.000
   25  5 2px        1.59031   0.00000     -0.000   0.000  -0.000
   25  6 2py        0.03490   0.00000      0.000   0.000   0.000
   25  7 2pz        0.00006   0.00000      0.000  -0.000   0.000
   25  8 2px        0.02321   0.00000     -0.000  -0.000   0.000
   25  9 3Pdxy      0.00725   0.00000      0.000   0.000  -0.000
   25 10 3Pdyz      0.00622   0.00000      0.000  -0.000  -0.000
   25 11 3Pdz2      0.00137   0.00000     -0.000  -0.000  -0.000
   25 12 3Pdxz      0.00443   0.00000      0.000  -0.000  -0.000
   25 13 3Pdx2-y2   0.00745   0.00000     -0.000  -0.000  -0.000
   25     Total     6.45931   0.00000     -0.000   0.000   0.000

   29  1 2s         1.73443   0.00000     -0.000  -0.000  -0.000
   29  2 2s         0.07402   0.00000      0.000   0.000   0.000
   29  3 2py        1.48283   0.00000      0.000   0.000   0.000
   29  4 2pz        1.52833   0.00000     -0.000  -0.000   0.000
   29  5 2px        1.52529   0.00000      0.000  -0.000  -0.000
   29  6 2py        0.04164   0.00000     -0.000  -0.000  -0.000
   29  7 2pz        0.00525   0.00000     -0.000   0.000   0.000
   29  8 2px        0.03810   0.00000      0.000   0.000   0.000
   29  9 3Pdxy      0.00816   0.00000     -0.000  -0.000  -0.000
   29 10 3Pdyz      0.00486   0.00000      0.000  -0.000  -0.000
   29 11 3Pdz2      0.00139   0.00000      0.000   0.000   0.000
   29 12 3Pdxz      0.00626   0.00000     -0.000   0.000  -0.000
   29 13 3Pdx2-y2   0.00787   0.00000     -0.000   0.000   0.000
   29     Total     6.45843   0.00000     -0.000   0.000   0.000

----------------------------------------------------------------
Total              98.00000   0.00000      0.000  -0.000   0.000


siesta: Eigenvalues (eV):
ik =     1
  -22.9385  -22.9385  -22.5384  -22.5384  -21.9788  -21.9788  -21.2592  -21.2592  -21.0837  -21.0837
  -20.8204  -20.8204  -19.4918  -19.4918  -19.3033  -19.3033  -18.6986  -18.6986  -15.3107  -15.3107
  -14.3738  -14.3738  -13.6877  -13.6877  -13.6824  -13.6824  -13.3001  -13.3001  -12.9745  -12.9745
  -12.5660  -12.5660  -12.0787  -12.0787  -12.0289  -12.0289  -11.6043  -11.6043  -11.4996  -11.4996
  -10.9958  -10.9958  -10.7602  -10.7602  -10.2707  -10.2707   -9.8322   -9.8322   -9.5738   -9.5738
   -9.3315   -9.3315   -9.1953   -9.1953   -9.1812   -9.1812   -8.8997   -8.8997   -8.7232   -8.7232
   -8.3989   -8.3989   -8.2511   -8.2511   -8.2065   -8.2065   -8.1278   -8.1278   -8.0001   -8.0001
   -7.9125   -7.9125   -7.4070   -7.4070   -7.4027   -7.4027   -7.3138   -7.3138   -6.8252   -6.8252
   -6.8211   -6.8211   -6.6423   -6.6423   -6.4523   -6.4523   -6.3590   -6.3590   -6.1885   -6.1885
   -5.9433   -5.9433   -5.8153   -5.8153   -5.6203   -5.6203   -4.2969   -4.2969   -3.7247   -3.7247
   -2.8422   -2.8422   -2.4671   -2.4671   -2.2851   -2.2851   -2.1790   -2.1790   -2.1132   -2.1132
   -1.9617   -1.9617   -1.7270   -1.7270   -1.6486   -1.6486   -1.5896   -1.5896   -1.4246   -1.4246
   -1.0924   -1.0924   -0.6924   -0.6924   -0.3936   -0.3936   -0.3025   -0.3025   -0.2396   -0.2396
   -0.2039   -0.2039   -0.0683   -0.0683    0.2677    0.2677    0.4090    0.4090    0.5053    0.5053
    0.5504    0.5504    0.7280    0.7280    1.0640    1.0640    1.2407    1.2407    1.2761    1.2761
    1.3375    1.3375    1.5420    1.5420    1.8630    1.8630    2.0450    2.0450    2.1506    2.1506
    2.5013    2.5013    2.6184    2.6184    2.7556    2.7556    2.8099    2.8099    2.9142    2.9142
    2.9777    2.9777    3.0590    3.0590    3.1035    3.1035    3.1471    3.1471    3.5690    3.5690
    3.7086    3.7086    3.9176    3.9176    4.1254    4.1254    4.2606    4.2606    4.3918    4.3918
    4.5047    4.5047    4.6258    4.6258    4.6562    4.6562    4.7130    4.7130    4.9940    4.9940
    5.0613    5.0613    5.2150    5.2150    5.4179    5.4179    5.5861    5.5861    5.8228    5.8228
    5.8668    5.8668    6.0169    6.0169    6.0688    6.0688    6.2851    6.2851    6.3771    6.3771
    6.5295    6.5295    6.6264    6.6264    6.7922    6.7922    6.9829    6.9829    7.0748    7.0748
    7.1749    7.1749    7.5071    7.5071    7.7158    7.7158    7.7248    7.7248    7.8963    7.8963
    7.9292    7.9292    8.2863    8.2863    8.2941    8.2941    8.3398    8.3398    8.4997    8.4997
    8.5458    8.5458    8.9035    8.9035    8.9185    8.9185    9.3259    9.3259    9.6110    9.6110
    9.6766    9.6766    9.8415    9.8415    9.8925    9.8925    9.9047    9.9047    9.9655    9.9655
   10.0014   10.0014   10.3955   10.3955   10.6485   10.6485   10.9083   10.9083   11.1204   11.1204
   11.3296   11.3296   11.3659   11.3659   11.5128   11.5128   11.7132   11.7132   11.8047   11.8047
   11.8746   11.8746   12.3071   12.3071   12.4114   12.4114   12.6723   12.6723   12.7511   12.7511
   12.9249   12.9249   13.0420   13.0420   13.2425   13.2425   13.2796   13.2796   13.4428   13.4428
   13.6461   13.6461   13.9028   13.9028   14.3590   14.3590   14.5337   14.5337   14.7500   14.7500
   14.7850   14.7850   15.0945   15.0945   15.5554   15.5554   16.0860   16.0860   16.3204   16.3204
   16.3755   16.3755   16.8091   16.8091   16.8832   16.8832   17.2247   17.2247   17.3113   17.3113
   17.8921   17.8921   18.0414   18.0414   18.3593   18.3593   18.5758   18.5758   18.7118   18.7118
   18.7749   18.7749   19.7770   19.7770   19.9644   19.9644   20.3110   20.3110   20.5784   20.5784
   20.9121   20.9121   21.0541   21.0541   21.2880   21.2880   21.4349   21.4349   22.2208   22.2208
   22.4523   22.4523   22.8197   22.8197   22.9695   22.9695   23.0378   23.0378   23.0663   23.0663
   24.2335   24.2335   24.6424   24.6424   25.1091   25.1091   25.5942   25.5942   25.8858   25.8858
   26.1523   26.1523   26.5999   26.5999   27.0454   27.0454   27.9418   27.9418   28.1569   28.1569
   28.4779   28.4779   28.5360   28.5360   29.8534   29.8534   29.9278   29.9278   30.5184   30.5184
   30.7758   30.7758   30.8386   30.8386   31.2992   31.2992   31.4284   31.4284   31.7251   31.7251
   31.7413   31.7413   32.3834   32.3834   32.4148   32.4148   33.4573   33.4573   33.6393   33.6393
   34.0134   34.0134   34.2639   34.2639   34.4913   34.4913   34.9115   34.9115   35.4710   35.4710
   35.8879   35.8879   36.0977   36.0977   36.3923   36.3923   37.1794   37.1794   37.5789   37.5789
   37.6395   37.6395   37.6918   37.6918   38.4918   38.4918   38.8379   38.8379   38.9578   38.9578
   39.8927   39.8927   40.4609   40.4609   40.7293   40.7293   41.3856   41.3856   41.6394   41.6394
   41.7392   41.7392   41.8597   41.8597   42.0542   42.0542   42.9016   42.9016   43.2814   43.2814
   43.8714   43.8714   44.4876   44.4876   44.7436   44.7436   44.9167   44.9167   45.2305   45.2305
   45.2500   45.2500   45.8482   45.8482   46.4557   46.4557   46.5698   46.5698   47.1676   47.1676
   47.6565   47.6565   48.0124   48.0124   48.5964   48.5964   48.8193   48.8193   49.2080   49.2080
   49.8768   49.8768   50.1794   50.1794   50.4333   50.4333   50.6111   50.6111   50.7393   50.7393
   51.9067   51.9067   52.2616   52.2616   53.9911   53.9911   54.0778   54.0778   54.8797   54.8797
   55.1357   55.1357   55.5080   55.5080   56.3306   56.3306   56.4002   56.4002   56.5444   56.5444
   56.8840   56.8840   57.5846   57.5846   58.5709   58.5709   59.0245   59.0245   59.6716   59.6716
   60.2716   60.2716   61.2183   61.2183   61.6168   61.6168   62.2011   62.2011   62.8326   62.8326
   65.6173   65.6173   66.3491   66.3491   67.1106   67.1106   67.2775   67.2775   68.1364   68.1364
   68.8411   68.8411   71.3987   71.3987   73.6363   73.6363   78.7453   78.7453   91.4137   91.4137
   92.4616   92.4616   92.9318   92.9318   95.5774   95.5774   97.6107   97.6107  100.4212  100.4212
  100.6672  100.6672  102.9872  102.9872  113.3696  113.3696  120.3660  120.3660  123.0467  123.0467
  135.6121  135.6121  140.4456  140.4456
siesta: Fermi energy =      -4.010770 eV

siesta: Program's energy decomposition (eV):
siesta: Ebs     =     -1119.935262
siesta: Eions   =      3553.971015
siesta: Ena     =       377.805307
siesta: Ekin    =      2751.403677
siesta: Enl     =     -2532.194426
siesta: Eso     =        -0.004696
siesta: Edftu   =         0.000000
siesta: DEna    =        37.127204
siesta: DUscf   =        14.127600
siesta: DUext   =         0.000000
siesta: Exc     =     -1093.064629
siesta: eta*DQ  =         0.000000
siesta: Emadel  =         0.000000
siesta: Emeta   =         0.000000
siesta: Emolmec =         0.000000
siesta: Ekinion =         0.000000
siesta: Eharris =     -3998.770978
siesta: Etot    =     -3998.770978
siesta: FreeEng =     -3998.770998

siesta: Final energy (eV):
siesta:  Band Struct. =   -1119.935262
siesta:       Kinetic =    2751.403677
siesta:       Hartree =    7037.770069
siesta:       Edftu   =       0.000000
siesta:       Eso     =      -0.004696
siesta:    Ext. field =       0.000000
siesta:   Exch.-corr. =   -1093.064629
siesta:  Ion-electron =  -16528.268625
siesta:       Ion-ion =    3833.393227
siesta:       Ekinion =       0.000000
siesta:         Total =   -3998.770978
siesta:         Fermi =      -4.010770

siesta: Atomic forces (eV/Ang):
siesta:      1   -0.025599    0.033230    0.000002
siesta:      2   -0.004055   -0.039739   -0.000002
siesta:      3   -0.003326    0.040744    0.000004
siesta:      4   -0.056407    0.005169    0.000001
siesta:      5    0.018181   -0.032452   -0.000003
siesta:      6    0.023338    0.004973   -0.000000
siesta:      7   -0.065104    0.106821    0.000005
siesta:      8    0.056312   -0.044495   -0.000020
siesta:      9    0.055119   -0.079722    0.000028
siesta:     10    0.101632    0.100577    0.000004
siesta:     11   -0.038912   -0.035434   -0.000007
siesta:     12    0.041431    0.061894    0.000001
siesta:     13   -0.092194   -0.176836   -0.000000
siesta:     14   -0.006500   -0.050425    0.000000
siesta:     15    0.000506    0.066280   -0.000000
siesta:     16   -0.012111    0.093636    0.008019
siesta:     17   -0.008913   -0.044516   -0.039762
siesta:     18   -0.101982    0.161303    0.008235
siesta:     19    0.005421    0.029725   -0.041191
siesta:     20    0.041645   -0.056377    0.026873
siesta:     21   -0.080278    0.209088    0.067495
siesta:     22    0.097258    0.223252   -0.016610
siesta:     23   -0.012939    0.050008   -0.052286
siesta:     24    0.042926   -0.112640   -0.026642
siesta:     25   -3.395418   -1.166133    0.002995
siesta:     26   -0.029235    0.058380    0.006532
siesta:     27    0.002741   -0.057792    0.002787
siesta:     28    0.000631   -0.112043   -0.000872
siesta:     29    2.954297   -0.875385   -0.001086
siesta:     30    0.013960    0.160369    0.008278
siesta: ----------------------------------------
siesta:    Tot   -0.477573   -1.478538   -0.047221

siesta: Stress tensor (static) (eV/Ang**3):
siesta:    -0.001015    0.000174    0.000029
siesta:     0.000174   -0.000258   -0.000027
siesta:     0.000029   -0.000027   -0.000132

siesta: Cell volume =       4585.551295 Ang**3

siesta: Pressure (static):
siesta:                Solid            Molecule  Units
siesta:           0.00000510         -0.00000666  Ry/Bohr**3
siesta:           0.00046831         -0.00061166  eV/Ang**3
siesta:           0.75032443         -0.97999604  kBar
(Free)E+ p_basis*V_orbitals  =       -3977.642913
(Free)Eharris+ p_basis*V_orbitals  =       -3977.642913
     spin moment: S , {S} =    0.00000   0.00000  -0.00000   0.00000

siesta: Electric dipole (a.u.)  =   -0.318035    2.545420   -0.012952
siesta: Electric dipole (Debye) =   -0.808366    6.469816   -0.032920

cite: Please see "AT.bib" for an exhaustive BiBTeX file.
cite: Please clearly indicate Siesta version in published work: v4.1.5-1-g384057250
cite: This calculation has made use of the following articles
cite: which are encouraged to be cited in a published work.
        Primary SIESTA paper
          DOI: www.doi.org/10.1088/0953-8984/14/11/302
        Spin-orbit coupling (on-site approximation)
          DOI: www.doi.org/10.1088/0953-8984/19/19/489001


WARNING: alloc-realloc-dealloc name mismatch
         Name: atomlist isa
         Size:              -120. Bytes
         Node:     0
         Subsequent mismatches will not be reported
>> End of run:  22-MAY-2023  10:36:51
Job completed
