Siesta Version  : v4.1.5-1-g384057250
Architecture    : gcc
Compiler version: GNU Fortran (Ubuntu 11.4.0-1ubuntu1~22.04) 11.4.0
Compiler flags  : mpifort -O2 -fPIC -ftree-vectorize -fallow-argument-mismatch
PP flags        : -DFC_HAVE_ABORT -DMPI -DSIESTA__FLOOK -DSIESTA__METIS -DSIESTA__MUMPS -DCDF -DNCDF -DNCDF_4 -DNCDF_PARALLEL -DSIESTA__MRRR -DSIESTA__ELPA
Libraries       : libncdf.a libfdict.a  -lflookall -ldl -lnetcdff -lnetcdf -lhdf5_hl -lhdf5 -lhdf5_fortran -lz -lscalapack-openmpi -lopenblas -lmetis -lzmumps -lcmumps -ldmumps -lmumps_common -lpord -lsmumps -lesmumps -lscotch -lscotcherr -fopenmp -lelpa
PARALLEL version
NetCDF support
NetCDF-4 support
NetCDF-4 MPI-IO support
METIS ordering support
Lua support

* Running on 8 nodes in parallel
>> Start of run:   1-FEB-2024  21:55:00

                           ***********************       
                           *  WELCOME TO SIESTA  *       
                           ***********************       

reinit: Reading from standard input
reinit: Dumped input in INPUT_TMP.70669
************************** Dump of input data file ****************************
# mpirun -np 4 siesta-4.1.5 < GC.fdf > GC.out &
SystemLabel      GC
NumberOfAtoms    29
NumberOfSpecies  4
%block ChemicalSpeciesLabel
    1    1  H
    2    7  N
    3   14  Si
    4    8  O
%endblock ChemicalSpeciesLabel
############################################
# This overrides Defaults.fdf configuration
############################################
MD.TypeOfRun                Verlet # CG, Verlet
MD.Steps                    0
MaxSCFIterations            200
SCF.MustConverge            F
AtomicCoordinatesFormat NotScaledCartesianAng
%block AtomicCoordinatesAndAtomicSpecies
    0.4014721027827072 4.53948060239851 0.0  1  1  H
    -0.3050146272172928 3.7494444223985104 0.0  2  2  N
    -2.035301537217293 4.19080833239851 0.0  3  3  Si
    -2.1910812172172927 5.68080059239851 0.0  1  4  H
    -3.558623157217293 2.63190081239851 0.0  3  5  Si
    -5.041810787217293 2.8747311723985103 0.0  1  6  H
    -2.360232297217293 0.71862465239851 0.0  3  7  Si
    -3.1262577572172927 -0.81409208760149 0.0  2  8  N
    -2.536011207217293 -1.7713051176014898 0.0  1  9  H
    -4.177880077217293 -0.8945523176014899 0.0  1  10  H
    -0.6440322372172927 0.7737989623985101 0.0  2  11  N
    0.4309903827827072 2.10413780239851 0.0  3  12  Si
    2.039663702782707 2.08532754239851 0.0  4  13  O
    5.6164483 -7.44953905 0.0  1  14  H
    4.58206954 -7.2320376 0.0  2  15  N
    3.29666389 -8.492636 0.0  3  16  Si
    3.80117524 -9.90371886 -0.0  1  17  H
    1.65934232 -8.01362137 0.0  2  18  N
    1.68097912 -6.20463398 -0.0  3  19  Si
    0.54543521 -4.28636135 0.0  3  20  Si
    -1.03431493 -3.94450034 0.0  4  21  O
    1.73226934 -2.87719605 0.0  2  22  N
    1.20957366 -1.92961761 -0.0  1  23  H
    3.50853448 -2.77677601 0.0  3  24  Si
    4.13684451 -1.17938608 0.0  2  25  N
    3.54296161 -0.26248101 0.0  1  26  H
    5.18364407 -1.05231197 -0.0  1  27  H
    4.63288658 -4.07521596 -0.0  2  28  N
    3.79410501 -5.58634043 0.0  3  29  Si
%endblock AtomicCoordinatesAndAtomicSpecies
#############
# Unit Cell
#############
LatticeConstant 1.0 Ang
%block LatticeVectors
    30.00000    0.000000    0.000000
    0.000000    45.00000    0.000000
    0.000000    0.000000    10.00000
%endblock LatticeVectors
%include ../../../../Defaults.fdf
************************** End of input data file *****************************

reinit: -----------------------------------------------------------------------
reinit: System Name: 
reinit: -----------------------------------------------------------------------
reinit: System Label: GC
reinit: -----------------------------------------------------------------------

initatom: Reading input for the pseudopotentials and atomic orbitals ----------
Species number:   1 Atomic number:    1 Label: H
Species number:   2 Atomic number:    7 Label: N
Species number:   3 Atomic number:   14 Label: Si
Species number:   4 Atomic number:    8 Label: O

Ground state valence configuration:   1s01
Reading pseudopotential information in formatted form from H.psf

Pseudopotential generated from a relativistic atomic calculation

Valence configuration for pseudopotential generation:
1s( 1.00) rc: 0.01
2p( 0.00) rc: 0.60
3d( 0.00) rc: 1.99
4f( 0.00) rc: 2.49
Ground state valence configuration:   2s02  2p03
Reading pseudopotential information in formatted form from N.psf

Pseudopotential generated from a relativistic atomic calculation

Valence configuration for pseudopotential generation:
2s( 2.00) rc: 0.94
2p( 3.00) rc: 0.59
3d( 0.00) rc: 3.46
4f( 0.00) rc: 2.47
Ground state valence configuration:   3s02  3p02
Reading pseudopotential information in formatted form from Si.psf

Pseudopotential generated from a relativistic atomic calculation

Valence configuration for pseudopotential generation:
3s( 2.00) rc: 1.67
3p( 2.00) rc: 2.04
3d( 0.00) rc: 2.89
4f( 0.00) rc: 2.49
Ground state valence configuration:   2s02  2p04
Reading pseudopotential information in formatted form from O.psf

Pseudopotential generated from a relativistic atomic calculation

Valence configuration for pseudopotential generation:
2s( 2.00) rc: 0.45
2p( 4.00) rc: 0.92
3d( 0.00) rc: 2.24
4f( 0.00) rc: 0.25
For H, standard SIESTA heuristics set lmxkb to 2
 (one more than the basis l, including polarization orbitals).
Use PS.lmax or PS.KBprojectors blocks to override.
For N, standard SIESTA heuristics set lmxkb to 3
 (one more than the basis l, including polarization orbitals).
Use PS.lmax or PS.KBprojectors blocks to override.
For Si, standard SIESTA heuristics set lmxkb to 3
 (one more than the basis l, including polarization orbitals).
Use PS.lmax or PS.KBprojectors blocks to override.
For O, standard SIESTA heuristics set lmxkb to 3
 (one more than the basis l, including polarization orbitals).
Use PS.lmax or PS.KBprojectors blocks to override.

<basis_specs>
===============================================================================
H                    Z=   1    Mass=  1.0100        Charge= 0.17977+309
Lmxo=0 Lmxkb= 2    BasisType=split      Semic=F
L=0  Nsemic=0  Cnfigmx=1
          i=1  nzeta=2  polorb=1  (1s)
            splnorm:   0.62000    
               vcte:    0.0000    
               rinn:    0.0000    
               qcoe:    0.0000    
               qyuk:    0.0000    
               qwid:   0.10000E-01
                rcs:    0.0000      0.0000    
            lambdas:    1.0000      1.0000    
-------------------------------------------------------------------------------
L=0  Nkbl=1  erefs: 0.17977+309
L=1  Nkbl=1  erefs: 0.17977+309
L=2  Nkbl=1  erefs: 0.17977+309
===============================================================================
</basis_specs>

atom: Called for H                     (Z =   1)

read_vps: Pseudopotential generation method:
read_vps: ATM4.2.7  Troullier-Martins                       
Valence charge for ps generation:    1.00000

xc_check: Exchange-correlation functional:
xc_check: GGA Perdew, Burke & Ernzerhof 1996
V l=0 = -2*Zval/r beyond r=  0.0098
V l=1 = -2*Zval/r beyond r=  0.5817
V l=2 = -2*Zval/r beyond r=  1.9372
All V_l potentials equal beyond r=  1.9372
This should be close to max(r_c) in ps generation
All pots = -2*Zval/r beyond r=  1.9372

VLOCAL1: 99.0% of the norm of Vloc inside     11.567 Ry
VLOCAL1: 99.9% of the norm of Vloc inside     26.362 Ry
atom: Maximum radius for 4*pi*r*r*local-pseudopot. charge    2.25106
atom: Maximum radius for r*vlocal+2*Zval:    1.91306
GHOST: No ghost state for L =  0
GHOST: No ghost state for L =  1
GHOST: No ghost state for L =  2

KBgen: Kleinman-Bylander projectors: 
   l= 0   rc=  2.036604   el= -0.477180   Ekb= -6.081590   kbcos= -0.277285
   l= 1   rc=  2.195416   el=  0.001076   Ekb= -0.926943   kbcos= -0.034643
   l= 2   rc=  2.251056   el=  0.002010   Ekb= -0.130941   kbcos= -0.009788

KBgen: Total number of Kleinman-Bylander projectors:    9
atom: -------------------------------------------------------------------------

atom: SANKEY-TYPE ORBITALS:
atom: Selected multiple-zeta basis: split     

SPLIT: Orbitals with angular momentum L= 0

SPLIT: Basis orbitals for state 1s

SPLIT: PAO cut-off radius determined from an
SPLIT: energy shift=  0.002000 Ry

   izeta = 1
                 lambda =    1.000000
                     rc =    6.518340
                 energy =   -0.475305
                kinetic =    0.912139
    potential(screened) =   -1.387444
       potential(ionic) =   -1.907295

   izeta = 2
                 rmatch =    2.141150
              splitnorm =    0.620000
                 energy =    0.566467
                kinetic =    3.772856
    potential(screened) =   -3.206389
       potential(ionic) =   -3.759093

POLgen: Perturbative polarization orbital with L=  1

POLgen: Polarization orbital for state 1s

   izeta = 1
                     rc =    6.518340
                 energy =    0.533861
                kinetic =    1.121086
    potential(screened) =   -0.587225
       potential(ionic) =   -1.053027
atom: Total number of Sankey-type orbitals:  5

atm_pop: Valence configuration (for local Pseudopot. screening):
 1s( 1.00)                                                            
Vna: chval, zval:    1.00000   1.00000

Vna:  Cut-off radius for the neutral-atom potential:   6.518340

atom: _________________________________________________________________________

<basis_specs>
===============================================================================
N                    Z=   7    Mass=  14.010        Charge= 0.17977+309
Lmxo=1 Lmxkb= 3    BasisType=split      Semic=F
L=0  Nsemic=0  Cnfigmx=2
          i=1  nzeta=2  polorb=0  (2s)
            splnorm:   0.28000    
               vcte:    0.0000    
               rinn:    0.0000    
               qcoe:    0.0000    
               qyuk:    0.0000    
               qwid:   0.10000E-01
                rcs:    0.0000      0.0000    
            lambdas:    1.0000      1.0000    
L=1  Nsemic=0  Cnfigmx=2
          i=1  nzeta=2  polorb=1  (2p)
            splnorm:   0.28000    
               vcte:    0.0000    
               rinn:    0.0000    
               qcoe:    0.0000    
               qyuk:    0.0000    
               qwid:   0.10000E-01
                rcs:    0.0000      0.0000    
            lambdas:    1.0000      1.0000    
-------------------------------------------------------------------------------
L=0  Nkbl=1  erefs: 0.17977+309
L=1  Nkbl=1  erefs: 0.17977+309
L=2  Nkbl=1  erefs: 0.17977+309
L=3  Nkbl=1  erefs: 0.17977+309
===============================================================================
</basis_specs>

atom: Called for N                     (Z =   7)

read_vps: Pseudopotential generation method:
read_vps: ATM4.2.7  Troullier-Martins                       
Valence charge for ps generation:    5.00000

xc_check: Exchange-correlation functional:
xc_check: GGA Perdew, Burke & Ernzerhof 1996
V l=0 = -2*Zval/r beyond r=  1.2889
V l=1 = -2*Zval/r beyond r=  1.2889
V l=2 = -2*Zval/r beyond r=  3.4178
V l=3 = -2*Zval/r beyond r=  2.4084
All V_l potentials equal beyond r=  3.3753
This should be close to max(r_c) in ps generation
All pots = -2*Zval/r beyond r=  3.4178

VLOCAL1: 99.0% of the norm of Vloc inside      3.810 Ry
VLOCAL1: 99.9% of the norm of Vloc inside      8.683 Ry
atom: Maximum radius for 4*pi*r*r*local-pseudopot. charge    4.02088
atom: Maximum radius for r*vlocal+2*Zval:    3.54838
GHOST: No ghost state for L =  0
GHOST: No ghost state for L =  1
GHOST: No ghost state for L =  2
GHOST: No ghost state for L =  3

KBgen: Kleinman-Bylander projectors: 
   l= 0   rc=  3.417763   el= -1.365098   Ekb= -4.433130   kbcos= -0.707855
   l= 1   rc=  3.375302   el= -0.521201   Ekb=-13.264039   kbcos= -0.535594
   l= 2   rc=  3.872880   el=  0.001991   Ekb= -0.641094   kbcos= -0.062456
   l= 3   rc=  3.970931   el=  0.003093   Ekb= -0.474517   kbcos= -0.018236

KBgen: Total number of Kleinman-Bylander projectors:   16
atom: -------------------------------------------------------------------------

atom: SANKEY-TYPE ORBITALS:
atom: Selected multiple-zeta basis: split     

SPLIT: Orbitals with angular momentum L= 0

SPLIT: Basis orbitals for state 2s

SPLIT: PAO cut-off radius determined from an
SPLIT: energy shift=  0.002000 Ry

   izeta = 1
                 lambda =    1.000000
                     rc =    4.730425
                 energy =   -1.363399
                kinetic =    1.245246
    potential(screened) =   -2.608645
       potential(ionic) =   -8.121105

   izeta = 2
                 rmatch =    2.531849
              splitnorm =    0.280000
                 energy =   -0.959908
                kinetic =    2.409435
    potential(screened) =   -3.369343
       potential(ionic) =   -9.427975

SPLIT: Orbitals with angular momentum L= 1

SPLIT: Basis orbitals for state 2p

SPLIT: PAO cut-off radius determined from an
SPLIT: energy shift=  0.002000 Ry

   izeta = 1
                 lambda =    1.000000
                     rc =    5.924108
                 energy =   -0.519262
                kinetic =    3.672940
    potential(screened) =   -4.192202
       potential(ionic) =   -9.518354

   izeta = 2
                 rmatch =    2.531849
              splitnorm =    0.280000
                 energy =   -0.104258
                kinetic =    6.807538
    potential(screened) =   -6.911796
       potential(ionic) =  -13.149920

POLgen: Perturbative polarization orbital with L=  2

POLgen: Polarization orbital for state 2p

   izeta = 1
                     rc =    5.924108
                 energy =    1.427508
                kinetic =    2.872379
    potential(screened) =   -1.444871
       potential(ionic) =   -5.563644
atom: Total number of Sankey-type orbitals: 13

atm_pop: Valence configuration (for local Pseudopot. screening):
 2s( 2.00)                                                            
 2p( 3.00)                                                            
Vna: chval, zval:    5.00000   5.00000

Vna:  Cut-off radius for the neutral-atom potential:   5.924108

atom: _________________________________________________________________________

<basis_specs>
===============================================================================
Si                   Z=  14    Mass=  28.090        Charge= 0.17977+309
Lmxo=1 Lmxkb= 3    BasisType=split      Semic=F
L=0  Nsemic=0  Cnfigmx=3
          i=1  nzeta=2  polorb=0  (3s)
            splnorm:   0.28000    
               vcte:    0.0000    
               rinn:    0.0000    
               qcoe:    0.0000    
               qyuk:    0.0000    
               qwid:   0.10000E-01
                rcs:    0.0000      0.0000    
            lambdas:    1.0000      1.0000    
L=1  Nsemic=0  Cnfigmx=3
          i=1  nzeta=2  polorb=1  (3p)
            splnorm:   0.28000    
               vcte:    0.0000    
               rinn:    0.0000    
               qcoe:    0.0000    
               qyuk:    0.0000    
               qwid:   0.10000E-01
                rcs:    0.0000      0.0000    
            lambdas:    1.0000      1.0000    
-------------------------------------------------------------------------------
L=0  Nkbl=1  erefs: 0.17977+309
L=1  Nkbl=1  erefs: 0.17977+309
L=2  Nkbl=1  erefs: 0.17977+309
L=3  Nkbl=1  erefs: 0.17977+309
===============================================================================
</basis_specs>

atom: Called for Si                    (Z =  14)

read_vps: Pseudopotential generation method:
read_vps: ATM4.2.7  Troullier-Martins                       
Valence charge for ps generation:    4.00000

xc_check: Exchange-correlation functional:
xc_check: GGA Perdew, Burke & Ernzerhof 1996
V l=0 = -2*Zval/r beyond r=  2.7826
V l=1 = -2*Zval/r beyond r=  2.7826
V l=2 = -2*Zval/r beyond r=  2.9253
V l=3 = -2*Zval/r beyond r=  2.7826
All V_l potentials equal beyond r=  2.8530
This should be close to max(r_c) in ps generation
All pots = -2*Zval/r beyond r=  2.9253

VLOCAL1: 99.0% of the norm of Vloc inside      5.333 Ry
VLOCAL1: 99.9% of the norm of Vloc inside     12.154 Ry
atom: Maximum radius for 4*pi*r*r*local-pseudopot. charge    3.39869
atom: Maximum radius for r*vlocal+2*Zval:    2.96205
GHOST: No ghost state for L =  0
GHOST: No ghost state for L =  1
GHOST: No ghost state for L =  2
GHOST: No ghost state for L =  3

KBgen: Kleinman-Bylander projectors: 
   l= 0   rc=  3.075247   el= -0.794092   Ekb=  5.879390   kbcos=  0.167461
   l= 1   rc=  3.153101   el= -0.300068   Ekb=  2.642817   kbcos=  0.058301
   l= 2   rc=  3.273594   el=  0.001958   Ekb= -1.185135   kbcos= -0.104411
   l= 3   rc=  3.232927   el=  0.003046   Ekb= -0.497174   kbcos= -0.015889

KBgen: Total number of Kleinman-Bylander projectors:   16
atom: -------------------------------------------------------------------------

atom: SANKEY-TYPE ORBITALS:
atom: Selected multiple-zeta basis: split     

SPLIT: Orbitals with angular momentum L= 0

SPLIT: Basis orbitals for state 3s

SPLIT: PAO cut-off radius determined from an
SPLIT: energy shift=  0.002000 Ry

   izeta = 1
                 lambda =    1.000000
                     rc =    6.429618
                 energy =   -0.792283
                kinetic =    0.525293
    potential(screened) =   -1.317576
       potential(ionic) =   -3.744923

   izeta = 2
                 rmatch =    3.998416
              splitnorm =    0.280000
                 energy =   -0.583081
                kinetic =    1.069570
    potential(screened) =   -1.652651
       potential(ionic) =   -4.235185

SPLIT: Orbitals with angular momentum L= 1

SPLIT: Basis orbitals for state 3p

SPLIT: PAO cut-off radius determined from an
SPLIT: energy shift=  0.002000 Ry

   izeta = 1
                 lambda =    1.000000
                     rc =    8.464845
                 energy =   -0.298236
                kinetic =    0.785360
    potential(screened) =   -1.083596
       potential(ionic) =   -3.273779

   izeta = 2
                 rmatch =    4.587816
              splitnorm =    0.280000
                 energy =   -0.131871
                kinetic =    1.403687
    potential(screened) =   -1.535557
       potential(ionic) =   -4.015310

POLgen: Perturbative polarization orbital with L=  2

POLgen: Polarization orbital for state 3p

   izeta = 1
                     rc =    8.464845
                 energy =    0.321949
                kinetic =    1.055677
    potential(screened) =   -0.733728
       potential(ionic) =   -2.672950
atom: Total number of Sankey-type orbitals: 13

atm_pop: Valence configuration (for local Pseudopot. screening):
 3s( 2.00)                                                            
 3p( 2.00)                                                            
Vna: chval, zval:    4.00000   4.00000

Vna:  Cut-off radius for the neutral-atom potential:   8.464845

atom: _________________________________________________________________________

<basis_specs>
===============================================================================
O                    Z=   8    Mass=  16.000        Charge= 0.17977+309
Lmxo=1 Lmxkb= 3    BasisType=split      Semic=F
L=0  Nsemic=0  Cnfigmx=2
          i=1  nzeta=2  polorb=0  (2s)
            splnorm:   0.28000    
               vcte:    0.0000    
               rinn:    0.0000    
               qcoe:    0.0000    
               qyuk:    0.0000    
               qwid:   0.10000E-01
                rcs:    0.0000      0.0000    
            lambdas:    1.0000      1.0000    
L=1  Nsemic=0  Cnfigmx=2
          i=1  nzeta=2  polorb=1  (2p)
            splnorm:   0.28000    
               vcte:    0.0000    
               rinn:    0.0000    
               qcoe:    0.0000    
               qyuk:    0.0000    
               qwid:   0.10000E-01
                rcs:    0.0000      0.0000    
            lambdas:    1.0000      1.0000    
-------------------------------------------------------------------------------
L=0  Nkbl=1  erefs: 0.17977+309
L=1  Nkbl=1  erefs: 0.17977+309
L=2  Nkbl=1  erefs: 0.17977+309
L=3  Nkbl=1  erefs: 0.17977+309
===============================================================================
</basis_specs>

atom: Called for O                     (Z =   8)

read_vps: Pseudopotential generation method:
read_vps: ATM4.2.7  Troullier-Martins                       
Valence charge for ps generation:    6.00000

xc_check: Exchange-correlation functional:
xc_check: GGA Perdew, Burke & Ernzerhof 1996
V l=0 = -2*Zval/r beyond r=  1.1000
V l=1 = -2*Zval/r beyond r=  1.1000
V l=2 = -2*Zval/r beyond r=  2.2154
V l=3 = -2*Zval/r beyond r=  1.1000
All V_l potentials equal beyond r=  2.2154
This should be close to max(r_c) in ps generation
All pots = -2*Zval/r beyond r=  2.2154

VLOCAL1: 99.0% of the norm of Vloc inside      8.845 Ry
VLOCAL1: 99.9% of the norm of Vloc inside     20.157 Ry
atom: Maximum radius for 4*pi*r*r*local-pseudopot. charge    2.67231
atom: Maximum radius for r*vlocal+2*Zval:    2.32897
GHOST: No ghost state for L =  0
GHOST: No ghost state for L =  1
GHOST: No ghost state for L =  2
GHOST: No ghost state for L =  3

KBgen: Kleinman-Bylander projectors: 
   l= 0   rc=  2.243238   el= -1.759686   Ekb=**********   kbcos= -0.171774
   l= 1   rc=  2.328968   el= -0.663873   Ekb=-14.506792   kbcos= -0.519897
   l= 2   rc=  2.573941   el=  0.002031   Ekb= -1.137373   kbcos= -0.019581
   l= 3   rc=  2.606321   el=  0.003153   Ekb= -1.013546   kbcos= -0.003122

KBgen: Total number of Kleinman-Bylander projectors:   16
atom: -------------------------------------------------------------------------

atom: SANKEY-TYPE ORBITALS:
atom: Selected multiple-zeta basis: split     

SPLIT: Orbitals with angular momentum L= 0

SPLIT: Basis orbitals for state 2s

SPLIT: PAO cut-off radius determined from an
SPLIT: energy shift=  0.002000 Ry

   izeta = 1
                 lambda =    1.000000
                     rc =    4.243912
                 energy =   -1.758270
                kinetic =    3.286084
    potential(screened) =   -5.044353
       potential(ionic) =  -12.921184

   izeta = 2
                 rmatch =    2.187845
              splitnorm =    0.280000
                 energy =   -0.885018
                kinetic =    8.134434
    potential(screened) =   -9.019452
       potential(ionic) =  -17.710645

SPLIT: Orbitals with angular momentum L= 1

SPLIT: Basis orbitals for state 2p

SPLIT: PAO cut-off radius determined from an
SPLIT: energy shift=  0.002000 Ry

   izeta = 1
                 lambda =    1.000000
                     rc =    5.314825
                 energy =   -0.661986
                kinetic =    4.917472
    potential(screened) =   -5.579458
       potential(ionic) =  -13.236259

   izeta = 2
                 rmatch =    2.160663
              splitnorm =    0.280000
                 energy =   -0.068760
                kinetic =    9.183374
    potential(screened) =   -9.252135
       potential(ionic) =  -18.274251

POLgen: Perturbative polarization orbital with L=  2

POLgen: Polarization orbital for state 2p

   izeta = 1
                     rc =    5.314825
                 energy =    1.970580
                kinetic =    3.886128
    potential(screened) =   -1.915547
       potential(ionic) =   -7.749584
atom: Total number of Sankey-type orbitals: 13

atm_pop: Valence configuration (for local Pseudopot. screening):
 2s( 2.00)                                                            
 2p( 4.00)                                                            
Vna: chval, zval:    6.00000   6.00000

Vna:  Cut-off radius for the neutral-atom potential:   5.314825

atom: _________________________________________________________________________

prinput: Basis input ----------------------------------------------------------

PAO.BasisType split     

%block ChemicalSpeciesLabel
    1    1 H                       # Species index, atomic number, species label
    2    7 N                       # Species index, atomic number, species label
    3   14 Si                      # Species index, atomic number, species label
    4    8 O                       # Species index, atomic number, species label
%endblock ChemicalSpeciesLabel

%block PAO.Basis                 # Define Basis set
H                     1                    # Species label, number of l-shells
 n=1   0   2 P   1                   # n, l, Nzeta, Polarization, NzetaPol
   6.518      2.141   
   1.000      1.000   
N                     2                    # Species label, number of l-shells
 n=2   0   2                         # n, l, Nzeta 
   4.730      2.532   
   1.000      1.000   
 n=2   1   2 P   1                   # n, l, Nzeta, Polarization, NzetaPol
   5.924      2.532   
   1.000      1.000   
Si                    2                    # Species label, number of l-shells
 n=3   0   2                         # n, l, Nzeta 
   6.430      3.998   
   1.000      1.000   
 n=3   1   2 P   1                   # n, l, Nzeta, Polarization, NzetaPol
   8.465      4.588   
   1.000      1.000   
O                     2                    # Species label, number of l-shells
 n=2   0   2                         # n, l, Nzeta 
   4.244      2.188   
   1.000      1.000   
 n=2   1   2 P   1                   # n, l, Nzeta, Polarization, NzetaPol
   5.315      2.161   
   1.000      1.000   
%endblock PAO.Basis

prinput: ----------------------------------------------------------------------

Dumping basis to NetCDF file H.ion.nc
Dumping basis to NetCDF file N.ion.nc
Dumping basis to NetCDF file Si.ion.nc
Dumping basis to NetCDF file O.ion.nc
coor:   Atomic-coordinates input format  =     Cartesian coordinates
coor:                                          (in Angstroms)

siesta: Atomic coordinates (Bohr) and species
siesta:      0.75867   8.57838   0.00000  1        1
siesta:     -0.57639   7.08543   0.00000  2        2
siesta:     -3.84616   7.91948   0.00000  3        3
siesta:     -4.14055  10.73516   0.00000  1        4
siesta:     -6.72483   4.97357   0.00000  3        5
siesta:     -9.52765   5.43246   0.00000  1        6
siesta:     -4.46019   1.35800   0.00000  3        7
siesta:     -5.90777  -1.53841   0.00000  2        8
siesta:     -4.79237  -3.34728   0.00000  1        9
siesta:     -7.89505  -1.69046   0.00000  1       10
siesta:     -1.21705   1.46227   0.00000  2       11
siesta:      0.81445   3.97625   0.00000  3       12
siesta:      3.85441   3.94070   0.00000  4       13
siesta:     10.61355 -14.07759   0.00000  1       14
siesta:      8.65886 -13.66658   0.00000  2       15
siesta:      6.22979 -16.04876   0.00000  3       16
siesta:      7.18318 -18.71532  -0.00000  1       17
siesta:      3.13570 -15.14356   0.00000  2       18
siesta:      3.17659 -11.72506  -0.00000  3       19
siesta:      1.03072  -8.10005   0.00000  3       20
siesta:     -1.95457  -7.45403   0.00000  4       21
siesta:      3.27352  -5.43711   0.00000  2       22
siesta:      2.28576  -3.64645  -0.00000  1       23
siesta:      6.63017  -5.24735   0.00000  3       24
siesta:      7.81751  -2.22872   0.00000  2       25
siesta:      6.69523  -0.49602   0.00000  1       26
siesta:      9.79567  -1.98858  -0.00000  1       27
siesta:      8.75489  -7.70105  -0.00000  2       28
siesta:      7.16982 -10.55666   0.00000  3       29

siesta: System type = molecule  

initatomlists: Number of atoms, orbitals, and projectors:     29   297   394

siesta: ******************** Simulation parameters ****************************
siesta:
siesta: The following are some of the parameters of the simulation.
siesta: A complete list of the parameters used, including default values,
siesta: can be found in file out.fdf
siesta:
redata: Spin configuration                          = spin-orbit
redata: Number of spin components                   = 8
redata: Time-Reversal Symmetry                      = F
redata: Spin spiral                                 = F
############################################################
This spin-orbit implementation uses a local approximation.
From 4.2 and onwards the full non-local approximation is implemented
You are strongly advised to use >=4.2 versions!
############################################################
redata: Long output                                 =   F
redata: Number of Atomic Species                    =        4
redata: Charge density info will appear in .RHO file
redata: Write Mulliken Pop.                         = NO
redata: Matel table size (NRTAB)                    =     1024
redata: Mesh Cutoff                                 =   340.0000 Ry
redata: Net charge of the system                    =     0.0000 |e|
redata: Min. number of SCF Iter                     =        1
redata: Max. number of SCF Iter                     =      200
redata: SCF mix quantity                            = Hamiltonian
redata: Mix DM or H after convergence               =   F
redata: Recompute H after scf cycle                 =   F
redata: Mix DM in first SCF step                    =   T
redata: Write Pulay info on disk                    =   F
redata: New DM Occupancy tolerance                  = 0.000000000001
redata: No kicks to SCF
redata: DM Mixing Weight for Kicks                  =     0.5000
redata: Require Harris convergence for SCF          =   F
redata: Harris energy tolerance for SCF             =     0.000100 eV
redata: Require DM convergence for SCF              =   T
redata: DM tolerance for SCF                        =     0.000008
redata: Require EDM convergence for SCF             =   F
redata: EDM tolerance for SCF                       =     0.001000 eV
redata: Require H convergence for SCF               =   T
redata: Hamiltonian tolerance for SCF               =     0.000001 eV
redata: Require (free) Energy convergence for SCF   =   F
redata: (free) Energy tolerance for SCF             =     0.000100 eV
redata: Using Saved Data (generic)                  =   F
redata: Use continuation files for DM               =   T
redata: Neglect nonoverlap interactions             =   F
redata: Method of Calculation                       = Diagonalization
redata: Electronic Temperature                      =   299.9978 K
redata: Fix the spin of the system                  =   F
redata: Dynamics option                             = Verlet MD run
redata: Initial MD time step                        =        1
redata:   Final MD time step                        =        1
redata: Length of MD time step                      =     0.5000 fs
redata: Initial Temperature of MD run               =     0.0000 K
redata: Perform a MD quench                         =   F
mix.SCF: Pulay mixing                            = Pulay
mix.SCF:    Variant                              = stable
mix.SCF:    History steps                        = 6
mix.SCF:    Linear mixing weight                 =     0.250000
mix.SCF:    Mixing weight                        =     0.250000
mix.SCF:    SVD condition                        = 0.1000E-07
mix.SCF:    Restart steps                        = 24
mix.SCF:    Restart save steps                   = 3
mix.SCF: Spin-component mixing                   all
redata: Save all siesta data in one NC              =   F
redata: ***********************************************************************

%block SCF.Mixers
  Pulay
%endblock SCF.Mixers

%block SCF.Mixer.Pulay
  # Mixing method
  method pulay
  variant stable

  # Mixing options
  weight 0.2500
  weight.linear 0.2500
  history 6
  restart 24
  restart.save 3
%endblock SCF.Mixer.Pulay

Size of DM history Fstack: 3
Total number of electrons:    98.000000
Total ionic charge:    98.000000

* ProcessorY, Blocksize:    2  24


* Orbital distribution balance (max,min):    48    24


Time-reversal symmetry not used.

siesta: k-grid: Number of k-points =     1
siesta: k-grid: Cutoff (effective) =     5.000 Ang
siesta: k-grid: Supercell and displacements
siesta: k-grid:    1   0   0      0.000
siesta: k-grid:    0   1   0      0.000
siesta: k-grid:    0   0   1      0.000

diag: Algorithm                                     = ELPA-1stage
diag: Parallel over k                               =   F
diag: Use parallel 2D distribution                  =   T
diag: Parallel block-size                           = 24
diag: Parallel distribution                         =     2 x     4
diag: Used triangular part                          = Lower
diag: Absolute tolerance                            =  0.100E-15
diag: Orthogonalization factor                      =  0.100E-05
diag: Memory factor                                 =  1.0000


ts: **************************************************************
ts: Save H and S matrices                           =    F
ts: Save DM and EDM matrices                        =    F
ts: Only save the overlap matrix S                  =    F
ts: **************************************************************

************************ Begin: TS CHECKS AND WARNINGS ************************
************************ End: TS CHECKS AND WARNINGS **************************


                     ====================================
                        Begin MD step =      1
                     ====================================

outcoor: Atomic coordinates (Ang):                          
    0.40147210    4.53948060    0.00000000   1       1  H
   -0.30501463    3.74944442    0.00000000   2       2  N
   -2.03530154    4.19080833    0.00000000   3       3  Si
   -2.19108122    5.68080059    0.00000000   1       4  H
   -3.55862316    2.63190081    0.00000000   3       5  Si
   -5.04181079    2.87473117    0.00000000   1       6  H
   -2.36023230    0.71862465    0.00000000   3       7  Si
   -3.12625776   -0.81409209    0.00000000   2       8  N
   -2.53601121   -1.77130512    0.00000000   1       9  H
   -4.17788008   -0.89455232    0.00000000   1      10  H
   -0.64403224    0.77379896    0.00000000   2      11  N
    0.43099038    2.10413780    0.00000000   3      12  Si
    2.03966370    2.08532754    0.00000000   4      13  O
    5.61644830   -7.44953905    0.00000000   1      14  H
    4.58206954   -7.23203760    0.00000000   2      15  N
    3.29666389   -8.49263600    0.00000000   3      16  Si
    3.80117524   -9.90371886    0.00000000   1      17  H
    1.65934232   -8.01362137    0.00000000   2      18  N
    1.68097912   -6.20463398    0.00000000   3      19  Si
    0.54543521   -4.28636135    0.00000000   3      20  Si
   -1.03431493   -3.94450034    0.00000000   4      21  O
    1.73226934   -2.87719605    0.00000000   2      22  N
    1.20957366   -1.92961761    0.00000000   1      23  H
    3.50853448   -2.77677601    0.00000000   3      24  Si
    4.13684451   -1.17938608    0.00000000   2      25  N
    3.54296161   -0.26248101    0.00000000   1      26  H
    5.18364407   -1.05231197    0.00000000   1      27  H
    4.63288658   -4.07521596    0.00000000   2      28  N
    3.79410501   -5.58634043    0.00000000   3      29  Si

outcell: Unit cell vectors (Ang):
       30.000000    0.000000    0.000000
        0.000000   45.000000    0.000000
        0.000000    0.000000   10.000000

outcell: Cell vector modules (Ang)   :   30.000000   45.000000   10.000000
outcell: Cell angles (23,13,12) (deg):     90.0000     90.0000     90.0000
outcell: Cell volume (Ang**3)        :  13500.0000
<dSpData1D:S at geom step 1
  <sparsity:sparsity for geom step 1
    nrows_g=297 nrows=48 sparsity=.1201 nnzs=10595, refcount: 8>
  <dData1D:(new from dSpData1D) n=10595, refcount: 1>
refcount: 1>
new_DM -- step:     1
Initializing Density Matrix...

Attempting to read DM from file... Failed...
DM filled with atomic data:
<dSpData2D:DM initialized from atoms
  <sparsity:sparsity for geom step 1
    nrows_g=297 nrows=48 sparsity=.1201 nnzs=10595, refcount: 9>
  <dData2D:DM n=10595 m=8, refcount: 1>
refcount: 1>
     spin moment: S , {S} =   56.00000   0.00000   0.00000  56.00000
No. of atoms with KB's overlaping orbs in proc 0. Max # of overlaps:      27     176

Initializing spin-orbit part of the Hamiltonian
  Adding spin-orbit effects for H 
  Adding spin-orbit effects for N 
  Adding spin-orbit effects for Si
  Adding spin-orbit effects for O 


New grid distribution:   1
           1       1:  180    1:  125    1:   15
           2       1:  180    1:  125   16:   30
           3       1:  180    1:  125   31:   45
           4       1:  180    1:  125   46:   60
           5       1:  180  126:  250    1:   15
           6       1:  180  126:  250   16:   30
           7       1:  180  126:  250   31:   45
           8       1:  180  126:  250   46:   60

InitMesh: MESH =   360 x   500 x   120 =    21600000
InitMesh: (bp) =   180 x   250 x    60 =     2700000
InitMesh: Mesh cutoff (required, used) =   340.000   341.206 Ry
ExtMesh (bp) on 0 =   288 x   225 x   123 =     7970400
New grid distribution:   2
           1       1:  141    1:  196    1:   60
           2      23:  180  234:  250    1:   60
           3     142:  180    1:   15    1:   60
           4       1:   22  214:  230    1:   60
           5     142:  180   16:  213    1:   60
           6      23:  180  214:  233    1:   60
           7       1:  141  197:  213    1:   60
           8       1:   22  231:  250    1:   60
New grid distribution:   3
           1       1:  136   28:  199    1:   60
           2       1:  136    1:   27    1:   60
           3     137:  180    1:   21    1:   60
           4       1:   34  200:  224    1:   60
           5     137:  180   22:  199    1:   60
           6      35:  180  200:  231    1:   60
           7      35:  180  232:  250    1:   60
           8       1:   34  225:  250    1:   60
Setting up quadratic distribution...
ExtMesh (bp) on 0 =   249 x   296 x   168 =    12382272
PhiOnMesh: Number of (b)points on node 0 =              1658160
PhiOnMesh: nlist on node 0 =              1662519

stepf: Fermi-Dirac step function

siesta: Program's energy decomposition (eV):
siesta: Ebs     =      -590.221937
siesta: Eions   =      3585.165840
siesta: Ena     =       381.790943
siesta: Ekin    =      3364.393187
siesta: Enl     =     -3293.304703
siesta: Eso     =        -0.003422
siesta: Edftu   =         0.000000
siesta: DEna    =       153.097362
siesta: DUscf   =        79.853787
siesta: DUext   =         0.000000
siesta: Exc     =     -1203.016580
siesta: eta*DQ  =         0.000000
siesta: Emadel  =         0.000000
siesta: Emeta   =         0.000000
siesta: Emolmec =         0.000000
siesta: Ekinion =         0.000000
siesta: Eharris =     -4026.113402
siesta: Etot    =     -4102.355266
siesta: FreeEng =     -4102.356284

        iscf     Eharris(eV)        E_KS(eV)     FreeEng(eV)     dDmax    Ef(eV) dHmax(eV)
   scf:    1    -4026.113402    -4102.355266    -4102.356284  0.963227 -4.904197 21.727324
     spin moment: S , {S} =    2.00572   0.00000  -0.00000   2.00572
timer: Routine,Calls,Time,% = IterSCF        1      10.899  29.78
   scf:    2    -4147.383822    -4136.934756    -4136.935764  0.460121 -4.138267 11.778264
     spin moment: S , {S} =    1.99502  -0.00000  -0.00000   1.99502
   scf:    3    -4107.171937    -4134.033470    -4134.048180  0.432744 -4.300564 12.451451
     spin moment: S , {S} =    2.01218   0.00000   0.00000   2.01218
   scf:    4    -4150.570523    -4145.679008    -4145.679008  0.316011 -3.821223  6.232483
     spin moment: S , {S} =    0.00009   0.00000   0.00000   0.00009
   scf:    5    -4146.880215    -4146.372554    -4146.372554  0.037170 -3.584723  4.281716
     spin moment: S , {S} =    0.00006   0.00000   0.00000   0.00006
   scf:    6    -4147.102165    -4146.743346    -4146.743346  0.023831 -3.544070  2.177013
     spin moment: S , {S} =    0.00003   0.00000   0.00000   0.00003
   scf:    7    -4147.089803    -4146.913421    -4146.913421  0.021395 -3.538283  0.944565
     spin moment: S , {S} =    0.00001  -0.00000   0.00000   0.00001
   scf:    8    -4147.036604    -4146.973079    -4146.973079  0.012618 -3.678970  0.535595
     spin moment: S , {S} =    0.00000   0.00000   0.00000   0.00000
   scf:    9    -4147.013080    -4146.992435    -4146.992435  0.006887 -3.634118  0.392834
     spin moment: S , {S} =    0.00000   0.00000   0.00000   0.00000
   scf:   10    -4147.046064    -4147.013431    -4147.013431  0.021093 -3.676497  0.201157
     spin moment: S , {S} =    0.00000  -0.00000  -0.00000  -0.00000
   scf:   11    -4147.016543    -4147.014984    -4147.014985  0.004999 -3.666637  0.060796
     spin moment: S , {S} =    0.00000   0.00000  -0.00000  -0.00000
   scf:   12    -4147.015990    -4147.015499    -4147.015499  0.001057 -3.660695  0.023554
     spin moment: S , {S} =    0.00000   0.00000  -0.00000   0.00000
   scf:   13    -4147.015873    -4147.015682    -4147.015682  0.001326 -3.658419  0.016556
     spin moment: S , {S} =    0.00000   0.00000   0.00000   0.00000
   scf:   14    -4147.015917    -4147.015792    -4147.015792  0.001273 -3.657269  0.013416
     spin moment: S , {S} =    0.00000   0.00000   0.00000   0.00000
   scf:   15    -4147.015927    -4147.015854    -4147.015854  0.001213 -3.657073  0.009598
     spin moment: S , {S} =    0.00000   0.00000  -0.00000   0.00000
   scf:   16    -4147.015940    -4147.015891    -4147.015891  0.001188 -3.657196  0.006043
     spin moment: S , {S} =    0.00000  -0.00000  -0.00000   0.00000
   scf:   17    -4147.015916    -4147.015902    -4147.015902  0.000632 -3.657222  0.004278
     spin moment: S , {S} =    0.00000  -0.00000  -0.00000   0.00000
   scf:   18    -4147.015914    -4147.015907    -4147.015907  0.000464 -3.657294  0.002199
     spin moment: S , {S} =    0.00000  -0.00000  -0.00000   0.00000
   scf:   19    -4147.015912    -4147.015909    -4147.015909  0.000304 -3.657351  0.001084
     spin moment: S , {S} =    0.00000  -0.00000  -0.00000   0.00000
   scf:   20    -4147.015910    -4147.015910    -4147.015910  0.000131 -3.657343  0.000607
     spin moment: S , {S} =    0.00000   0.00000  -0.00000   0.00000
   scf:   21    -4147.015910    -4147.015910    -4147.015910  0.000108 -3.657340  0.000258
     spin moment: S , {S} =    0.00000   0.00000  -0.00000   0.00000
   scf:   22    -4147.015910    -4147.015910    -4147.015910  0.000036 -3.657324  0.000115
     spin moment: S , {S} =    0.00000  -0.00000  -0.00000   0.00000
   scf:   23    -4147.015910    -4147.015910    -4147.015910  0.000007 -3.657325  0.000078
     spin moment: S , {S} =    0.00000  -0.00000  -0.00000   0.00000
   scf:   24    -4147.015910    -4147.015910    -4147.015910  0.000004 -3.657325  0.000059
     spin moment: S , {S} =    0.00000  -0.00000  -0.00000   0.00000
mix: Pulay -- resetting history
   scf:   25    -4147.015910    -4147.015910    -4147.015910  0.000003 -3.657326  0.000048
     spin moment: S , {S} =    0.00000  -0.00000  -0.00000  -0.00000
   scf:   26    -4147.015910    -4147.015910    -4147.015910  0.000003 -3.657325  0.000033
     spin moment: S , {S} =    0.00000  -0.00000  -0.00000  -0.00000
   scf:   27    -4147.015910    -4147.015910    -4147.015910  0.000004 -3.657324  0.000018
     spin moment: S , {S} =    0.00000  -0.00000  -0.00000  -0.00000
   scf:   28    -4147.015910    -4147.015910    -4147.015910  0.000002 -3.657324  0.000010
     spin moment: S , {S} =    0.00000  -0.00000  -0.00000  -0.00000
   scf:   29    -4147.015910    -4147.015910    -4147.015910  0.000001 -3.657324  0.000006
     spin moment: S , {S} =    0.00000  -0.00000  -0.00000   0.00000
   scf:   30    -4147.015910    -4147.015910    -4147.015910  0.000001 -3.657324  0.000003
     spin moment: S , {S} =    0.00000  -0.00000  -0.00000   0.00000
   scf:   31    -4147.015910    -4147.015910    -4147.015910  0.000001 -3.657324  0.000001
     spin moment: S , {S} =    0.00000  -0.00000  -0.00000   0.00000
   scf:   32    -4147.015910    -4147.015910    -4147.015910  0.000000 -3.657324  0.000001
     spin moment: S , {S} =    0.00000  -0.00000  -0.00000   0.00000

SCF Convergence by DM+H criterion
max |DM_out - DM_in|         :     0.0000001358
max |H_out - H_in|      (eV) :     0.0000006097
SCF cycle converged after 32 iterations

Using DM_out to compute the final energy and forces
No. of atoms with KB's overlaping orbs in proc 0. Max # of overlaps:      27     176

siesta: E_KS(eV) =            -4147.0159

siesta: E_KS - E_eggbox =     -4147.0159
     spin moment: S , {S} =    0.00000  -0.00000  -0.00000   0.00000

siesta: Atomic forces (eV/Ang):
     1    0.054859   -0.037058   -0.000000
     2   -0.351673    0.215703    0.000000
     3    0.301022   -0.037089   -0.000000
     4   -0.005563    0.076298   -0.000000
     5   -0.154286   -0.152203   -0.000000
     6    0.021951    0.063347   -0.000000
     7    0.906658    0.675507    0.000000
     8    0.825012   -2.016312    0.000000
     9   -1.042484    1.412222   -0.000000
    10    0.249418   -0.313201   -0.000000
    11   -0.677993   -0.230459   -0.000000
    12    0.823662   -0.206962   -0.000000
    13   -0.397332   -4.141353    0.000000
    14   -0.016752   -0.023309    0.000000
    15    0.078858    0.025385   -0.000000
    16    0.005894   -0.016473    0.000000
    17   -0.004058    0.045253   -0.000000
    18   -0.040027    0.030401   -0.000000
    19    0.189209    0.016911    0.000000
    20   -0.999552   -0.085613    0.000000
    21    0.918983   -3.613383    0.000000
    22    0.179369    0.595555    0.000000
    23    0.209432   -0.468972   -0.000000
    24   -0.261766   -0.631097   -0.000000
    25   -0.493917    1.344093   -0.000000
    26    0.650664   -0.930783    0.000000
    27   -0.145079    0.068802    0.000000
    28    0.028597    0.506523    0.000000
    29   -0.224428   -0.285557    0.000000
----------------------------------------
   Tot    0.628679   -8.113823    0.000000
----------------------------------------
   Max    4.141353
   Res    0.742484    sqrt( Sum f_i^2 / 3N )
----------------------------------------
   Max    4.141353    constrained

Stress tensor Voigt[x,y,z,yz,xz,xy] (kbar):        0.58        0.33       -0.04        0.00       -0.00       -0.52
(Free)E + p*V (eV/cell)    -4149.4568
Target enthalpy (eV/cell)    -4147.0159

siesta: Stress tensor (static) (eV/Ang**3):
         0.000361   -0.000323    0.000000
        -0.000323    0.000207   -0.000000
        -0.000000    0.000000   -0.000026

siesta: Pressure (static):         -0.28968684  kBar

siesta: Stress tensor (total) (eV/Ang**3):
         0.000361   -0.000323    0.000000
        -0.000323    0.000207   -0.000000
        -0.000000    0.000000   -0.000026

siesta: Pressure (total):         -0.28968684  kBar

siesta: Temp_ion =       0.000 K

siesta: Eigenvalues (eV):
ik =     1
  -22.0066  -22.0066  -21.6179  -21.6179  -21.3512  -21.3512  -21.2544  -21.2544  -21.1060  -21.1060
  -21.0616  -21.0616  -20.5341  -20.5341  -19.5642  -19.5642  -19.3798  -19.3798  -19.1948  -19.1948
  -14.7033  -14.7033  -13.6843  -13.6843  -13.2191  -13.2191  -12.9130  -12.9130  -12.8355  -12.8355
  -12.7546  -12.7546  -12.5003  -12.5003  -12.1721  -12.1721  -12.0919  -12.0919  -11.9282  -11.9282
  -11.1171  -11.1171  -10.7459  -10.7459  -10.5540  -10.5540  -10.4783  -10.4783  -10.0557  -10.0557
   -9.5272   -9.5272   -9.0333   -9.0333   -8.6850   -8.6850   -8.6194   -8.6194   -8.5559   -8.5559
   -8.3993   -8.3993   -8.3676   -8.3676   -7.9612   -7.9612   -7.8224   -7.8224   -7.6607   -7.6607
   -7.5032   -7.5032   -7.1947   -7.1947   -7.0507   -7.0507   -6.7698   -6.7698   -6.5848   -6.5848
   -6.5367   -6.5367   -6.3245   -6.3245   -6.1381   -6.1381   -6.0286   -6.0286   -5.9968   -5.9968
   -5.9727   -5.9727   -5.6163   -5.6163   -5.4580   -5.4580   -4.1435   -4.1435   -3.1710   -3.1710
   -2.2424   -2.2424   -2.1601   -2.1601   -2.0992   -2.0992   -1.7923   -1.7923   -1.7462   -1.7462
   -1.6793   -1.6793   -1.6623   -1.6623   -1.5376   -1.5376   -1.2777   -1.2777   -1.0041   -1.0041
   -0.7791   -0.7791   -0.5769   -0.5769   -0.2177   -0.2177   -0.1936   -0.1936    0.2807    0.2807
    0.5874    0.5874    0.6634    0.6634    0.7120    0.7120    0.9566    0.9566    1.1350    1.1350
    1.2547    1.2547    1.3813    1.3813    1.4814    1.4814    1.5178    1.5178    1.7340    1.7340
    1.9438    1.9438    2.0128    2.0128    2.3425    2.3425    2.5559    2.5559    2.8728    2.8728
    2.8931    2.8931    2.9244    2.9244    3.0228    3.0228    3.4304    3.4304    3.5740    3.5740
    3.7108    3.7108    3.9975    3.9975    4.0919    4.0919    4.1574    4.1574    4.4124    4.4124
    4.5883    4.5883    4.6632    4.6632    4.7632    4.7632    4.8065    4.8065    4.8553    4.8553
    5.0991    5.0991    5.1563    5.1563    5.4233    5.4233    5.6313    5.6313    5.7727    5.7727
    5.9860    5.9860    6.0370    6.0370    6.1283    6.1283    6.3138    6.3138    6.3506    6.3506
    6.5472    6.5472    6.6365    6.6365    6.6531    6.6531    6.8218    6.8218    7.0628    7.0628
    7.1201    7.1201    7.3628    7.3628    7.6562    7.6562    7.8145    7.8145    7.9473    7.9473
    8.1024    8.1024    8.1307    8.1307    8.1465    8.1465    8.4821    8.4821    8.7334    8.7334
    8.8020    8.8020    8.9541    8.9541    9.0115    9.0115    9.0930    9.0930    9.3847    9.3847
    9.4356    9.4356    9.6418    9.6418    9.9173    9.9173   10.0269   10.0269   10.1260   10.1260
   10.2825   10.2825   10.3996   10.3996   10.6635   10.6635   11.0310   11.0310   11.2078   11.2078
   11.2202   11.2202   11.3423   11.3423   11.6708   11.6708   11.9254   11.9254   11.9782   11.9782
   12.1346   12.1346   12.2217   12.2217   12.5870   12.5870   12.6512   12.6512   12.8757   12.8757
   12.9006   12.9006   13.0042   13.0042   13.5690   13.5690   13.5698   13.5698   13.8700   13.8700
   14.0005   14.0005   14.2307   14.2307   14.5808   14.5808   14.9017   14.9017   14.9418   14.9418
   15.3021   15.3021   15.4510   15.4510   16.2007   16.2007   16.7522   16.7522   16.7588   16.7588
   17.1093   17.1093   17.5433   17.5433   17.6154   17.6154   18.6379   18.6379   18.7568   18.7568
   19.0894   19.0894   19.2893   19.2893   19.9986   19.9986   20.1329   20.1329   20.3291   20.3291
   21.2010   21.2010   21.6642   21.6642   22.2229   22.2229   22.2669   22.2669   22.7740   22.7740
   23.0554   23.0554   23.7497   23.7497   23.9472   23.9472   24.0974   24.0974   24.3746   24.3746
   25.1895   25.1895   25.5839   25.5839   26.3000   26.3000   27.1175   27.1175   27.8469   27.8469
   28.9196   28.9196   29.1818   29.1818   29.2280   29.2280   29.7770   29.7770   30.1314   30.1314
   30.2975   30.2975   30.3946   30.3946   30.8577   30.8577   31.0456   31.0456   31.2402   31.2402
   31.3068   31.3068   31.6016   31.6016   31.8345   31.8345   32.5380   32.5380   32.9043   32.9043
   34.0487   34.0487   34.3544   34.3544   34.3742   34.3742   34.5510   34.5510   34.6744   34.6744
   35.4180   35.4180   35.6474   35.6474   35.7704   35.7704   35.9174   35.9174   36.6299   36.6299
   37.1545   37.1545   37.9720   37.9720   38.0996   38.0996   38.1129   38.1129   38.6554   38.6554
   38.8987   38.8987   39.3635   39.3635   39.9311   39.9311   40.2589   40.2589   40.6645   40.6645
   40.6669   40.6669   40.7200   40.7200   40.9274   40.9274   41.2659   41.2659   41.5179   41.5179
   42.8156   42.8156   43.0992   43.0992   43.1158   43.1158   43.4634   43.4634   43.8281   43.8281
   44.0010   44.0010   44.6126   44.6126   44.6512   44.6512   44.8528   44.8528   45.0863   45.0863
   45.4511   45.4511   45.7192   45.7192   46.4839   46.4839   46.7125   46.7125   47.1656   47.1656
   47.6237   47.6237   47.9829   47.9829   48.3261   48.3261   49.2351   49.2351   49.8779   49.8779
   50.3371   50.3371   50.4551   50.4551   50.7970   50.7970   51.1334   51.1334   51.4414   51.4414
   51.5036   51.5036   52.4973   52.4973   53.4115   53.4115   54.8036   54.8036   54.8563   54.8563
   54.9910   54.9910   55.2376   55.2376   55.7974   55.7974   55.9309   55.9309   56.7437   56.7437
   56.9843   56.9843   57.2079   57.2079   57.6723   57.6723   59.0678   59.0678   60.2491   60.2491
   60.6073   60.6073   60.9173   60.9173   61.1541   61.1541   61.4359   61.4359   62.2916   62.2916
   63.0165   63.0165   63.0572   63.0572   63.8676   63.8676   65.0882   65.0882   66.8779   66.8779
   67.1924   67.1924   67.6795   67.6795   68.3607   68.3607   69.9755   69.9755   71.0936   71.0936
   74.3316   74.3316   83.6645   83.6645   91.7618   91.7618   92.3084   92.3084   93.6724   93.6724
   98.7178   98.7178   99.3405   99.3405  101.3452  101.3452  103.5900  103.5900  104.6889  104.6889
  111.4847  111.4847  113.7737  113.7737  124.4485  124.4485  126.7620  126.7620  131.1777  131.1777
  136.7647  136.7647  139.5552  139.5552
siesta: Fermi energy =      -3.657324 eV

siesta: Program's energy decomposition (eV):
siesta: Ebs     =     -1121.548576
siesta: Eions   =      3585.165840
siesta: Ena     =       381.790943
siesta: Ekin    =      2902.722215
siesta: Enl     =     -2787.877710
siesta: Eso     =        -0.004279
siesta: Edftu   =         0.000000
siesta: DEna    =        47.184713
siesta: DUscf   =        14.073120
siesta: DUext   =         0.000000
siesta: Exc     =     -1119.739072
siesta: eta*DQ  =         0.000000
siesta: Emadel  =         0.000000
siesta: Emeta   =         0.000000
siesta: Emolmec =         0.000000
siesta: Ekinion =         0.000000
siesta: Eharris =     -4147.015910
siesta: Etot    =     -4147.015910
siesta: FreeEng =     -4147.015910

siesta: Final energy (eV):
siesta:  Band Struct. =   -1121.548576
siesta:       Kinetic =    2902.722215
siesta:       Hartree =   14920.090641
siesta:       Edftu   =       0.000000
siesta:       Eso     =      -0.004279
siesta:    Ext. field =       0.000000
siesta:   Exch.-corr. =   -1119.739072
siesta:  Ion-electron =  -32410.916817
siesta:       Ion-ion =   11560.831402
siesta:       Ekinion =       0.000000
siesta:         Total =   -4147.015910
siesta:         Fermi =      -3.657324

siesta: Atomic forces (eV/Ang):
siesta:      1    0.054859   -0.037058   -0.000000
siesta:      2   -0.351673    0.215703    0.000000
siesta:      3    0.301022   -0.037089   -0.000000
siesta:      4   -0.005563    0.076298   -0.000000
siesta:      5   -0.154286   -0.152203   -0.000000
siesta:      6    0.021951    0.063347   -0.000000
siesta:      7    0.906658    0.675507    0.000000
siesta:      8    0.825012   -2.016312    0.000000
siesta:      9   -1.042484    1.412222   -0.000000
siesta:     10    0.249418   -0.313201   -0.000000
siesta:     11   -0.677993   -0.230459   -0.000000
siesta:     12    0.823662   -0.206962   -0.000000
siesta:     13   -0.397332   -4.141353    0.000000
siesta:     14   -0.016752   -0.023309    0.000000
siesta:     15    0.078858    0.025385   -0.000000
siesta:     16    0.005894   -0.016473    0.000000
siesta:     17   -0.004058    0.045253   -0.000000
siesta:     18   -0.040027    0.030401   -0.000000
siesta:     19    0.189209    0.016911    0.000000
siesta:     20   -0.999552   -0.085613    0.000000
siesta:     21    0.918983   -3.613383    0.000000
siesta:     22    0.179369    0.595555    0.000000
siesta:     23    0.209432   -0.468972   -0.000000
siesta:     24   -0.261766   -0.631097   -0.000000
siesta:     25   -0.493917    1.344093   -0.000000
siesta:     26    0.650664   -0.930783    0.000000
siesta:     27   -0.145079    0.068802    0.000000
siesta:     28    0.028597    0.506523    0.000000
siesta:     29   -0.224428   -0.285557    0.000000
siesta: ----------------------------------------
siesta:    Tot    0.628679   -8.113823    0.000000

siesta: Stress tensor (static) (eV/Ang**3):
siesta:     0.000361   -0.000323    0.000000
siesta:    -0.000323    0.000207   -0.000000
siesta:    -0.000000    0.000000   -0.000026

siesta: Cell volume =      13500.000000 Ang**3

siesta: Pressure (static):
siesta:                Solid            Molecule  Units
siesta:          -0.00000197          0.00000225  Ry/Bohr**3
siesta:          -0.00018081          0.00020667  eV/Ang**3
siesta:          -0.28968684          0.33112242  kBar
(Free)E+ p_basis*V_orbitals  =       -4127.165492
(Free)Eharris+ p_basis*V_orbitals  =       -4127.165492
     spin moment: S , {S} =    0.00000  -0.00000  -0.00000   0.00000

siesta: Electric dipole (a.u.)  =   -0.030454    1.513267    0.000000
siesta: Electric dipole (Debye) =   -0.077408    3.846345    0.000000

cite: Please see "GC.bib" for an exhaustive BiBTeX file.
cite: Please clearly indicate Siesta version in published work: v4.1.5-1-g384057250
cite: This calculation has made use of the following articles
cite: which are encouraged to be cited in a published work.
        Primary SIESTA paper
          DOI: www.doi.org/10.1088/0953-8984/14/11/302
        Spin-orbit coupling (on-site approximation)
          DOI: www.doi.org/10.1088/0953-8984/19/19/489001


WARNING: alloc-realloc-dealloc name mismatch
         Name: atomlist isa
         Size:              -116. Bytes
         Node:     0
         Subsequent mismatches will not be reported
>> End of run:   1-FEB-2024  21:59:31
Job completed
