Siesta Version  : v4.1.5-1-g384057250
Architecture    : gcc
Compiler version: GNU Fortran (Ubuntu 11.3.0-1ubuntu1~22.04) 11.3.0
Compiler flags  : mpifort -O2 -fPIC -ftree-vectorize -fallow-argument-mismatch
PP flags        : -DFC_HAVE_ABORT -DMPI -DSIESTA__FLOOK -DSIESTA__METIS -DSIESTA__MUMPS -DCDF -DNCDF -DNCDF_4 -DNCDF_PARALLEL -DSIESTA__MRRR -DSIESTA__ELPA
Libraries       : libncdf.a libfdict.a  -lflookall -ldl -lnetcdff -lnetcdf -lhdf5_hl -lhdf5 -lhdf5_fortran -lz -lscalapack-openmpi -lopenblas -lmetis -lzmumps -lcmumps -ldmumps -lmumps_common -lpord -lsmumps -lesmumps -lscotch -lscotcherr -fopenmp -lelpa
PARALLEL version
NetCDF support
NetCDF-4 support
NetCDF-4 MPI-IO support
METIS ordering support
Lua support

* Running on 4 nodes in parallel
>> Start of run:  14-MAY-2023   7:19:35

                           ***********************       
                           *  WELCOME TO SIESTA  *       
                           ***********************       

reinit: Reading from standard input
reinit: Dumped input in INPUT_TMP.13758
************************** Dump of input data file ****************************
# mpirun -np 4 siesta-4.1.5 < Thymine.fdf > Thymine.out
SystemLabel      Thymine
NumberOfAtoms    15
NumberOfSpecies  4
%block ChemicalSpeciesLabel
    1    7  N
    2   14  Si
    3    1  H
    4    8  O
%endblock ChemicalSpeciesLabel
###################################
# This overrides Defaults.fdf conf
###################################
MD.TypeOfRun                CG # CG, Verlet
AtomicCoordinatesFormat NotScaledCartesianAng
%block AtomicCoordinatesAndAtomicSpecies
   -0.56881961    4.34524352    0.00000000   1       1  N
   -2.32992763    4.42637028    0.00000000   2       2  Si
   -2.81141471    5.84109886   -0.00000000   3       3  H
   -3.45564509    2.56877757    0.00000000   2       4  Si
   -5.73539138    2.30796450   -0.00000000   2       5  Si
   -6.28456712    3.33692747    1.01958835   3       6  H
   -5.88421280    0.89031384    0.49090643   3       7  H
   -6.42683766    2.44522620   -1.34450875   3       8  H
   -1.95609568    0.89983937   -0.00000000   2       9  Si
   -2.44373212   -0.60944701   -0.00000000   4      10  O
   -0.23508565    1.50148166    0.00000000   1      11  N
    0.43654497    0.69577738    0.00000000   3      12  H
    0.62647601    3.06631013    0.00000000   2      13  Si
    2.17654236    3.42215836    0.00000000   4      14  O
   -0.07886564    5.28799143    0.00000000   3      15  H
%endblock AtomicCoordinatesAndAtomicSpecies
%include ../../Defaults.fdf
************************** End of input data file *****************************

reinit: -----------------------------------------------------------------------
reinit: System Name: 
reinit: -----------------------------------------------------------------------
reinit: System Label: Thymine
reinit: -----------------------------------------------------------------------

initatom: Reading input for the pseudopotentials and atomic orbitals ----------
Species number:   1 Atomic number:    7 Label: N
Species number:   2 Atomic number:   14 Label: Si
Species number:   3 Atomic number:    1 Label: H
Species number:   4 Atomic number:    8 Label: O

Ground state valence configuration:   2s02  2p03
Reading pseudopotential information in formatted form from N.psf

Pseudopotential generated from a relativistic atomic calculation

Valence configuration for pseudopotential generation:
2s( 2.00) rc: 0.94
2p( 3.00) rc: 0.59
3d( 0.00) rc: 3.46
4f( 0.00) rc: 2.47
Ground state valence configuration:   3s02  3p02
Reading pseudopotential information in formatted form from Si.psf

Pseudopotential generated from a relativistic atomic calculation

Valence configuration for pseudopotential generation:
3s( 2.00) rc: 1.67
3p( 2.00) rc: 2.04
3d( 0.00) rc: 2.89
4f( 0.00) rc: 2.49
Ground state valence configuration:   1s01
Reading pseudopotential information in formatted form from H.psf

Pseudopotential generated from a relativistic atomic calculation

Valence configuration for pseudopotential generation:
1s( 1.00) rc: 0.01
2p( 0.00) rc: 0.60
3d( 0.00) rc: 1.99
4f( 0.00) rc: 2.49
Ground state valence configuration:   2s02  2p04
Reading pseudopotential information in formatted form from O.psf

Pseudopotential generated from a relativistic atomic calculation

Valence configuration for pseudopotential generation:
2s( 2.00) rc: 0.45
2p( 4.00) rc: 0.92
3d( 0.00) rc: 2.24
4f( 0.00) rc: 0.25
For N, standard SIESTA heuristics set lmxkb to 3
 (one more than the basis l, including polarization orbitals).
Use PS.lmax or PS.KBprojectors blocks to override.
For Si, standard SIESTA heuristics set lmxkb to 3
 (one more than the basis l, including polarization orbitals).
Use PS.lmax or PS.KBprojectors blocks to override.
For H, standard SIESTA heuristics set lmxkb to 2
 (one more than the basis l, including polarization orbitals).
Use PS.lmax or PS.KBprojectors blocks to override.
For O, standard SIESTA heuristics set lmxkb to 3
 (one more than the basis l, including polarization orbitals).
Use PS.lmax or PS.KBprojectors blocks to override.

<basis_specs>
===============================================================================
N                    Z=   7    Mass=  14.010        Charge= 0.17977+309
Lmxo=1 Lmxkb= 3    BasisType=split      Semic=F
L=0  Nsemic=0  Cnfigmx=2
          i=1  nzeta=2  polorb=0  (2s)
            splnorm:   0.28000    
               vcte:    0.0000    
               rinn:    0.0000    
               qcoe:    0.0000    
               qyuk:    0.0000    
               qwid:   0.10000E-01
                rcs:    0.0000      0.0000    
            lambdas:    1.0000      1.0000    
L=1  Nsemic=0  Cnfigmx=2
          i=1  nzeta=2  polorb=1  (2p)
            splnorm:   0.28000    
               vcte:    0.0000    
               rinn:    0.0000    
               qcoe:    0.0000    
               qyuk:    0.0000    
               qwid:   0.10000E-01
                rcs:    0.0000      0.0000    
            lambdas:    1.0000      1.0000    
-------------------------------------------------------------------------------
L=0  Nkbl=1  erefs: 0.17977+309
L=1  Nkbl=1  erefs: 0.17977+309
L=2  Nkbl=1  erefs: 0.17977+309
L=3  Nkbl=1  erefs: 0.17977+309
===============================================================================
</basis_specs>

atom: Called for N                     (Z =   7)

read_vps: Pseudopotential generation method:
read_vps: ATM4.2.7  Troullier-Martins                       
Valence charge for ps generation:    5.00000

xc_check: Exchange-correlation functional:
xc_check: GGA Perdew, Burke & Ernzerhof 1996
V l=0 = -2*Zval/r beyond r=  1.2889
V l=1 = -2*Zval/r beyond r=  1.2889
V l=2 = -2*Zval/r beyond r=  3.4178
V l=3 = -2*Zval/r beyond r=  2.4084
All V_l potentials equal beyond r=  3.3753
This should be close to max(r_c) in ps generation
All pots = -2*Zval/r beyond r=  3.4178

VLOCAL1: 99.0% of the norm of Vloc inside      3.810 Ry
VLOCAL1: 99.9% of the norm of Vloc inside      8.683 Ry
atom: Maximum radius for 4*pi*r*r*local-pseudopot. charge    4.02088
atom: Maximum radius for r*vlocal+2*Zval:    3.54838
GHOST: No ghost state for L =  0
GHOST: No ghost state for L =  1
GHOST: No ghost state for L =  2
GHOST: No ghost state for L =  3

KBgen: Kleinman-Bylander projectors: 
   l= 0   rc=  3.417763   el= -1.365098   Ekb= -4.433130   kbcos= -0.707855
   l= 1   rc=  3.375302   el= -0.521201   Ekb=-13.264039   kbcos= -0.535594
   l= 2   rc=  3.872880   el=  0.001991   Ekb= -0.641094   kbcos= -0.062456
   l= 3   rc=  3.970931   el=  0.003093   Ekb= -0.474517   kbcos= -0.018236

KBgen: Total number of Kleinman-Bylander projectors:   16
atom: -------------------------------------------------------------------------

atom: SANKEY-TYPE ORBITALS:
atom: Selected multiple-zeta basis: split     

SPLIT: Orbitals with angular momentum L= 0

SPLIT: Basis orbitals for state 2s

SPLIT: PAO cut-off radius determined from an
SPLIT: energy shift=  0.002000 Ry

   izeta = 1
                 lambda =    1.000000
                     rc =    4.730425
                 energy =   -1.363399
                kinetic =    1.245246
    potential(screened) =   -2.608645
       potential(ionic) =   -8.121105

   izeta = 2
                 rmatch =    2.531849
              splitnorm =    0.280000
                 energy =   -0.959908
                kinetic =    2.409435
    potential(screened) =   -3.369343
       potential(ionic) =   -9.427975

SPLIT: Orbitals with angular momentum L= 1

SPLIT: Basis orbitals for state 2p

SPLIT: PAO cut-off radius determined from an
SPLIT: energy shift=  0.002000 Ry

   izeta = 1
                 lambda =    1.000000
                     rc =    5.924108
                 energy =   -0.519262
                kinetic =    3.672940
    potential(screened) =   -4.192202
       potential(ionic) =   -9.518354

   izeta = 2
                 rmatch =    2.531849
              splitnorm =    0.280000
                 energy =   -0.104258
                kinetic =    6.807538
    potential(screened) =   -6.911796
       potential(ionic) =  -13.149920

POLgen: Perturbative polarization orbital with L=  2

POLgen: Polarization orbital for state 2p

   izeta = 1
                     rc =    5.924108
                 energy =    1.427508
                kinetic =    2.872379
    potential(screened) =   -1.444871
       potential(ionic) =   -5.563644
atom: Total number of Sankey-type orbitals: 13

atm_pop: Valence configuration (for local Pseudopot. screening):
 2s( 2.00)                                                            
 2p( 3.00)                                                            
Vna: chval, zval:    5.00000   5.00000

Vna:  Cut-off radius for the neutral-atom potential:   5.924108

atom: _________________________________________________________________________

<basis_specs>
===============================================================================
Si                   Z=  14    Mass=  28.090        Charge= 0.17977+309
Lmxo=1 Lmxkb= 3    BasisType=split      Semic=F
L=0  Nsemic=0  Cnfigmx=3
          i=1  nzeta=2  polorb=0  (3s)
            splnorm:   0.28000    
               vcte:    0.0000    
               rinn:    0.0000    
               qcoe:    0.0000    
               qyuk:    0.0000    
               qwid:   0.10000E-01
                rcs:    0.0000      0.0000    
            lambdas:    1.0000      1.0000    
L=1  Nsemic=0  Cnfigmx=3
          i=1  nzeta=2  polorb=1  (3p)
            splnorm:   0.28000    
               vcte:    0.0000    
               rinn:    0.0000    
               qcoe:    0.0000    
               qyuk:    0.0000    
               qwid:   0.10000E-01
                rcs:    0.0000      0.0000    
            lambdas:    1.0000      1.0000    
-------------------------------------------------------------------------------
L=0  Nkbl=1  erefs: 0.17977+309
L=1  Nkbl=1  erefs: 0.17977+309
L=2  Nkbl=1  erefs: 0.17977+309
L=3  Nkbl=1  erefs: 0.17977+309
===============================================================================
</basis_specs>

atom: Called for Si                    (Z =  14)

read_vps: Pseudopotential generation method:
read_vps: ATM4.2.7  Troullier-Martins                       
Valence charge for ps generation:    4.00000

xc_check: Exchange-correlation functional:
xc_check: GGA Perdew, Burke & Ernzerhof 1996
V l=0 = -2*Zval/r beyond r=  2.7826
V l=1 = -2*Zval/r beyond r=  2.7826
V l=2 = -2*Zval/r beyond r=  2.9253
V l=3 = -2*Zval/r beyond r=  2.7826
All V_l potentials equal beyond r=  2.8530
This should be close to max(r_c) in ps generation
All pots = -2*Zval/r beyond r=  2.9253

VLOCAL1: 99.0% of the norm of Vloc inside      5.333 Ry
VLOCAL1: 99.9% of the norm of Vloc inside     12.154 Ry
atom: Maximum radius for 4*pi*r*r*local-pseudopot. charge    3.39869
atom: Maximum radius for r*vlocal+2*Zval:    2.96205
GHOST: No ghost state for L =  0
GHOST: No ghost state for L =  1
GHOST: No ghost state for L =  2
GHOST: No ghost state for L =  3

KBgen: Kleinman-Bylander projectors: 
   l= 0   rc=  3.075247   el= -0.794092   Ekb=  5.879390   kbcos=  0.167461
   l= 1   rc=  3.153101   el= -0.300068   Ekb=  2.642817   kbcos=  0.058301
   l= 2   rc=  3.273594   el=  0.001958   Ekb= -1.185135   kbcos= -0.104411
   l= 3   rc=  3.232927   el=  0.003046   Ekb= -0.497174   kbcos= -0.015889

KBgen: Total number of Kleinman-Bylander projectors:   16
atom: -------------------------------------------------------------------------

atom: SANKEY-TYPE ORBITALS:
atom: Selected multiple-zeta basis: split     

SPLIT: Orbitals with angular momentum L= 0

SPLIT: Basis orbitals for state 3s

SPLIT: PAO cut-off radius determined from an
SPLIT: energy shift=  0.002000 Ry

   izeta = 1
                 lambda =    1.000000
                     rc =    6.429618
                 energy =   -0.792283
                kinetic =    0.525293
    potential(screened) =   -1.317576
       potential(ionic) =   -3.744923

   izeta = 2
                 rmatch =    3.998416
              splitnorm =    0.280000
                 energy =   -0.583081
                kinetic =    1.069570
    potential(screened) =   -1.652651
       potential(ionic) =   -4.235185

SPLIT: Orbitals with angular momentum L= 1

SPLIT: Basis orbitals for state 3p

SPLIT: PAO cut-off radius determined from an
SPLIT: energy shift=  0.002000 Ry

   izeta = 1
                 lambda =    1.000000
                     rc =    8.464845
                 energy =   -0.298236
                kinetic =    0.785360
    potential(screened) =   -1.083596
       potential(ionic) =   -3.273779

   izeta = 2
                 rmatch =    4.587816
              splitnorm =    0.280000
                 energy =   -0.131871
                kinetic =    1.403687
    potential(screened) =   -1.535557
       potential(ionic) =   -4.015310

POLgen: Perturbative polarization orbital with L=  2

POLgen: Polarization orbital for state 3p

   izeta = 1
                     rc =    8.464845
                 energy =    0.321949
                kinetic =    1.055677
    potential(screened) =   -0.733728
       potential(ionic) =   -2.672950
atom: Total number of Sankey-type orbitals: 13

atm_pop: Valence configuration (for local Pseudopot. screening):
 3s( 2.00)                                                            
 3p( 2.00)                                                            
Vna: chval, zval:    4.00000   4.00000

Vna:  Cut-off radius for the neutral-atom potential:   8.464845

atom: _________________________________________________________________________

<basis_specs>
===============================================================================
H                    Z=   1    Mass=  1.0100        Charge= 0.17977+309
Lmxo=0 Lmxkb= 2    BasisType=split      Semic=F
L=0  Nsemic=0  Cnfigmx=1
          i=1  nzeta=2  polorb=1  (1s)
            splnorm:   0.62000    
               vcte:    0.0000    
               rinn:    0.0000    
               qcoe:    0.0000    
               qyuk:    0.0000    
               qwid:   0.10000E-01
                rcs:    0.0000      0.0000    
            lambdas:    1.0000      1.0000    
-------------------------------------------------------------------------------
L=0  Nkbl=1  erefs: 0.17977+309
L=1  Nkbl=1  erefs: 0.17977+309
L=2  Nkbl=1  erefs: 0.17977+309
===============================================================================
</basis_specs>

atom: Called for H                     (Z =   1)

read_vps: Pseudopotential generation method:
read_vps: ATM4.2.7  Troullier-Martins                       
Valence charge for ps generation:    1.00000

xc_check: Exchange-correlation functional:
xc_check: GGA Perdew, Burke & Ernzerhof 1996
V l=0 = -2*Zval/r beyond r=  0.0098
V l=1 = -2*Zval/r beyond r=  0.5817
V l=2 = -2*Zval/r beyond r=  1.9372
All V_l potentials equal beyond r=  1.9372
This should be close to max(r_c) in ps generation
All pots = -2*Zval/r beyond r=  1.9372

VLOCAL1: 99.0% of the norm of Vloc inside     11.567 Ry
VLOCAL1: 99.9% of the norm of Vloc inside     26.362 Ry
atom: Maximum radius for 4*pi*r*r*local-pseudopot. charge    2.25106
atom: Maximum radius for r*vlocal+2*Zval:    1.91306
GHOST: No ghost state for L =  0
GHOST: No ghost state for L =  1
GHOST: No ghost state for L =  2

KBgen: Kleinman-Bylander projectors: 
   l= 0   rc=  2.036604   el= -0.477180   Ekb= -6.081590   kbcos= -0.277285
   l= 1   rc=  2.195416   el=  0.001076   Ekb= -0.926943   kbcos= -0.034643
   l= 2   rc=  2.251056   el=  0.002010   Ekb= -0.130941   kbcos= -0.009788

KBgen: Total number of Kleinman-Bylander projectors:    9
atom: -------------------------------------------------------------------------

atom: SANKEY-TYPE ORBITALS:
atom: Selected multiple-zeta basis: split     

SPLIT: Orbitals with angular momentum L= 0

SPLIT: Basis orbitals for state 1s

SPLIT: PAO cut-off radius determined from an
SPLIT: energy shift=  0.002000 Ry

   izeta = 1
                 lambda =    1.000000
                     rc =    6.518340
                 energy =   -0.475305
                kinetic =    0.912139
    potential(screened) =   -1.387444
       potential(ionic) =   -1.907295

   izeta = 2
                 rmatch =    2.141150
              splitnorm =    0.620000
                 energy =    0.566467
                kinetic =    3.772856
    potential(screened) =   -3.206389
       potential(ionic) =   -3.759093

POLgen: Perturbative polarization orbital with L=  1

POLgen: Polarization orbital for state 1s

   izeta = 1
                     rc =    6.518340
                 energy =    0.533861
                kinetic =    1.121086
    potential(screened) =   -0.587225
       potential(ionic) =   -1.053027
atom: Total number of Sankey-type orbitals:  5

atm_pop: Valence configuration (for local Pseudopot. screening):
 1s( 1.00)                                                            
Vna: chval, zval:    1.00000   1.00000

Vna:  Cut-off radius for the neutral-atom potential:   6.518340

atom: _________________________________________________________________________

<basis_specs>
===============================================================================
O                    Z=   8    Mass=  16.000        Charge= 0.17977+309
Lmxo=1 Lmxkb= 3    BasisType=split      Semic=F
L=0  Nsemic=0  Cnfigmx=2
          i=1  nzeta=2  polorb=0  (2s)
            splnorm:   0.28000    
               vcte:    0.0000    
               rinn:    0.0000    
               qcoe:    0.0000    
               qyuk:    0.0000    
               qwid:   0.10000E-01
                rcs:    0.0000      0.0000    
            lambdas:    1.0000      1.0000    
L=1  Nsemic=0  Cnfigmx=2
          i=1  nzeta=2  polorb=1  (2p)
            splnorm:   0.28000    
               vcte:    0.0000    
               rinn:    0.0000    
               qcoe:    0.0000    
               qyuk:    0.0000    
               qwid:   0.10000E-01
                rcs:    0.0000      0.0000    
            lambdas:    1.0000      1.0000    
-------------------------------------------------------------------------------
L=0  Nkbl=1  erefs: 0.17977+309
L=1  Nkbl=1  erefs: 0.17977+309
L=2  Nkbl=1  erefs: 0.17977+309
L=3  Nkbl=1  erefs: 0.17977+309
===============================================================================
</basis_specs>

atom: Called for O                     (Z =   8)

read_vps: Pseudopotential generation method:
read_vps: ATM4.2.7  Troullier-Martins                       
Valence charge for ps generation:    6.00000

xc_check: Exchange-correlation functional:
xc_check: GGA Perdew, Burke & Ernzerhof 1996
V l=0 = -2*Zval/r beyond r=  1.1000
V l=1 = -2*Zval/r beyond r=  1.1000
V l=2 = -2*Zval/r beyond r=  2.2154
V l=3 = -2*Zval/r beyond r=  1.1000
All V_l potentials equal beyond r=  2.2154
This should be close to max(r_c) in ps generation
All pots = -2*Zval/r beyond r=  2.2154

VLOCAL1: 99.0% of the norm of Vloc inside      8.845 Ry
VLOCAL1: 99.9% of the norm of Vloc inside     20.157 Ry
atom: Maximum radius for 4*pi*r*r*local-pseudopot. charge    2.67231
atom: Maximum radius for r*vlocal+2*Zval:    2.32897
GHOST: No ghost state for L =  0
GHOST: No ghost state for L =  1
GHOST: No ghost state for L =  2
GHOST: No ghost state for L =  3

KBgen: Kleinman-Bylander projectors: 
   l= 0   rc=  2.243238   el= -1.759686   Ekb=**********   kbcos= -0.171774
   l= 1   rc=  2.328968   el= -0.663873   Ekb=-14.506792   kbcos= -0.519897
   l= 2   rc=  2.573941   el=  0.002031   Ekb= -1.137373   kbcos= -0.019581
   l= 3   rc=  2.606321   el=  0.003153   Ekb= -1.013546   kbcos= -0.003122

KBgen: Total number of Kleinman-Bylander projectors:   16
atom: -------------------------------------------------------------------------

atom: SANKEY-TYPE ORBITALS:
atom: Selected multiple-zeta basis: split     

SPLIT: Orbitals with angular momentum L= 0

SPLIT: Basis orbitals for state 2s

SPLIT: PAO cut-off radius determined from an
SPLIT: energy shift=  0.002000 Ry

   izeta = 1
                 lambda =    1.000000
                     rc =    4.243912
                 energy =   -1.758270
                kinetic =    3.286084
    potential(screened) =   -5.044353
       potential(ionic) =  -12.921184

   izeta = 2
                 rmatch =    2.187845
              splitnorm =    0.280000
                 energy =   -0.885018
                kinetic =    8.134434
    potential(screened) =   -9.019452
       potential(ionic) =  -17.710645

SPLIT: Orbitals with angular momentum L= 1

SPLIT: Basis orbitals for state 2p

SPLIT: PAO cut-off radius determined from an
SPLIT: energy shift=  0.002000 Ry

   izeta = 1
                 lambda =    1.000000
                     rc =    5.314825
                 energy =   -0.661986
                kinetic =    4.917472
    potential(screened) =   -5.579458
       potential(ionic) =  -13.236259

   izeta = 2
                 rmatch =    2.160663
              splitnorm =    0.280000
                 energy =   -0.068760
                kinetic =    9.183374
    potential(screened) =   -9.252135
       potential(ionic) =  -18.274251

POLgen: Perturbative polarization orbital with L=  2

POLgen: Polarization orbital for state 2p

   izeta = 1
                     rc =    5.314825
                 energy =    1.970580
                kinetic =    3.886128
    potential(screened) =   -1.915547
       potential(ionic) =   -7.749584
atom: Total number of Sankey-type orbitals: 13

atm_pop: Valence configuration (for local Pseudopot. screening):
 2s( 2.00)                                                            
 2p( 4.00)                                                            
Vna: chval, zval:    6.00000   6.00000

Vna:  Cut-off radius for the neutral-atom potential:   5.314825

atom: _________________________________________________________________________

prinput: Basis input ----------------------------------------------------------

PAO.BasisType split     

%block ChemicalSpeciesLabel
    1    7 N                       # Species index, atomic number, species label
    2   14 Si                      # Species index, atomic number, species label
    3    1 H                       # Species index, atomic number, species label
    4    8 O                       # Species index, atomic number, species label
%endblock ChemicalSpeciesLabel

%block PAO.Basis                 # Define Basis set
N                     2                    # Species label, number of l-shells
 n=2   0   2                         # n, l, Nzeta 
   4.730      2.532   
   1.000      1.000   
 n=2   1   2 P   1                   # n, l, Nzeta, Polarization, NzetaPol
   5.924      2.532   
   1.000      1.000   
Si                    2                    # Species label, number of l-shells
 n=3   0   2                         # n, l, Nzeta 
   6.430      3.998   
   1.000      1.000   
 n=3   1   2 P   1                   # n, l, Nzeta, Polarization, NzetaPol
   8.465      4.588   
   1.000      1.000   
H                     1                    # Species label, number of l-shells
 n=1   0   2 P   1                   # n, l, Nzeta, Polarization, NzetaPol
   6.518      2.141   
   1.000      1.000   
O                     2                    # Species label, number of l-shells
 n=2   0   2                         # n, l, Nzeta 
   4.244      2.188   
   1.000      1.000   
 n=2   1   2 P   1                   # n, l, Nzeta, Polarization, NzetaPol
   5.315      2.161   
   1.000      1.000   
%endblock PAO.Basis

prinput: ----------------------------------------------------------------------

Dumping basis to NetCDF file N.ion.nc
Dumping basis to NetCDF file Si.ion.nc
Dumping basis to NetCDF file H.ion.nc
Dumping basis to NetCDF file O.ion.nc
coor:   Atomic-coordinates input format  =     Cartesian coordinates
coor:                                          (in Angstroms)

siesta: Atomic coordinates (Bohr) and species
siesta:     -1.07491   8.21132   0.00000  1        1
siesta:     -4.40293   8.36463   0.00000  2        2
siesta:     -5.31281  11.03808  -0.00000  3        3
siesta:     -6.53023   4.85429   0.00000  2        4
siesta:    -10.83832   4.36142  -0.00000  2        5
siesta:    -11.87612   6.30588   1.92674  3        6
siesta:    -11.11956   1.68245   0.92768  3        7
siesta:    -12.14497   4.62081  -2.54075  3        8
siesta:     -3.69649   1.70045  -0.00000  2        9
siesta:     -4.61799  -1.15169  -0.00000  4       10
siesta:     -0.44425   2.83739   0.00000  1       11
siesta:      0.82495   1.31483   0.00000  3       12
siesta:      1.18387   5.79449   0.00000  2       13
siesta:      4.11307   6.46694   0.00000  4       14
siesta:     -0.14903   9.99286   0.00000  3       15

siesta: Automatic unit cell vectors (Ang):
siesta:   16.852737    0.000000    0.000000
siesta:    0.000000   14.157018    0.000000
siesta:    0.000000    0.000000   10.200593

siesta: System type = molecule  

initatomlists: Number of atoms, orbitals, and projectors:     15   147   198

siesta: ******************** Simulation parameters ****************************
siesta:
siesta: The following are some of the parameters of the simulation.
siesta: A complete list of the parameters used, including default values,
siesta: can be found in file out.fdf
siesta:
redata: Spin configuration                          = spin-orbit
redata: Number of spin components                   = 8
redata: Time-Reversal Symmetry                      = F
redata: Spin spiral                                 = F
############################################################
This spin-orbit implementation uses a local approximation.
From 4.2 and onwards the full non-local approximation is implemented
You are strongly advised to use >=4.2 versions!
############################################################
redata: Long output                                 =   F
redata: Number of Atomic Species                    =        4
redata: Charge density info will appear in .RHO file
redata: Write Mulliken Pop.                         = Atomic and Orbital charges
redata: Matel table size (NRTAB)                    =     1024
redata: Mesh Cutoff                                 =   340.0000 Ry
redata: Net charge of the system                    =     0.0000 |e|
redata: Min. number of SCF Iter                     =        1
redata: Max. number of SCF Iter                     =      200
redata: SCF convergence failure will abort job
redata: SCF mix quantity                            = Hamiltonian
redata: Mix DM or H after convergence               =   F
redata: Recompute H after scf cycle                 =   F
redata: Mix DM in first SCF step                    =   T
redata: Write Pulay info on disk                    =   F
redata: New DM Occupancy tolerance                  = 0.000000000001
redata: No kicks to SCF
redata: DM Mixing Weight for Kicks                  =     0.5000
redata: Require Harris convergence for SCF          =   F
redata: Harris energy tolerance for SCF             =     0.000100 eV
redata: Require DM convergence for SCF              =   T
redata: DM tolerance for SCF                        =     0.000008
redata: Require EDM convergence for SCF             =   F
redata: EDM tolerance for SCF                       =     0.001000 eV
redata: Require H convergence for SCF               =   T
redata: Hamiltonian tolerance for SCF               =     0.000001 eV
redata: Require (free) Energy convergence for SCF   =   F
redata: (free) Energy tolerance for SCF             =     0.000100 eV
redata: Using Saved Data (generic)                  =   F
redata: Use continuation files for DM               =   F
redata: Neglect nonoverlap interactions             =   F
redata: Method of Calculation                       = Diagonalization
redata: Electronic Temperature                      =   299.9978 K
redata: Fix the spin of the system                  =   F
redata: Dynamics option                             = CG coord. optimization
redata: Variable cell                               =   F
redata: Use continuation files for CG               =   F
redata: Max atomic displ per move                   =     0.3000 Ang
redata: Maximum number of optimization moves        =      185
redata: Force tolerance                             =     0.0050 eV/Ang
mix.SCF: Pulay mixing                            = Pulay
mix.SCF:    Variant                              = stable
mix.SCF:    History steps                        = 6
mix.SCF:    Linear mixing weight                 =     0.250000
mix.SCF:    Mixing weight                        =     0.250000
mix.SCF:    SVD condition                        = 0.1000E-07
mix.SCF:    Restart steps                        = 24
mix.SCF:    Restart save steps                   = 3
mix.SCF: Spin-component mixing                   all
redata: Save all siesta data in one NC              =   F
redata: ***********************************************************************

%block SCF.Mixers
  Pulay
%endblock SCF.Mixers

%block SCF.Mixer.Pulay
  # Mixing method
  method pulay
  variant stable

  # Mixing options
  weight 0.2500
  weight.linear 0.2500
  history 6
  restart 24
  restart.save 3
%endblock SCF.Mixer.Pulay

DM_history_depth set to one: no extrapolation allowed by default for geometry relaxation
Size of DM history Fstack: 1
Total number of electrons:    48.000000
Total ionic charge:    48.000000

* ProcessorY, Blocksize:    2  24


* Orbital distribution balance (max,min):    48    24


Time-reversal symmetry not used.

siesta: k-grid: Number of k-points =     1
siesta: k-grid: Cutoff (effective) =     5.100 Ang
siesta: k-grid: Supercell and displacements
siesta: k-grid:    1   0   0      0.000
siesta: k-grid:    0   1   0      0.000
siesta: k-grid:    0   0   1      0.000

diag: Algorithm                                     = ELPA-1stage
diag: Parallel over k                               =   F
diag: Use parallel 2D distribution                  =   T
diag: Parallel block-size                           = 24
diag: Parallel distribution                         =     2 x     2
diag: Used triangular part                          = Lower
diag: Absolute tolerance                            =  0.100E-15
diag: Orthogonalization factor                      =  0.100E-05
diag: Memory factor                                 =  1.0000


ts: **************************************************************
ts: Save H and S matrices                           =    F
ts: Save DM and EDM matrices                        =    F
ts: Only save the overlap matrix S                  =    F
ts: **************************************************************

************************ Begin: TS CHECKS AND WARNINGS ************************
************************ End: TS CHECKS AND WARNINGS **************************


                     ====================================
                        Begin CG opt. move =      0
                     ====================================

outcoor: Atomic coordinates (Ang):                          
   -0.56881961    4.34524352    0.00000000   1       1  N
   -2.32992763    4.42637028    0.00000000   2       2  Si
   -2.81141471    5.84109886    0.00000000   3       3  H
   -3.45564509    2.56877757    0.00000000   2       4  Si
   -5.73539138    2.30796450    0.00000000   2       5  Si
   -6.28456712    3.33692747    1.01958835   3       6  H
   -5.88421280    0.89031384    0.49090643   3       7  H
   -6.42683766    2.44522620   -1.34450875   3       8  H
   -1.95609568    0.89983937    0.00000000   2       9  Si
   -2.44373212   -0.60944701    0.00000000   4      10  O
   -0.23508565    1.50148166    0.00000000   1      11  N
    0.43654497    0.69577738    0.00000000   3      12  H
    0.62647601    3.06631013    0.00000000   2      13  Si
    2.17654236    3.42215836    0.00000000   4      14  O
   -0.07886564    5.28799143    0.00000000   3      15  H

outcell: Unit cell vectors (Ang):
       16.852737    0.000000    0.000000
        0.000000   14.157018    0.000000
        0.000000    0.000000   10.200593

outcell: Cell vector modules (Ang)   :   16.852737   14.157018   10.200593
outcell: Cell angles (23,13,12) (deg):     90.0000     90.0000     90.0000
outcell: Cell volume (Ang**3)        :   2433.7035
<dSpData1D:S at geom step 0
  <sparsity:sparsity for geom step 0
    nrows_g=147 nrows=48 sparsity=.3208 nnzs=6933, refcount: 8>
  <dData1D:(new from dSpData1D) n=6933, refcount: 1>
refcount: 1>
new_DM -- step:     1
Initializing Density Matrix...
DM filled with atomic data:
<dSpData2D:DM initialized from atoms
  <sparsity:sparsity for geom step 0
    nrows_g=147 nrows=48 sparsity=.3208 nnzs=6933, refcount: 9>
  <dData2D:DM n=6933 m=8, refcount: 1>
refcount: 1>
     spin moment: S , {S} =   26.00000   0.00000   0.00000  26.00000
No. of atoms with KB's overlaping orbs in proc 0. Max # of overlaps:      15     125

Initializing spin-orbit part of the Hamiltonian
  Adding spin-orbit effects for N 
  Adding spin-orbit effects for Si
  Adding spin-orbit effects for H 
  Adding spin-orbit effects for O 


New grid distribution:   1
           1       1:   96    1:   40    1:   30
           2       1:   96    1:   40   31:   60
           3       1:   96   41:   80    1:   30
           4       1:   96   41:   80   31:   60

InitMesh: MESH =   192 x   160 x   120 =     3686400
InitMesh: (bp) =    96 x    80 x    60 =      460800
InitMesh: Mesh cutoff (required, used) =   340.000   353.019 Ry
ExtMesh (bp) on 0 =   200 x   144 x   138 =     3974400
New grid distribution:   2
           1       1:   76    1:   18    1:   60
           2      77:   96    1:   18    1:   60
           3       1:   76   19:   80    1:   60
           4      77:   96   19:   80    1:   60
New grid distribution:   3
           1       1:   64    1:   21    1:   60
           2      65:   96    1:   29    1:   60
           3       1:   64   22:   80    1:   60
           4      65:   96   30:   80    1:   60
Setting up quadratic distribution...
ExtMesh (bp) on 0 =   180 x   122 x   168 =     3689280
PhiOnMesh: Number of (b)points on node 0 =                82080
PhiOnMesh: nlist on node 0 =              1335404

stepf: Fermi-Dirac step function

siesta: Program's energy decomposition (eV):
siesta: Ebs     =      -369.293086
siesta: Eions   =      1908.291957
siesta: Ena     =       161.839683
siesta: Ekin    =      1644.681654
siesta: Enl     =     -1404.949140
siesta: Eso     =        -0.002273
siesta: Edftu   =         0.000000
siesta: DEna    =        31.535947
siesta: DUscf   =        32.962681
siesta: DUext   =         0.000000
siesta: Exc     =      -579.380843
siesta: eta*DQ  =         0.000000
siesta: Emadel  =         0.000000
siesta: Emeta   =         0.000000
siesta: Emolmec =         0.000000
siesta: Ekinion =         0.000000
siesta: Eharris =     -1996.862161
siesta: Etot    =     -2021.604248
siesta: FreeEng =     -2021.606842

        iscf     Eharris(eV)        E_KS(eV)     FreeEng(eV)     dDmax    Ef(eV) dHmax(eV)
   scf:    1    -1996.862161    -2021.604248    -2021.606842  0.971798 -4.968010 20.534107
     spin moment: S , {S} =    0.01760   0.00001   0.00003   0.01760
timer: Routine,Calls,Time,% = IterSCF        1       5.877  12.53
   scf:    2    -2045.488684    -2037.071618    -2037.071624  0.134703 -4.813263  5.972702
     spin moment: S , {S} =    0.00009   0.00002   0.00002   0.00009
   scf:    3    -2039.381065    -2038.534001    -2038.534001  0.046311 -4.528045  4.504529
     spin moment: S , {S} =    0.00005   0.00001   0.00001   0.00005
   scf:    4    -2039.222132    -2038.898213    -2038.898213  0.027381 -4.252156  2.661836
     spin moment: S , {S} =    0.00003   0.00001   0.00001   0.00002
   scf:    5    -2039.194301    -2039.073374    -2039.073374  0.035627 -4.522736  1.454687
     spin moment: S , {S} =    0.00001   0.00000   0.00001   0.00001
   scf:    6    -2039.134286    -2039.145489    -2039.145489  0.021301 -4.573966  0.762025
     spin moment: S , {S} =    0.00001   0.00000   0.00000   0.00000
   scf:    7    -2039.186542    -2039.177578    -2039.177578  0.012470 -4.503003  0.347154
     spin moment: S , {S} =    0.00000   0.00000   0.00000   0.00000
   scf:    8    -2039.194646    -2039.186672    -2039.186672  0.005870 -4.524195  0.105937
     spin moment: S , {S} =    0.00000   0.00000   0.00000   0.00000
   scf:    9    -2039.194842    -2039.190483    -2039.190483  0.004894 -4.528180  0.054446
     spin moment: S , {S} =    0.00000   0.00000   0.00000   0.00000
   scf:   10    -2039.194520    -2039.192260    -2039.192260  0.004650 -4.526416  0.026068
     spin moment: S , {S} =    0.00000   0.00000   0.00000  -0.00000
   scf:   11    -2039.192988    -2039.192573    -2039.192573  0.002067 -4.522879  0.011770
     spin moment: S , {S} =    0.00000   0.00000   0.00000  -0.00000
   scf:   12    -2039.192663    -2039.192615    -2039.192615  0.000537 -4.519726  0.005935
     spin moment: S , {S} =    0.00000   0.00000   0.00000  -0.00000
   scf:   13    -2039.192662    -2039.192636    -2039.192636  0.000488 -4.517772  0.004055
     spin moment: S , {S} =    0.00000  -0.00000   0.00000  -0.00000
   scf:   14    -2039.192662    -2039.192648    -2039.192648  0.000455 -4.516938  0.002296
     spin moment: S , {S} =    0.00000  -0.00000   0.00000  -0.00000
   scf:   15    -2039.192656    -2039.192651    -2039.192651  0.000280 -4.516915  0.001705
     spin moment: S , {S} =    0.00000  -0.00000   0.00000  -0.00000
   scf:   16    -2039.192655    -2039.192653    -2039.192653  0.000244 -4.516855  0.000811
     spin moment: S , {S} =    0.00000  -0.00000   0.00000   0.00000
   scf:   17    -2039.192654    -2039.192654    -2039.192654  0.000124 -4.516884  0.000529
     spin moment: S , {S} =    0.00000  -0.00000   0.00000   0.00000
   scf:   18    -2039.192654    -2039.192654    -2039.192654  0.000077 -4.516936  0.000336
     spin moment: S , {S} =    0.00000  -0.00000   0.00000   0.00000
   scf:   19    -2039.192654    -2039.192654    -2039.192654  0.000054 -4.516940  0.000178
     spin moment: S , {S} =    0.00000  -0.00000   0.00000   0.00000
   scf:   20    -2039.192654    -2039.192654    -2039.192654  0.000021 -4.516926  0.000105
     spin moment: S , {S} =    0.00000  -0.00000   0.00000   0.00000
   scf:   21    -2039.192654    -2039.192654    -2039.192654  0.000017 -4.516905  0.000046
     spin moment: S , {S} =    0.00000  -0.00000   0.00000   0.00000
   scf:   22    -2039.192654    -2039.192654    -2039.192654  0.000005 -4.516902  0.000032
     spin moment: S , {S} =    0.00000  -0.00000   0.00000  -0.00000
   scf:   23    -2039.192654    -2039.192654    -2039.192654  0.000004 -4.516900  0.000021
     spin moment: S , {S} =    0.00000   0.00000   0.00000  -0.00000
   scf:   24    -2039.192654    -2039.192654    -2039.192654  0.000003 -4.516900  0.000008
     spin moment: S , {S} =    0.00000  -0.00000   0.00000  -0.00000
mix: Pulay -- resetting history
   scf:   25    -2039.192654    -2039.192654    -2039.192654  0.000001 -4.516899  0.000004
     spin moment: S , {S} =    0.00000   0.00000   0.00000  -0.00000
   scf:   26    -2039.192654    -2039.192654    -2039.192654  0.000000 -4.516898  0.000002
     spin moment: S , {S} =    0.00000   0.00000   0.00000  -0.00000
   scf:   27    -2039.192654    -2039.192654    -2039.192654  0.000000 -4.516898  0.000001
     spin moment: S , {S} =    0.00000  -0.00000   0.00000  -0.00000
   scf:   28    -2039.192654    -2039.192654    -2039.192654  0.000000 -4.516898  0.000001
     spin moment: S , {S} =    0.00000  -0.00000   0.00000  -0.00000

SCF Convergence by DM+H criterion
max |DM_out - DM_in|         :     0.0000000649
max |H_out - H_in|      (eV) :     0.0000005460
SCF cycle converged after 28 iterations

Using DM_out to compute the final energy and forces
No. of atoms with KB's overlaping orbs in proc 0. Max # of overlaps:      15     125

siesta: E_KS(eV) =            -2039.1927

siesta: E_KS - E_eggbox =     -2039.1927
     spin moment: S , {S} =    0.00000  -0.00000   0.00000  -0.00000

siesta: Atomic forces (eV/Ang):
     1    0.338242    0.913733    0.014484
     2   -0.692655   -0.249722   -0.053944
     3    0.223323    0.143700    0.010407
     4    0.050309    0.305653   -0.090827
     5   -0.502488    0.223268    0.380104
     6    0.056921   -0.380408   -0.413041
     7   -0.127376   -0.039680    0.173995
     8    0.157501    0.103721    0.079295
     9   -0.166097    0.501453   -0.048425
    10   -1.971127   -2.278662    0.005980
    11    0.031908    0.154005    0.012285
    12    0.488790   -0.342687    0.003973
    13    0.075578   -0.468142   -0.000020
    14    3.292573    2.422012   -0.002231
    15   -0.002673    0.100954    0.010825
----------------------------------------
   Tot    1.252729    1.109199    0.082859
----------------------------------------
   Max    3.292573
   Res    0.805638    sqrt( Sum f_i^2 / 3N )
----------------------------------------
   Max    3.292573    constrained

Stress tensor Voigt[x,y,z,yz,xz,xy] (kbar):       -2.09       -1.64        0.06        0.34        0.11        1.14
(Free)E + p*V (eV/cell)    -2037.3348
Target enthalpy (eV/cell)    -2039.1927

mulliken: Atomic and Orbital Populations:

Species: N                   

Atom      Orb        Charge      Spin       Svec
----------------------------------------------------------------
    1  1 2s         1.37200   0.00000      0.000   0.000  -0.000
    1  2 2s         0.12709   0.00000     -0.000  -0.000  -0.000
    1  3 2py        1.07162   0.00000     -0.000   0.000  -0.000
    1  4 2pz        1.54303   0.00000     -0.000   0.000  -0.000
    1  5 2px        0.98618   0.00000     -0.000   0.000  -0.000
    1  6 2py        0.19440   0.00000     -0.000  -0.000   0.000
    1  7 2pz        0.00315   0.00000      0.000  -0.000  -0.000
    1  8 2px        0.23972   0.00000      0.000  -0.000   0.000
    1  9 3Pdxy      0.00595   0.00000     -0.000   0.000   0.000
    1 10 3Pdyz      0.00145   0.00000     -0.000   0.000   0.000
    1 11 3Pdz2      0.00041   0.00000     -0.000  -0.000   0.000
    1 12 3Pdxz      0.00575   0.00000      0.000   0.000  -0.000
    1 13 3Pdx2-y2   0.00066   0.00000     -0.000   0.000  -0.000
    1     Total     5.55143   0.00000     -0.000   0.000  -0.000

   11  1 2s         1.40179   0.00000     -0.000   0.000  -0.000
   11  2 2s         0.11792   0.00000      0.000  -0.000   0.000
   11  3 2py        1.03234   0.00000      0.000   0.000  -0.000
   11  4 2pz        1.54096   0.00000      0.000   0.000  -0.000
   11  5 2px        1.04301   0.00000      0.000  -0.000  -0.000
   11  6 2py        0.21015   0.00000     -0.000  -0.000   0.000
   11  7 2pz        0.00700   0.00000     -0.000  -0.000  -0.000
   11  8 2px        0.20505   0.00000     -0.000   0.000   0.000
   11  9 3Pdxy      0.00710   0.00000      0.000  -0.000   0.000
   11 10 3Pdyz      0.00216   0.00000     -0.000   0.000  -0.000
   11 11 3Pdz2      0.00079   0.00000      0.000   0.000   0.000
   11 12 3Pdxz      0.00332   0.00000      0.000  -0.000   0.000
   11 13 3Pdx2-y2   0.00079   0.00000      0.000  -0.000  -0.000
   11     Total     5.57238   0.00000      0.000   0.000  -0.000

----------------------------------------------------------------
Total              11.12381   0.00000     -0.000   0.000  -0.000


Species: Si                  

Atom      Orb        Charge      Spin       Svec
----------------------------------------------------------------
    2  1 3s         0.71357   0.00000      0.000   0.000   0.000
    2  2 3s         0.36450   0.00000     -0.000  -0.000  -0.000
    2  3 3py        0.17312   0.00000      0.000   0.000   0.000
    2  4 3pz        0.61298   0.00000      0.000   0.000  -0.000
    2  5 3px        0.28005   0.00000      0.000   0.000  -0.000
    2  6 3py        0.50508   0.00000     -0.000   0.000   0.000
    2  7 3pz        0.15312   0.00000     -0.000  -0.000   0.000
    2  8 3px        0.29709   0.00000     -0.000  -0.000   0.000
    2  9 3Pdxy      0.12124   0.00000      0.000   0.000  -0.000
    2 10 3Pdyz      0.04426   0.00000      0.000   0.000  -0.000
    2 11 3Pdz2      0.00998   0.00000     -0.000   0.000   0.000
    2 12 3Pdxz      0.10429   0.00000     -0.000  -0.000  -0.000
    2 13 3Pdx2-y2   0.16289   0.00000      0.000  -0.000   0.000
    2     Total     3.54218   0.00000      0.000  -0.000  -0.000

    4  1 3s         0.82886   0.00000      0.000   0.000   0.000
    4  2 3s         0.32736   0.00000     -0.000  -0.000   0.000
    4  3 3py        0.43554   0.00000     -0.000   0.000   0.000
    4  4 3pz        0.63942   0.00000     -0.000   0.000   0.000
    4  5 3px        0.32659   0.00000      0.000  -0.000   0.000
    4  6 3py        0.31031   0.00000      0.000  -0.000   0.000
    4  7 3pz        0.26970   0.00000      0.000   0.000   0.000
    4  8 3px        0.40088   0.00000     -0.000   0.000  -0.000
    4  9 3Pdxy      0.13629   0.00000      0.000   0.000   0.000
    4 10 3Pdyz      0.03228   0.00000      0.000  -0.000  -0.000
    4 11 3Pdz2      0.01200   0.00000     -0.000   0.000   0.000
    4 12 3Pdxz      0.05640   0.00000      0.000  -0.000  -0.000
    4 13 3Pdx2-y2   0.09360   0.00000     -0.000   0.000   0.000
    4     Total     3.86924   0.00000      0.000   0.000   0.000

    5  1 3s         0.55344   0.00000      0.000   0.000   0.000
    5  2 3s         0.43681   0.00000     -0.000  -0.000   0.000
    5  3 3py        0.29735   0.00000      0.000   0.000   0.000
    5  4 3pz        0.24775   0.00000     -0.000  -0.000   0.000
    5  5 3px        0.48477   0.00000     -0.000   0.000  -0.000
    5  6 3py        0.40098   0.00000     -0.000  -0.000   0.000
    5  7 3pz        0.42103   0.00000      0.000   0.000   0.000
    5  8 3px        0.26083   0.00000      0.000  -0.000   0.000
    5  9 3Pdxy      0.03855   0.00000      0.000   0.000   0.000
    5 10 3Pdyz      0.04990   0.00000     -0.000  -0.000  -0.000
    5 11 3Pdz2      0.04722   0.00000      0.000  -0.000  -0.000
    5 12 3Pdxz      0.11322   0.00000      0.000  -0.000   0.000
    5 13 3Pdx2-y2   0.07813   0.00000     -0.000  -0.000  -0.000
    5     Total     3.42998   0.00000     -0.000  -0.000   0.000

    9  1 3s         0.57769   0.00000     -0.000  -0.000   0.000
    9  2 3s         0.38515   0.00000      0.000   0.000   0.000
    9  3 3py        0.13664   0.00000     -0.000   0.000   0.000
    9  4 3pz        0.42963   0.00000      0.000  -0.000   0.000
    9  5 3px        0.30102   0.00000     -0.000   0.000  -0.000
    9  6 3py        0.45495   0.00000      0.000  -0.000   0.000
    9  7 3pz        0.18386   0.00000     -0.000   0.000   0.000
    9  8 3px        0.30158   0.00000      0.000   0.000   0.000
    9  9 3Pdxy      0.29855   0.00000     -0.000  -0.000   0.000
    9 10 3Pdyz      0.17046   0.00000      0.000  -0.000   0.000
    9 11 3Pdz2      0.01569   0.00000      0.000  -0.000   0.000
    9 12 3Pdxz      0.08844   0.00000     -0.000   0.000   0.000
    9 13 3Pdx2-y2   0.20607   0.00000     -0.000   0.000   0.000
    9     Total     3.54974   0.00000     -0.000   0.000   0.000

   13  1 3s         0.45335   0.00000     -0.000  -0.000   0.000
   13  2 3s         0.37369   0.00000      0.000  -0.000   0.000
   13  3 3py        0.26081   0.00000      0.000   0.000   0.000
   13  4 3pz        0.40519   0.00000     -0.000  -0.000   0.000
   13  5 3px        0.08116   0.00000     -0.000  -0.000   0.000
   13  6 3py        0.28146   0.00000     -0.000  -0.000   0.000
   13  7 3pz        0.19829   0.00000      0.000  -0.000   0.000
   13  8 3px        0.45616   0.00000      0.000  -0.000   0.000
   13  9 3Pdxy      0.32902   0.00000     -0.000  -0.000   0.000
   13 10 3Pdyz      0.09553   0.00000     -0.000  -0.000   0.000
   13 11 3Pdz2      0.01547   0.00000     -0.000  -0.000   0.000
   13 12 3Pdxz      0.17869   0.00000     -0.000   0.000   0.000
   13 13 3Pdx2-y2   0.15397   0.00000      0.000   0.000   0.000
   13     Total     3.28280   0.00000     -0.000  -0.000   0.000

----------------------------------------------------------------
Total              28.79776   0.00000     -0.000   0.000   0.000


Species: H                   

Atom      Orb        Charge      Spin       Svec
----------------------------------------------------------------
    3  1 1s         1.04358   0.00000      0.000  -0.000  -0.000
    3  2 1s         0.08696   0.00000     -0.000  -0.000   0.000
    3  3 2Ppy       0.03468   0.00000      0.000  -0.000   0.000
    3  4 2Ppz       0.01862   0.00000     -0.000  -0.000  -0.000
    3  5 2Ppx       0.01218   0.00000     -0.000  -0.000  -0.000
    3     Total     1.19603   0.00000      0.000  -0.000  -0.000

    6  1 1s         1.07147   0.00000      0.000   0.000  -0.000
    6  2 1s         0.07562   0.00000     -0.000   0.000   0.000
    6  3 2Ppy       0.02127   0.00000      0.000   0.000   0.000
    6  4 2Ppz       0.02270   0.00000      0.000   0.000   0.000
    6  5 2Ppx       0.01218   0.00000      0.000   0.000  -0.000
    6     Total     1.20324   0.00000      0.000   0.000  -0.000

    7  1 1s         1.04868   0.00000     -0.000  -0.000  -0.000
    7  2 1s         0.08477   0.00000      0.000   0.000   0.000
    7  3 2Ppy       0.02718   0.00000     -0.000  -0.000   0.000
    7  4 2Ppz       0.01737   0.00000      0.000  -0.000  -0.000
    7  5 2Ppx       0.00984   0.00000      0.000  -0.000  -0.000
    7     Total     1.18784   0.00000     -0.000  -0.000  -0.000

    8  1 1s         1.06770   0.00000     -0.000   0.000  -0.000
    8  2 1s         0.07964   0.00000      0.000  -0.000   0.000
    8  3 2Ppy       0.01591   0.00000     -0.000   0.000  -0.000
    8  4 2Ppz       0.02536   0.00000      0.000   0.000   0.000
    8  5 2Ppx       0.01540   0.00000      0.000   0.000  -0.000
    8     Total     1.20402   0.00000     -0.000   0.000  -0.000

   12  1 1s         0.47850   0.00000      0.000  -0.000  -0.000
   12  2 1s         0.19360   0.00000     -0.000   0.000   0.000
   12  3 2Ppy       0.02312   0.00000      0.000  -0.000  -0.000
   12  4 2Ppz       0.03366   0.00000     -0.000  -0.000  -0.000
   12  5 2Ppx       0.02584   0.00000     -0.000  -0.000  -0.000
   12     Total     0.75473   0.00000     -0.000  -0.000  -0.000

   15  1 1s         0.48139   0.00000     -0.000   0.000  -0.000
   15  2 1s         0.18712   0.00000      0.000  -0.000   0.000
   15  3 2Ppy       0.02119   0.00000     -0.000  -0.000   0.000
   15  4 2Ppz       0.03173   0.00000      0.000  -0.000  -0.000
   15  5 2Ppx       0.02779   0.00000      0.000  -0.000  -0.000
   15     Total     0.74921   0.00000     -0.000  -0.000  -0.000

----------------------------------------------------------------
Total              35.09282   0.00000     -0.000   0.000   0.000


Species: O                   

Atom      Orb        Charge      Spin       Svec
----------------------------------------------------------------
   10  1 2s         1.74192   0.00000     -0.000  -0.000  -0.000
   10  2 2s         0.07065   0.00000      0.000   0.000  -0.000
   10  3 2py        1.46212   0.00000      0.000   0.000  -0.000
   10  4 2pz        1.51629   0.00000     -0.000  -0.000  -0.000
   10  5 2px        1.56488   0.00000      0.000   0.000  -0.000
   10  6 2py        0.04258   0.00000     -0.000  -0.000  -0.000
   10  7 2pz        0.00059   0.00000     -0.000   0.000  -0.000
   10  8 2px        0.02499   0.00000      0.000  -0.000   0.000
   10  9 3Pdxy      0.00840   0.00000     -0.000  -0.000   0.000
   10 10 3Pdyz      0.00977   0.00000      0.000   0.000   0.000
   10 11 3Pdz2      0.00172   0.00000      0.000  -0.000   0.000
   10 12 3Pdxz      0.00092   0.00000      0.000  -0.000   0.000
   10 13 3Pdx2-y2   0.00682   0.00000     -0.000   0.000   0.000
   10     Total     6.45165   0.00000     -0.000  -0.000  -0.000

   14  1 2s         1.75110   0.00000      0.000   0.000   0.000
   14  2 2s         0.06589   0.00000     -0.000  -0.000  -0.000
   14  3 2py        1.58462   0.00000      0.000  -0.000  -0.000
   14  4 2pz        1.54103   0.00000      0.000  -0.000  -0.000
   14  5 2px        1.40343   0.00000      0.000   0.000  -0.000
   14  6 2py        0.02565   0.00000     -0.000   0.000   0.000
   14  7 2pz        0.00334   0.00000     -0.000   0.000   0.000
   14  8 2px        0.05221   0.00000     -0.000  -0.000   0.000
   14  9 3Pdxy      0.00825   0.00000     -0.000  -0.000   0.000
   14 10 3Pdyz      0.00036   0.00000      0.000  -0.000  -0.000
   14 11 3Pdz2      0.00161   0.00000     -0.000  -0.000   0.000
   14 12 3Pdxz      0.01029   0.00000     -0.000  -0.000   0.000
   14 13 3Pdx2-y2   0.00774   0.00000     -0.000  -0.000   0.000
   14     Total     6.45553   0.00000      0.000  -0.000  -0.000

----------------------------------------------------------------
Total              48.00000   0.00000     -0.000   0.000  -0.000


                     ====================================
                        Begin CG opt. move =      1
                     ====================================

outcoor: Atomic coordinates (Ang):                          
   -0.55004366    4.39596525    0.00080399   1       1  N
   -2.36837721    4.41250810   -0.00299445   2       2  Si
   -2.79901793    5.84907573    0.00057768   3       3  H
   -3.45285239    2.58574450   -0.00504187   2       4  Si
   -5.76328470    2.32035822    0.02109975   2       5  Si
   -6.28140741    3.31581086    0.99666028   3       6  H
   -5.89128348    0.88811119    0.50056500   3       7  H
   -6.41809473    2.45098379   -1.34010704   3       8  H
   -1.96531580    0.92767526   -0.00268811   2       9  Si
   -2.55315031   -0.73593661    0.00033195   4      10  O
   -0.23331444    1.51003057    0.00068193   1      11  N
    0.46367790    0.67675467    0.00022054   3      12  H
    0.63067139    3.04032335   -0.00000112   2      13  Si
    2.35931462    3.55660539   -0.00012385   4      14  O
   -0.07901402    5.29359541    0.00060088   3      15  H

outcell: Unit cell vectors (Ang):
       16.852737    0.000000    0.000000
        0.000000   14.157018    0.000000
        0.000000    0.000000   10.200593

outcell: Cell vector modules (Ang)   :   16.852737   14.157018   10.200593
outcell: Cell angles (23,13,12) (deg):     90.0000     90.0000     90.0000
outcell: Cell volume (Ang**3)        :   2433.7035
<dSpData1D:S at geom step 1
  <sparsity:sparsity for geom step 1
    nrows_g=147 nrows=48 sparsity=.3205 nnzs=6925, refcount: 8>
  <dData1D:(new from dSpData1D) n=6925, refcount: 1>
refcount: 1>
new_DM -- step:     2
Re-using DM from previous geometries...
Number of DMs in history: 1
 DM extrapolation coefficients: 
1   1.00000
New DM after history re-use:
<dSpData2D:SpM extrapolated using coords
  <sparsity:sparsity for geom step 1
    nrows_g=147 nrows=48 sparsity=.3205 nnzs=6925, refcount: 10>
  <dData2D:(temp array for extrapolation) n=6925 m=8, refcount: 1>
refcount: 1>
     spin moment: S , {S} =    0.00000   0.00000   0.00000  -0.00000
Note: For starting DM, Qtot, Tr[D*S] =         48.00000000         47.70630878
No. of atoms with KB's overlaping orbs in proc 0. Max # of overlaps:      15     124
New grid distribution:   1
           1       1:   96    1:   40    1:   30
           2       1:   96    1:   40   31:   60
           3       1:   96   41:   80    1:   30
           4       1:   96   41:   80   31:   60

InitMesh: MESH =   192 x   160 x   120 =     3686400
InitMesh: (bp) =    96 x    80 x    60 =      460800
InitMesh: Mesh cutoff (required, used) =   340.000   353.019 Ry
ExtMesh (bp) on 0 =   200 x   144 x   138 =     3974400
New grid distribution:   2
           1       1:   76    1:   18    1:   60
           2      77:   96    1:   19    1:   60
           3       1:   76   19:   80    1:   60
           4      77:   96   20:   80    1:   60
New grid distribution:   3
           1       1:   64    1:   21    1:   60
           2      65:   96    1:   29    1:   60
           3       1:   64   22:   80    1:   60
           4      65:   96   30:   80    1:   60
Setting up quadratic distribution...
ExtMesh (bp) on 0 =   180 x   122 x   168 =     3689280
PhiOnMesh: Number of (b)points on node 0 =                82080
PhiOnMesh: nlist on node 0 =              1333432

        iscf     Eharris(eV)        E_KS(eV)     FreeEng(eV)     dDmax    Ef(eV) dHmax(eV)
   scf:    1    -2035.837796    -2037.027753    -2037.027753  0.100341 -4.400646  2.490990
     spin moment: S , {S} =    0.00000   0.00000   0.00000  -0.00000
   scf:    2    -2025.306812    -2034.011293    -2034.011294  0.140142 -4.664742  7.418488
     spin moment: S , {S} =    0.00000   0.00000   0.00000   0.00000
   scf:    3    -2038.918877    -2037.925438    -2037.925438  0.087503 -4.649313  0.778641
     spin moment: S , {S} =    0.00000  -0.00000   0.00000  -0.00000
   scf:    4    -2037.957423    -2037.950485    -2037.950485  0.009448 -4.645066  0.156252
     spin moment: S , {S} =    0.00000  -0.00000  -0.00000  -0.00000
   scf:    5    -2037.956505    -2037.954007    -2037.954007  0.002539 -4.633861  0.095814
     spin moment: S , {S} =    0.00000  -0.00000   0.00000  -0.00000
   scf:    6    -2037.955304    -2037.954776    -2037.954776  0.001604 -4.631574  0.048201
     spin moment: S , {S} =    0.00000  -0.00000   0.00000  -0.00000
   scf:    7    -2037.955033    -2037.954926    -2037.954926  0.001187 -4.632386  0.021814
     spin moment: S , {S} =    0.00000  -0.00000   0.00000  -0.00000
   scf:    8    -2037.954996    -2037.954965    -2037.954965  0.000559 -4.634990  0.009417
     spin moment: S , {S} =    0.00000  -0.00000   0.00000  -0.00000
   scf:    9    -2037.954980    -2037.954973    -2037.954973  0.000308 -4.636216  0.004232
     spin moment: S , {S} =    0.00000  -0.00000   0.00000  -0.00000
   scf:   10    -2037.954975    -2037.954974    -2037.954974  0.000169 -4.636721  0.001926
     spin moment: S , {S} =    0.00000  -0.00000   0.00000  -0.00000
   scf:   11    -2037.954975    -2037.954975    -2037.954975  0.000032 -4.636568  0.000881
     spin moment: S , {S} =    0.00000  -0.00000   0.00000  -0.00000
   scf:   12    -2037.954975    -2037.954975    -2037.954975  0.000034 -4.636616  0.000264
     spin moment: S , {S} =    0.00000  -0.00000   0.00000  -0.00000
   scf:   13    -2037.954975    -2037.954975    -2037.954975  0.000012 -4.636606  0.000082
     spin moment: S , {S} =    0.00000  -0.00000   0.00000  -0.00000
   scf:   14    -2037.954975    -2037.954975    -2037.954975  0.000004 -4.636605  0.000056
     spin moment: S , {S} =    0.00000  -0.00000   0.00000  -0.00000
   scf:   15    -2037.954975    -2037.954975    -2037.954975  0.000001 -4.636603  0.000024
     spin moment: S , {S} =    0.00000  -0.00000   0.00000  -0.00000
   scf:   16    -2037.954975    -2037.954975    -2037.954975  0.000000 -4.636602  0.000013
     spin moment: S , {S} =    0.00000  -0.00000   0.00000  -0.00000
   scf:   17    -2037.954975    -2037.954975    -2037.954975  0.000000 -4.636603  0.000006
     spin moment: S , {S} =    0.00000  -0.00000   0.00000  -0.00000
   scf:   18    -2037.954975    -2037.954975    -2037.954975  0.000000 -4.636605  0.000001
     spin moment: S , {S} =    0.00000  -0.00000   0.00000  -0.00000
   scf:   19    -2037.954975    -2037.954975    -2037.954975  0.000000 -4.636606  0.000001
     spin moment: S , {S} =    0.00000  -0.00000   0.00000  -0.00000
   scf:   20    -2037.954975    -2037.954975    -2037.954975  0.000000 -4.636606  0.000000
     spin moment: S , {S} =    0.00000  -0.00000   0.00000  -0.00000

SCF Convergence by DM+H criterion
max |DM_out - DM_in|         :     0.0000000288
max |H_out - H_in|      (eV) :     0.0000003441
SCF cycle converged after 20 iterations

Using DM_out to compute the final energy and forces
No. of atoms with KB's overlaping orbs in proc 0. Max # of overlaps:      15     124

siesta: E_KS(eV) =            -2037.9550
     spin moment: S , {S} =    0.00000  -0.00000   0.00000  -0.00000

siesta: Atomic forces (eV/Ang):
     1   -1.240221   -2.082499    0.004467
     2    1.081190    0.889627   -0.026177
     3   -0.178316    0.000688   -0.000340
     4   -0.808102   -0.409236   -0.086890
     5    0.148335   -0.548647   -0.240892
     6   -0.261124    0.209967    0.221393
     7   -0.035757    0.107036    0.131217
     8    0.117660    0.132645    0.067630
     9   -1.651276   -4.213958   -0.018822
    10    3.956802    6.335965   -0.085725
    11    0.660274   -1.374695    0.004143
    12   -0.477085    0.511887    0.004069
    13    4.728968    2.663918    0.000030
    14   -3.019625   -4.545603    0.023598
    15    0.893020    1.905295    0.003041
----------------------------------------
   Tot    3.914743   -0.417610    0.000744
----------------------------------------
   Max    6.335965
   Res    1.838361    sqrt( Sum f_i^2 / 3N )
----------------------------------------
   Max    6.335965    constrained

Stress tensor Voigt[x,y,z,yz,xz,xy] (kbar):        5.57        2.66       -0.35       -0.11        0.29        2.69
(Free)E + p*V (eV/cell)    -2041.9474
Target enthalpy (eV/cell)    -2037.9550

mulliken: Atomic and Orbital Populations:

Species: N                   

Atom      Orb        Charge      Spin       Svec
----------------------------------------------------------------
    1  1 2s         1.38738   0.00000      0.000   0.000   0.000
    1  2 2s         0.12166   0.00000     -0.000  -0.000  -0.000
    1  3 2py        1.08184   0.00000      0.000  -0.000  -0.000
    1  4 2pz        1.53347   0.00000     -0.000   0.000  -0.000
    1  5 2px        1.01295   0.00000     -0.000   0.000  -0.000
    1  6 2py        0.19518   0.00000     -0.000   0.000   0.000
    1  7 2pz        0.00284   0.00000     -0.000  -0.000   0.000
    1  8 2px        0.21637   0.00000      0.000  -0.000   0.000
    1  9 3Pdxy      0.00653   0.00000      0.000  -0.000   0.000
    1 10 3Pdyz      0.00141   0.00000     -0.000   0.000   0.000
    1 11 3Pdz2      0.00112   0.00000     -0.000   0.000   0.000
    1 12 3Pdxz      0.00534   0.00000     -0.000   0.000  -0.000
    1 13 3Pdx2-y2   0.00079   0.00000     -0.000  -0.000  -0.000
    1     Total     5.56689   0.00000     -0.000   0.000   0.000

   11  1 2s         1.40813   0.00000     -0.000  -0.000  -0.000
   11  2 2s         0.11574   0.00000      0.000   0.000   0.000
   11  3 2py        1.02238   0.00000      0.000  -0.000  -0.000
   11  4 2pz        1.53774   0.00000      0.000  -0.000   0.000
   11  5 2px        1.04145   0.00000      0.000  -0.000   0.000
   11  6 2py        0.21252   0.00000     -0.000   0.000   0.000
   11  7 2pz        0.00725   0.00000     -0.000   0.000  -0.000
   11  8 2px        0.20109   0.00000     -0.000   0.000   0.000
   11  9 3Pdxy      0.00970   0.00000      0.000   0.000  -0.000
   11 10 3Pdyz      0.00248   0.00000     -0.000   0.000   0.000
   11 11 3Pdz2      0.00212   0.00000      0.000   0.000  -0.000
   11 12 3Pdxz      0.00366   0.00000     -0.000   0.000   0.000
   11 13 3Pdx2-y2   0.00132   0.00000      0.000  -0.000   0.000
   11     Total     5.56556   0.00000     -0.000  -0.000   0.000

----------------------------------------------------------------
Total              11.13245   0.00000     -0.000  -0.000   0.000


Species: Si                  

Atom      Orb        Charge      Spin       Svec
----------------------------------------------------------------
    2  1 3s         0.72064   0.00000      0.000  -0.000   0.000
    2  2 3s         0.36474   0.00000      0.000   0.000  -0.000
    2  3 3py        0.16485   0.00000     -0.000   0.000  -0.000
    2  4 3pz        0.60346   0.00000      0.000  -0.000  -0.000
    2  5 3px        0.26817   0.00000      0.000  -0.000   0.000
    2  6 3py        0.51249   0.00000      0.000  -0.000   0.000
    2  7 3pz        0.15603   0.00000      0.000   0.000   0.000
    2  8 3px        0.29709   0.00000     -0.000   0.000  -0.000
    2  9 3Pdxy      0.11084   0.00000     -0.000   0.000  -0.000
    2 10 3Pdyz      0.05036   0.00000     -0.000   0.000   0.000
    2 11 3Pdz2      0.00957   0.00000      0.000   0.000  -0.000
    2 12 3Pdxz      0.10087   0.00000      0.000   0.000  -0.000
    2 13 3Pdx2-y2   0.16940   0.00000     -0.000  -0.000  -0.000
    2     Total     3.52852   0.00000      0.000  -0.000   0.000

    4  1 3s         0.82223   0.00000      0.000   0.000   0.000
    4  2 3s         0.32967   0.00000     -0.000  -0.000  -0.000
    4  3 3py        0.41254   0.00000      0.000   0.000   0.000
    4  4 3pz        0.61348   0.00000      0.000   0.000  -0.000
    4  5 3px        0.31446   0.00000      0.000  -0.000  -0.000
    4  6 3py        0.32402   0.00000     -0.000  -0.000  -0.000
    4  7 3pz        0.28214   0.00000     -0.000   0.000   0.000
    4  8 3px        0.41294   0.00000     -0.000   0.000   0.000
    4  9 3Pdxy      0.13599   0.00000      0.000  -0.000   0.000
    4 10 3Pdyz      0.03625   0.00000     -0.000   0.000  -0.000
    4 11 3Pdz2      0.01278   0.00000      0.000  -0.000   0.000
    4 12 3Pdxz      0.05684   0.00000     -0.000   0.000  -0.000
    4 13 3Pdx2-y2   0.10222   0.00000     -0.000   0.000  -0.000
    4     Total     3.85557   0.00000      0.000   0.000  -0.000

    5  1 3s         0.53893   0.00000     -0.000   0.000   0.000
    5  2 3s         0.44542   0.00000      0.000  -0.000  -0.000
    5  3 3py        0.28656   0.00000      0.000   0.000  -0.000
    5  4 3pz        0.24507   0.00000      0.000  -0.000  -0.000
    5  5 3px        0.49121   0.00000     -0.000  -0.000  -0.000
    5  6 3py        0.41172   0.00000     -0.000  -0.000   0.000
    5  7 3pz        0.42805   0.00000     -0.000   0.000   0.000
    5  8 3px        0.24909   0.00000      0.000  -0.000   0.000
    5  9 3Pdxy      0.03707   0.00000     -0.000  -0.000  -0.000
    5 10 3Pdyz      0.05087   0.00000     -0.000   0.000  -0.000
    5 11 3Pdz2      0.04981   0.00000     -0.000  -0.000  -0.000
    5 12 3Pdxz      0.10260   0.00000     -0.000   0.000   0.000
    5 13 3Pdx2-y2   0.07795   0.00000      0.000  -0.000   0.000
    5     Total     3.41437   0.00000     -0.000  -0.000  -0.000

    9  1 3s         0.67195   0.00000     -0.000   0.000   0.000
    9  2 3s         0.36379   0.00000      0.000  -0.000  -0.000
    9  3 3py        0.17331   0.00000     -0.000   0.000  -0.000
    9  4 3pz        0.48334   0.00000     -0.000   0.000   0.000
    9  5 3px        0.33409   0.00000     -0.000   0.000   0.000
    9  6 3py        0.42704   0.00000      0.000   0.000   0.000
    9  7 3pz        0.15283   0.00000      0.000   0.000   0.000
    9  8 3px        0.27103   0.00000      0.000  -0.000  -0.000
    9  9 3Pdxy      0.25446   0.00000     -0.000  -0.000   0.000
    9 10 3Pdyz      0.14796   0.00000      0.000   0.000   0.000
    9 11 3Pdz2      0.01513   0.00000     -0.000   0.000   0.000
    9 12 3Pdxz      0.08652   0.00000     -0.000   0.000   0.000
    9 13 3Pdx2-y2   0.19533   0.00000     -0.000   0.000  -0.000
    9     Total     3.57678   0.00000     -0.000   0.000   0.000

   13  1 3s         0.62186   0.00000     -0.000  -0.000  -0.000
   13  2 3s         0.33001   0.00000      0.000   0.000   0.000
   13  3 3py        0.29909   0.00000      0.000   0.000  -0.000
   13  4 3pz        0.45067   0.00000     -0.000   0.000   0.000
   13  5 3px        0.10965   0.00000      0.000   0.000   0.000
   13  6 3py        0.24812   0.00000     -0.000  -0.000  -0.000
   13  7 3pz        0.16208   0.00000     -0.000   0.000  -0.000
   13  8 3px        0.42619   0.00000     -0.000   0.000  -0.000
   13  9 3Pdxy      0.28241   0.00000     -0.000  -0.000  -0.000
   13 10 3Pdyz      0.09680   0.00000     -0.000   0.000  -0.000
   13 11 3Pdz2      0.01471   0.00000      0.000   0.000   0.000
   13 12 3Pdxz      0.15256   0.00000     -0.000  -0.000   0.000
   13 13 3Pdx2-y2   0.14102   0.00000     -0.000  -0.000  -0.000
   13     Total     3.33517   0.00000     -0.000   0.000   0.000

----------------------------------------------------------------
Total              28.84286   0.00000     -0.000   0.000   0.000


Species: H                   

Atom      Orb        Charge      Spin       Svec
----------------------------------------------------------------
    3  1 1s         1.04713   0.00000      0.000  -0.000  -0.000
    3  2 1s         0.08521   0.00000     -0.000   0.000  -0.000
    3  3 2Ppy       0.03507   0.00000      0.000   0.000  -0.000
    3  4 2Ppz       0.01832   0.00000      0.000  -0.000   0.000
    3  5 2Ppx       0.01045   0.00000     -0.000  -0.000  -0.000
    3     Total     1.19618   0.00000      0.000  -0.000  -0.000

    6  1 1s         1.05880   0.00000      0.000  -0.000   0.000
    6  2 1s         0.08544   0.00000     -0.000   0.000  -0.000
    6  3 2Ppy       0.02111   0.00000     -0.000   0.000   0.000
    6  4 2Ppz       0.02247   0.00000     -0.000  -0.000   0.000
    6  5 2Ppx       0.01234   0.00000      0.000   0.000  -0.000
    6     Total     1.20017   0.00000      0.000  -0.000   0.000

    7  1 1s         1.04735   0.00000     -0.000   0.000   0.000
    7  2 1s         0.08379   0.00000      0.000  -0.000  -0.000
    7  3 2Ppy       0.02864   0.00000     -0.000  -0.000  -0.000
    7  4 2Ppz       0.01728   0.00000     -0.000   0.000  -0.000
    7  5 2Ppx       0.00957   0.00000      0.000   0.000   0.000
    7     Total     1.18663   0.00000     -0.000   0.000   0.000

    8  1 1s         1.06608   0.00000      0.000   0.000   0.000
    8  2 1s         0.08024   0.00000     -0.000  -0.000  -0.000
    8  3 2Ppy       0.01616   0.00000      0.000  -0.000   0.000
    8  4 2Ppz       0.02566   0.00000      0.000   0.000  -0.000
    8  5 2Ppx       0.01457   0.00000      0.000  -0.000  -0.000
    8     Total     1.20271   0.00000      0.000   0.000   0.000

   12  1 1s         0.49525   0.00000      0.000   0.000   0.000
   12  2 1s         0.17839   0.00000      0.000   0.000  -0.000
   12  3 2Ppy       0.02198   0.00000     -0.000  -0.000   0.000
   12  4 2Ppz       0.02992   0.00000      0.000  -0.000  -0.000
   12  5 2Ppx       0.02467   0.00000     -0.000  -0.000  -0.000
   12     Total     0.75021   0.00000      0.000  -0.000   0.000

   15  1 1s         0.44225   0.00000     -0.000   0.000   0.000
   15  2 1s         0.21019   0.00000      0.000  -0.000  -0.000
   15  3 2Ppy       0.02186   0.00000     -0.000   0.000  -0.000
   15  4 2Ppz       0.03564   0.00000     -0.000  -0.000  -0.000
   15  5 2Ppx       0.02873   0.00000      0.000  -0.000  -0.000
   15     Total     0.73868   0.00000     -0.000  -0.000   0.000

----------------------------------------------------------------
Total              35.11745   0.00000     -0.000   0.000   0.000


Species: O                   

Atom      Orb        Charge      Spin       Svec
----------------------------------------------------------------
   10  1 2s         1.83098   0.00000     -0.000  -0.000   0.000
   10  2 2s         0.03447   0.00000      0.000  -0.000  -0.000
   10  3 2py        1.40458   0.00000      0.000  -0.000  -0.000
   10  4 2pz        1.55086   0.00000      0.000  -0.000  -0.000
   10  5 2px        1.59172   0.00000      0.000   0.000  -0.000
   10  6 2py        0.02226   0.00000     -0.000   0.000   0.000
   10  7 2pz       -0.01540   0.00000      0.000   0.000  -0.000
   10  8 2px        0.00400   0.00000      0.000  -0.000   0.000
   10  9 3Pdxy      0.00635   0.00000      0.000  -0.000   0.000
   10 10 3Pdyz      0.00645   0.00000     -0.000  -0.000   0.000
   10 11 3Pdz2      0.00178   0.00000      0.000  -0.000   0.000
   10 12 3Pdxz      0.00077   0.00000     -0.000   0.000  -0.000
   10 13 3Pdx2-y2   0.00561   0.00000     -0.000   0.000   0.000
   10     Total     6.44441   0.00000      0.000  -0.000  -0.000

   14  1 2s         1.84221   0.00000     -0.000   0.000   0.000
   14  2 2s         0.03123   0.00000      0.000  -0.000  -0.000
   14  3 2py        1.61551   0.00000      0.000  -0.000   0.000
   14  4 2pz        1.59895   0.00000      0.000  -0.000  -0.000
   14  5 2px        1.31565   0.00000      0.000   0.000   0.000
   14  6 2py        0.00057   0.00000      0.000  -0.000  -0.000
   14  7 2pz       -0.01490   0.00000      0.000  -0.000   0.000
   14  8 2px        0.02919   0.00000      0.000   0.000  -0.000
   14  9 3Pdxy      0.00580   0.00000     -0.000   0.000  -0.000
   14 10 3Pdyz      0.00044   0.00000      0.000   0.000   0.000
   14 11 3Pdz2      0.00167   0.00000      0.000  -0.000  -0.000
   14 12 3Pdxz      0.00609   0.00000     -0.000   0.000   0.000
   14 13 3Pdx2-y2   0.00573   0.00000      0.000   0.000  -0.000
   14     Total     6.43814   0.00000      0.000  -0.000  -0.000

----------------------------------------------------------------
Total              48.00000   0.00000     -0.000   0.000  -0.000


                     ====================================
                        Begin CG opt. move =      2
                     ====================================

outcoor: Atomic coordinates (Ang):                          
   -0.56191607    4.36389289    0.00029561   1       1  N
   -2.34406478    4.42127343   -0.00110100   2       2  Si
   -2.80685666    5.84403179    0.00021240   3       3  H
   -3.45461827    2.57501597   -0.00185380   2       4  Si
   -5.74564720    2.31252142    0.00775796   2       5  Si
   -6.28340536    3.32916331    1.01115815   3       6  H
   -5.88681255    0.88950397    0.49445769   3       7  H
   -6.42362306    2.44734315   -1.34289033   3       8  H
   -1.95948574    0.91007408   -0.00098836   2       9  Si
   -2.48396301   -0.65595472    0.00012205   4      10  O
   -0.23443441    1.50462492    0.00025073   1      11  N
    0.44652121    0.68878311    0.00008109   3      12  H
    0.62801857    3.05675531   -0.00000041   2      13  Si
    2.24374409    3.47159186   -0.00004554   4      14  O
   -0.07892019    5.29005190    0.00022093   3      15  H

outcell: Unit cell vectors (Ang):
       16.852737    0.000000    0.000000
        0.000000   14.157018    0.000000
        0.000000    0.000000   10.200593

outcell: Cell vector modules (Ang)   :   16.852737   14.157018   10.200593
outcell: Cell angles (23,13,12) (deg):     90.0000     90.0000     90.0000
outcell: Cell volume (Ang**3)        :   2433.7035
<dSpData1D:S at geom step 2
  <sparsity:sparsity for geom step 2
    nrows_g=147 nrows=48 sparsity=.3208 nnzs=6933, refcount: 8>
  <dData1D:(new from dSpData1D) n=6933, refcount: 1>
refcount: 1>
new_DM -- step:     3
Re-using DM from previous geometries...
Number of DMs in history: 1
 DM extrapolation coefficients: 
1   1.00000
New DM after history re-use:
<dSpData2D:SpM extrapolated using coords
  <sparsity:sparsity for geom step 2
    nrows_g=147 nrows=48 sparsity=.3208 nnzs=6933, refcount: 10>
  <dData2D:(temp array for extrapolation) n=6933 m=8, refcount: 1>
refcount: 1>
     spin moment: S , {S} =    0.00000  -0.00000   0.00000   0.00000
Note: For starting DM, Qtot, Tr[D*S] =         48.00000000         48.16179098
No. of atoms with KB's overlaping orbs in proc 0. Max # of overlaps:      15     125
New grid distribution:   1
           1       1:   96    1:   40    1:   30
           2       1:   96    1:   40   31:   60
           3       1:   96   41:   80    1:   30
           4       1:   96   41:   80   31:   60

InitMesh: MESH =   192 x   160 x   120 =     3686400
InitMesh: (bp) =    96 x    80 x    60 =      460800
InitMesh: Mesh cutoff (required, used) =   340.000   353.019 Ry
ExtMesh (bp) on 0 =   200 x   144 x   138 =     3974400
New grid distribution:   2
           1       1:   76    1:   18    1:   60
           2      77:   96    1:   18    1:   60
           3       1:   76   19:   80    1:   60
           4      77:   96   19:   80    1:   60
New grid distribution:   3
           1       1:   64    1:   21    1:   60
           2      65:   96    1:   29    1:   60
           3       1:   64   22:   80    1:   60
           4      65:   96   30:   80    1:   60
Setting up quadratic distribution...
ExtMesh (bp) on 0 =   180 x   122 x   168 =     3689280
PhiOnMesh: Number of (b)points on node 0 =                82080
PhiOnMesh: nlist on node 0 =              1334845

        iscf     Eharris(eV)        E_KS(eV)     FreeEng(eV)     dDmax    Ef(eV) dHmax(eV)
   scf:    1    -2037.686293    -2038.639185    -2038.639185  0.065087 -4.719781  1.209580
     spin moment: S , {S} =    0.00000   0.00000   0.00000  -0.00000
   scf:    2    -2035.723533    -2037.880089    -2037.880089  0.079669 -4.611992  3.594810
     spin moment: S , {S} =    0.00000   0.00000   0.00000  -0.00000
   scf:    3    -2039.074904    -2038.859463    -2038.859463  0.062271 -4.169632  0.236523
     spin moment: S , {S} =    0.00000  -0.00000   0.00000   0.00000
   scf:    4    -2038.866775    -2038.864653    -2038.864653  0.003660 -4.216613  0.060013
     spin moment: S , {S} =    0.00000  -0.00000   0.00000  -0.00000
   scf:    5    -2038.865473    -2038.865142    -2038.865142  0.000836 -4.226847  0.033566
     spin moment: S , {S} =    0.00000  -0.00000   0.00000  -0.00000
   scf:    6    -2038.865349    -2038.865260    -2038.865260  0.000716 -4.230950  0.015050
     spin moment: S , {S} =    0.00000  -0.00000   0.00000  -0.00000
   scf:    7    -2038.865298    -2038.865281    -2038.865281  0.000468 -4.232573  0.006303
     spin moment: S , {S} =    0.00000  -0.00000   0.00000  -0.00000
   scf:    8    -2038.865288    -2038.865285    -2038.865285  0.000198 -4.232123  0.001721
     spin moment: S , {S} =    0.00000  -0.00000   0.00000  -0.00000
   scf:    9    -2038.865285    -2038.865285    -2038.865285  0.000071 -4.232090  0.000333
     spin moment: S , {S} =    0.00000  -0.00000   0.00000  -0.00000
   scf:   10    -2038.865285    -2038.865285    -2038.865285  0.000007 -4.232079  0.000201
     spin moment: S , {S} =    0.00000  -0.00000   0.00000  -0.00000
   scf:   11    -2038.865285    -2038.865285    -2038.865285  0.000010 -4.232080  0.000125
     spin moment: S , {S} =    0.00000  -0.00000   0.00000  -0.00000
   scf:   12    -2038.865285    -2038.865285    -2038.865285  0.000003 -4.232060  0.000030
     spin moment: S , {S} =    0.00000  -0.00000   0.00000  -0.00000
   scf:   13    -2038.865285    -2038.865285    -2038.865285  0.000001 -4.232053  0.000016
     spin moment: S , {S} =    0.00000  -0.00000   0.00000  -0.00000
   scf:   14    -2038.865285    -2038.865285    -2038.865285  0.000000 -4.232051  0.000010
     spin moment: S , {S} =    0.00000  -0.00000   0.00000  -0.00000
   scf:   15    -2038.865285    -2038.865285    -2038.865285  0.000000 -4.232049  0.000005
     spin moment: S , {S} =    0.00000  -0.00000   0.00000  -0.00000
   scf:   16    -2038.865285    -2038.865285    -2038.865285  0.000000 -4.232048  0.000002
     spin moment: S , {S} =    0.00000  -0.00000   0.00000  -0.00000
[...]
    11    0.065072    0.037030   -0.040764
    12    0.036527   -0.095897    0.027955
    13   -0.028839    0.067637   -0.028689
    14   -0.038941   -0.003421   -0.174348
    15   -0.031700    0.033870    0.038726
----------------------------------------
   Tot   -0.304727    0.479772    0.085311
----------------------------------------
   Max    0.637677
   Res    0.146588    sqrt( Sum f_i^2 / 3N )
----------------------------------------
   Max    0.637677    constrained

Stress tensor Voigt[x,y,z,yz,xz,xy] (kbar):        2.42        2.06       -0.37       -0.16       -0.20        1.48
(Free)E + p*V (eV/cell)    -2041.5306
Target enthalpy (eV/cell)    -2039.4494

mulliken: Atomic and Orbital Populations:

Species: N                   

Atom      Orb        Charge      Spin       Svec
----------------------------------------------------------------
    1  1 2s         1.40862   0.00000      0.000   0.000   0.000
    1  2 2s         0.11334   0.00000     -0.000  -0.000  -0.000
    1  3 2py        1.07584   0.00000      0.000  -0.000   0.000
    1  4 2pz        1.52848   0.00000      0.000   0.000   0.000
    1  5 2px        1.01524   0.00000      0.000  -0.000   0.000
    1  6 2py        0.18602   0.00000     -0.000   0.000  -0.000
    1  7 2pz        0.00281   0.00000     -0.000  -0.000  -0.000
    1  8 2px        0.21343   0.00000     -0.000   0.000  -0.000
    1  9 3Pdxy      0.00674   0.00000      0.000  -0.000   0.000
    1 10 3Pdyz      0.00156   0.00000      0.000  -0.000   0.000
    1 11 3Pdz2      0.00074   0.00000     -0.000   0.000   0.000
    1 12 3Pdxz      0.00427   0.00000     -0.000  -0.000  -0.000
    1 13 3Pdx2-y2   0.00126   0.00000     -0.000   0.000  -0.000
    1     Total     5.55834   0.00000      0.000   0.000   0.000

   11  1 2s         1.43054   0.00000     -0.000  -0.000   0.000
   11  2 2s         0.10661   0.00000      0.000  -0.000  -0.000
   11  3 2py        1.02732   0.00000      0.000  -0.000  -0.000
   11  4 2pz        1.53482   0.00000     -0.000  -0.000   0.000
   11  5 2px        1.06252   0.00000      0.000  -0.000   0.000
   11  6 2py        0.20262   0.00000     -0.000   0.000   0.000
   11  7 2pz        0.00725   0.00000      0.000   0.000  -0.000
   11  8 2px        0.18503   0.00000     -0.000   0.000  -0.000
   11  9 3Pdxy      0.00800   0.00000      0.000   0.000  -0.000
   11 10 3Pdyz      0.00218   0.00000      0.000  -0.000   0.000
   11 11 3Pdz2      0.00119   0.00000     -0.000   0.000  -0.000
   11 12 3Pdxz      0.00277   0.00000      0.000  -0.000   0.000
   11 13 3Pdx2-y2   0.00113   0.00000     -0.000  -0.000  -0.000
   11     Total     5.57196   0.00000     -0.000  -0.000   0.000

----------------------------------------------------------------
Total              11.13031   0.00000      0.000  -0.000   0.000


Species: Si                  

Atom      Orb        Charge      Spin       Svec
----------------------------------------------------------------
    2  1 3s         0.73941   0.00000     -0.000  -0.000   0.000
    2  2 3s         0.37538   0.00000      0.000   0.000  -0.000
    2  3 3py        0.20319   0.00000      0.000  -0.000  -0.000
    2  4 3pz        0.53194   0.00000     -0.000  -0.000   0.000
    2  5 3px        0.29596   0.00000      0.000   0.000   0.000
    2  6 3py        0.48850   0.00000     -0.000   0.000   0.000
    2  7 3pz        0.14559   0.00000      0.000   0.000  -0.000
    2  8 3px        0.27436   0.00000     -0.000   0.000  -0.000
    2  9 3Pdxy      0.10000   0.00000     -0.000  -0.000   0.000
    2 10 3Pdyz      0.04172   0.00000     -0.000   0.000   0.000
    2 11 3Pdz2      0.02459   0.00000     -0.000  -0.000  -0.000
    2 12 3Pdxz      0.09954   0.00000     -0.000   0.000   0.000
    2 13 3Pdx2-y2   0.14742   0.00000     -0.000   0.000  -0.000
    2     Total     3.46759   0.00000     -0.000  -0.000   0.000

    4  1 3s         0.93340   0.00000      0.000   0.000  -0.000
    4  2 3s         0.31659   0.00000     -0.000  -0.000   0.000
    4  3 3py        0.57287   0.00000     -0.000   0.000  -0.000
    4  4 3pz        0.74770   0.00000      0.000  -0.000  -0.000
    4  5 3px        0.53201   0.00000      0.000  -0.000   0.000
    4  6 3py        0.22507   0.00000     -0.000  -0.000   0.000
    4  7 3pz        0.16822   0.00000     -0.000   0.000   0.000
    4  8 3px        0.26748   0.00000     -0.000   0.000  -0.000
    4  9 3Pdxy      0.10972   0.00000     -0.000  -0.000  -0.000
    4 10 3Pdyz      0.04636   0.00000      0.000  -0.000  -0.000
    4 11 3Pdz2      0.03030   0.00000     -0.000   0.000   0.000
    4 12 3Pdxz      0.06152   0.00000     -0.000   0.000   0.000
    4 13 3Pdx2-y2   0.06971   0.00000     -0.000   0.000  -0.000
    4     Total     4.08095   0.00000      0.000   0.000  -0.000

    5  1 3s         0.52073   0.00000     -0.000  -0.000  -0.000
    5  2 3s         0.45734   0.00000      0.000   0.000   0.000
    5  3 3py        0.23308   0.00000      0.000   0.000   0.000
    5  4 3pz        0.31346   0.00000     -0.000  -0.000  -0.000
    5  5 3px        0.45102   0.00000     -0.000  -0.000   0.000
    5  6 3py        0.42722   0.00000     -0.000  -0.000  -0.000
    5  7 3pz        0.37964   0.00000      0.000   0.000   0.000
    5  8 3px        0.27798   0.00000      0.000  -0.000  -0.000
    5  9 3Pdxy      0.04113   0.00000     -0.000   0.000  -0.000
    5 10 3Pdyz      0.05784   0.00000     -0.000   0.000   0.000
    5 11 3Pdz2      0.03841   0.00000     -0.000  -0.000  -0.000
    5 12 3Pdxz      0.09012   0.00000     -0.000   0.000  -0.000
    5 13 3Pdx2-y2   0.06426   0.00000     -0.000   0.000   0.000
    5     Total     3.35223   0.00000     -0.000   0.000   0.000

    9  1 3s         0.61790   0.00000      0.000   0.000  -0.000
    9  2 3s         0.38323   0.00000     -0.000  -0.000  -0.000
    9  3 3py        0.14208   0.00000     -0.000   0.000   0.000
    9  4 3pz        0.41163   0.00000      0.000   0.000  -0.000
    9  5 3px        0.30400   0.00000     -0.000  -0.000   0.000
    9  6 3py        0.44694   0.00000      0.000  -0.000   0.000
    9  7 3pz        0.17512   0.00000      0.000  -0.000   0.000
    9  8 3px        0.27926   0.00000      0.000   0.000  -0.000
    9  9 3Pdxy      0.27475   0.00000      0.000  -0.000   0.000
    9 10 3Pdyz      0.16127   0.00000     -0.000  -0.000  -0.000
    9 11 3Pdz2      0.02521   0.00000      0.000   0.000  -0.000
    9 12 3Pdxz      0.07774   0.00000      0.000   0.000   0.000
    9 13 3Pdx2-y2   0.17764   0.00000      0.000   0.000   0.000
    9     Total     3.47677   0.00000      0.000   0.000  -0.000

   13  1 3s         0.49122   0.00000      0.000   0.000  -0.000
   13  2 3s         0.36486   0.00000      0.000   0.000   0.000
   13  3 3py        0.26416   0.00000     -0.000   0.000  -0.000
   13  4 3pz        0.41482   0.00000     -0.000   0.000  -0.000
   13  5 3px        0.08305   0.00000      0.000   0.000  -0.000
   13  6 3py        0.27709   0.00000     -0.000  -0.000   0.000
   13  7 3pz        0.18655   0.00000      0.000  -0.000   0.000
   13  8 3px        0.44363   0.00000     -0.000   0.000  -0.000
   13  9 3Pdxy      0.32385   0.00000     -0.000  -0.000   0.000
   13 10 3Pdyz      0.09574   0.00000     -0.000   0.000   0.000
   13 11 3Pdz2      0.01395   0.00000      0.000   0.000  -0.000
   13 12 3Pdxz      0.17366   0.00000     -0.000   0.000  -0.000
   13 13 3Pdx2-y2   0.14323   0.00000      0.000  -0.000   0.000
   13     Total     3.27581   0.00000     -0.000   0.000  -0.000

----------------------------------------------------------------
Total              28.78365   0.00000      0.000   0.000  -0.000


Species: H                   

Atom      Orb        Charge      Spin       Svec
----------------------------------------------------------------
    3  1 1s         1.05327   0.00000      0.000   0.000   0.000
    3  2 1s         0.08095   0.00000     -0.000   0.000  -0.000
    3  3 2Ppy       0.03669   0.00000      0.000   0.000   0.000
    3  4 2Ppz       0.01473   0.00000     -0.000   0.000   0.000
    3  5 2Ppx       0.00746   0.00000     -0.000  -0.000  -0.000
    3     Total     1.19310   0.00000      0.000   0.000   0.000

    6  1 1s         1.07398   0.00000      0.000  -0.000  -0.000
    6  2 1s         0.08010   0.00000      0.000   0.000   0.000
    6  3 2Ppy       0.02059   0.00000     -0.000  -0.000  -0.000
    6  4 2Ppz       0.01797   0.00000      0.000  -0.000  -0.000
    6  5 2Ppx       0.01597   0.00000     -0.000   0.000  -0.000
    6     Total     1.20862   0.00000      0.000  -0.000  -0.000

    7  1 1s         1.06404   0.00000     -0.000  -0.000  -0.000
    7  2 1s         0.08073   0.00000      0.000   0.000   0.000
    7  3 2Ppy       0.02741   0.00000      0.000   0.000  -0.000
    7  4 2Ppz       0.01674   0.00000      0.000  -0.000  -0.000
    7  5 2Ppx       0.01256   0.00000      0.000  -0.000   0.000
    7     Total     1.20148   0.00000     -0.000  -0.000  -0.000

    8  1 1s         1.06172   0.00000      0.000  -0.000   0.000
    8  2 1s         0.08315   0.00000     -0.000   0.000  -0.000
    8  3 2Ppy       0.01543   0.00000     -0.000  -0.000   0.000
    8  4 2Ppz       0.02001   0.00000     -0.000  -0.000   0.000
    8  5 2Ppx       0.01333   0.00000      0.000  -0.000   0.000
    8     Total     1.19364   0.00000      0.000  -0.000   0.000

   12  1 1s         0.49152   0.00000      0.000   0.000   0.000
   12  2 1s         0.18651   0.00000      0.000  -0.000  -0.000
   12  3 2Ppy       0.02344   0.00000      0.000  -0.000  -0.000
   12  4 2Ppz       0.03383   0.00000      0.000  -0.000  -0.000
   12  5 2Ppx       0.02596   0.00000      0.000   0.000   0.000
   12     Total     0.76126   0.00000      0.000   0.000  -0.000

   15  1 1s         0.48316   0.00000     -0.000   0.000  -0.000
   15  2 1s         0.18740   0.00000      0.000  -0.000   0.000
   15  3 2Ppy       0.02321   0.00000     -0.000  -0.000  -0.000
   15  4 2Ppz       0.03325   0.00000      0.000  -0.000   0.000
   15  5 2Ppx       0.02521   0.00000      0.000   0.000   0.000
   15     Total     0.75224   0.00000     -0.000  -0.000   0.000

----------------------------------------------------------------
Total              35.09399   0.00000      0.000   0.000  -0.000


Species: O                   

Atom      Orb        Charge      Spin       Svec
----------------------------------------------------------------
   10  1 2s         1.76009   0.00000     -0.000  -0.000   0.000
   10  2 2s         0.06353   0.00000      0.000   0.000  -0.000
   10  3 2py        1.43221   0.00000      0.000   0.000  -0.000
   10  4 2pz        1.51478   0.00000      0.000   0.000  -0.000
   10  5 2px        1.60007   0.00000     -0.000  -0.000  -0.000
   10  6 2py        0.04084   0.00000     -0.000  -0.000   0.000
   10  7 2pz        0.00039   0.00000     -0.000   0.000   0.000
   10  8 2px        0.01474   0.00000      0.000  -0.000   0.000
   10  9 3Pdxy      0.00786   0.00000     -0.000   0.000   0.000
   10 10 3Pdyz      0.00943   0.00000     -0.000   0.000   0.000
   10 11 3Pdz2      0.00191   0.00000      0.000  -0.000   0.000
   10 12 3Pdxz      0.00064   0.00000     -0.000  -0.000   0.000
   10 13 3Pdx2-y2   0.00698   0.00000     -0.000  -0.000   0.000
   10     Total     6.45346   0.00000     -0.000  -0.000  -0.000

   14  1 2s         1.75840   0.00000      0.000   0.000   0.000
   14  2 2s         0.06494   0.00000     -0.000  -0.000  -0.000
   14  3 2py        1.59270   0.00000      0.000  -0.000   0.000
   14  4 2pz        1.53937   0.00000      0.000  -0.000  -0.000
   14  5 2px        1.39388   0.00000     -0.000  -0.000   0.000
   14  6 2py        0.02199   0.00000     -0.000   0.000   0.000
   14  7 2pz        0.00306   0.00000     -0.000   0.000   0.000
   14  8 2px        0.05048   0.00000      0.000  -0.000  -0.000
   14  9 3Pdxy      0.00804   0.00000     -0.000   0.000  -0.000
   14 10 3Pdyz      0.00032   0.00000     -0.000   0.000   0.000
   14 11 3Pdz2      0.00168   0.00000     -0.000   0.000   0.000
   14 12 3Pdxz      0.01007   0.00000     -0.000   0.000   0.000
   14 13 3Pdx2-y2   0.00762   0.00000     -0.000  -0.000  -0.000
   14     Total     6.45255   0.00000      0.000  -0.000   0.000

----------------------------------------------------------------
Total              48.00000   0.00000      0.000  -0.000   0.000


outcoor: Final (unrelaxed) atomic coordinates (Ang):        
   -0.58050900    4.44525623    0.05765409   1       1  N
   -2.38905798    4.45373288    0.04077296   2       2  Si
   -2.80549467    5.91597721   -0.00486291   3       3  H
   -3.47249372    2.65212073   -0.72399670   2       4  Si
   -5.71305987    2.27558023   -0.03392300   2       5  Si
   -6.28064991    3.28411914    0.93564522   3       6  H
   -5.96428436    0.88495656    0.50754915   3       7  H
   -6.50034492    2.47362363   -1.31078486   3       8  H
   -2.03754951    0.93931698   -0.11155965   2       9  Si
   -2.45249012   -0.61691460   -0.00088686   4      10  O
   -0.26122674    1.52572059   -0.01990059   1      11  N
    0.43156693    0.71403835    0.00126546   3      12  H
    0.62035698    3.09985010    0.01314579   2      13  Si
    2.18897691    3.44844644    0.00105454   4      14  O
   -0.08987229    5.38934057    0.00152695   3      15  H

siesta: Eigenvalues (eV):
ik =     1
  -22.9181  -22.9181  -22.5302  -22.5302  -21.7322  -21.7322  -21.2047  -21.2047  -14.9788  -14.9788
  -13.9183  -13.9183  -13.4980  -13.4980  -13.1132  -13.1132  -11.8433  -11.8433  -11.3345  -11.3345
  -10.5151  -10.5151   -9.6032   -9.6032   -9.0314   -9.0314   -9.0138   -9.0138   -9.0066   -9.0066
   -8.6958   -8.6958   -8.2218   -8.2218   -8.0055   -8.0055   -7.7824   -7.7824   -7.3933   -7.3933
   -6.9848   -6.9848   -6.8910   -6.8910   -6.5473   -6.5473   -6.0436   -6.0436   -3.8986   -3.8986
   -2.6497   -2.6497   -2.5993   -2.5993   -2.4099   -2.4099   -1.8753   -1.8753   -1.4533   -1.4533
   -1.3458   -1.3458   -0.6084   -0.6084   -0.0605   -0.0605    0.2564    0.2564    0.3394    0.3394
    0.7775    0.7775    0.9696    0.9696    1.1996    1.1996    1.4009    1.4009    1.5092    1.5092
    2.0841    2.0841    2.1047    2.1047    2.5377    2.5377    3.0305    3.0305    3.2919    3.2919
    3.3859    3.3859    3.5982    3.5982    4.1475    4.1475    4.2262    4.2262    4.7597    4.7597
    5.1634    5.1634    5.2684    5.2684    5.5082    5.5082    5.7841    5.7841    6.1816    6.1816
    6.4335    6.4335    6.7621    6.7621    6.9720    6.9720    7.5275    7.5275    7.7027    7.7027
    7.7820    7.7820    8.0666    8.0666    8.5163    8.5163    8.7457    8.7457    9.4028    9.4028
    9.7170    9.7170   10.1808   10.1808   10.4004   10.4004   10.6948   10.6948   11.1152   11.1152
   11.3752   11.3752   11.5718   11.5718   12.0816   12.0816   12.2853   12.2853   12.4814   12.4814
   12.7290   12.7290   13.4409   13.4409   13.7145   13.7145   14.2131   14.2131   15.1985   15.1985
   15.2556   15.2556   15.8632   15.8632   16.6591   16.6591   17.1361   17.1361   17.6167   17.6167
   17.9569   17.9569   18.1279   18.1279   19.4961   19.4961   20.0418   20.0418   20.5187   20.5187
   20.6576   20.6576   21.3781   21.3781   21.9555   21.9555   22.6176   22.6176   22.8942   22.8942
   23.7472   23.7472   24.8918   24.8918   25.3551   25.3551   25.8264   25.8264   26.4546   26.4546
   27.6899   27.6899   28.3005   28.3005   28.3968   28.3968   29.6338   29.6338   30.4021   30.4021
   32.9037   32.9037   33.2618   33.2618   33.9035   33.9035   34.0485   34.0485   34.1939   34.1939
   34.9728   34.9728   35.8687   35.8687   36.6832   36.6832   37.8517   37.8517   38.4540   38.4540
   39.0517   39.0517   40.1399   40.1399   41.2407   41.2407   42.2952   42.2952   44.2428   44.2428
   45.5007   45.5007   46.5839   46.5839   47.2022   47.2022   48.2923   48.2923   49.8873   49.8873
   50.2502   50.2502   50.4715   50.4715   50.9821   50.9821   51.3552   51.3552   52.0569   52.0569
   53.8902   53.8902   54.2614   54.2614   54.9869   54.9869   55.8673   55.8673   56.8750   56.8750
   57.2494   57.2494   62.3542   62.3542   65.3665   65.3665   65.6326   65.6326   67.3489   67.3489
   68.2301   68.2301   84.9782   84.9782   88.3700   88.3700   95.5307   95.5307   99.0796   99.0796
  116.6091  116.6091  132.2783  132.2783
siesta: Fermi energy =      -4.835030 eV

siesta: Program's energy decomposition (eV):
siesta: Ebs     =      -561.614059
siesta: Eions   =      1908.291957
siesta: Ena     =       159.815339
siesta: Ekin    =      1431.114337
siesta: Enl     =     -1195.872352
siesta: Eso     =        -0.002269
siesta: Edftu   =         0.000000
siesta: DEna    =         8.022172
siesta: DUscf   =         6.558230
siesta: DUext   =         0.000000
siesta: Exc     =      -540.792917
siesta: eta*DQ  =         0.000000
siesta: Emadel  =         0.000000
siesta: Emeta   =         0.000000
siesta: Emolmec =         0.000000
siesta: Ekinion =         0.000000
siesta: Eharris =     -2039.449416
siesta: Etot    =     -2039.449416
siesta: FreeEng =     -2039.449416

siesta: Final energy (eV):
siesta:  Band Struct. =    -561.614059
siesta:       Kinetic =    1431.114337
siesta:       Hartree =    3036.646331
siesta:       Edftu   =       0.000000
siesta:       Eso     =      -0.002269
siesta:    Ext. field =       0.000000
siesta:   Exch.-corr. =    -540.792917
siesta:  Ion-electron =   -7364.467385
siesta:       Ion-ion =    1398.052487
siesta:       Ekinion =       0.000000
siesta:         Total =   -2039.449416
siesta:         Fermi =      -4.835030

siesta: Atomic forces (eV/Ang):
siesta:      1   -0.049469   -0.021483   -0.070372
siesta:      2    0.227511   -0.095012   -0.055861
siesta:      3   -0.020671   -0.032501    0.100225
siesta:      4   -0.033061   -0.009696    0.040179
siesta:      5   -0.205159    0.082280   -0.097014
siesta:      6    0.146654    0.062238    0.091151
siesta:      7   -0.009190    0.028546    0.038995
siesta:      8   -0.025679   -0.093888    0.014191
siesta:      9    0.161646   -0.117610    0.090091
siesta:     10   -0.499428    0.637677    0.110845
siesta:     11    0.065072    0.037030   -0.040764
siesta:     12    0.036527   -0.095897    0.027955
siesta:     13   -0.028839    0.067637   -0.028689
siesta:     14   -0.038941   -0.003421   -0.174348
siesta:     15   -0.031700    0.033870    0.038726
siesta: ----------------------------------------
siesta:    Tot   -0.304727    0.479772    0.085311

siesta: Stress tensor (static) (eV/Ang**3):
siesta:     0.001513    0.000926   -0.000127
siesta:     0.000926    0.001284   -0.000099
siesta:    -0.000127   -0.000099   -0.000232

siesta: Cell volume =       2433.703456 Ang**3

siesta: Pressure (static):
siesta:                Solid            Molecule  Units
siesta:          -0.00000931         -0.00000672  Ry/Bohr**3
siesta:          -0.00085517         -0.00061685  eV/Ang**3
siesta:          -1.37014815         -0.98831995  kBar
(Free)E+ p_basis*V_orbitals  =       -2029.003201
(Free)Eharris+ p_basis*V_orbitals  =       -2029.003201
     spin moment: S , {S} =    0.00000   0.00000  -0.00000   0.00000

siesta: Electric dipole (a.u.)  =   -1.184350    1.916148    0.000544
siesta: Electric dipole (Debye) =   -3.010321    4.870366    0.001383

cite: Please see "Thymine.bib" for an exhaustive BiBTeX file.
cite: Please clearly indicate Siesta version in published work: v4.1.5-1-g384057250
cite: This calculation has made use of the following articles
cite: which are encouraged to be cited in a published work.
        Primary SIESTA paper
          DOI: www.doi.org/10.1088/0953-8984/14/11/302
        Spin-orbit coupling (on-site approximation)
          DOI: www.doi.org/10.1088/0953-8984/19/19/489001


WARNING: alloc-realloc-dealloc name mismatch
         Name: atomlist isa
         Size:               -60. Bytes
         Node:     0
         Subsequent mismatches will not be reported
>> End of run:  14-MAY-2023  10:04:16
Job completed
