Siesta Version  : v4.1.5-1-g384057250
Architecture    : gcc
Compiler version: GNU Fortran (Debian 10.2.1-6) 10.2.1 20210110
Compiler flags  : mpifort -O2 -fPIC -ftree-vectorize -fallow-argument-mismatch
PP flags        : -DFC_HAVE_ABORT -DMPI -DSIESTA__FLOOK -DSIESTA__METIS -DSIESTA__MUMPS -DCDF -DNCDF -DNCDF_4 -DNCDF_PARALLEL -DSIESTA__MRRR -DSIESTA__ELPA
Libraries       : libncdf.a libfdict.a  -lflookall -ldl -lnetcdff -lnetcdf -lhdf5_hl -lhdf5 -lhdf5_fortran -lz -lscalapack-openmpi -lopenblas -lmetis -lzmumps -lcmumps -ldmumps -lmumps_common -lpord -lsmumps -lesmumps -lscotch -lscotcherr -fopenmp -lelpa
PARALLEL version
NetCDF support
NetCDF-4 support
NetCDF-4 MPI-IO support
METIS ordering support
Lua support

* Running on 6 nodes in parallel
>> Start of run:  16-MAY-2023   0:21:48

                           ***********************       
                           *  WELCOME TO SIESTA  *       
                           ***********************       

reinit: Reading from standard input
reinit: Dumped input in INPUT_TMP.11167
************************** Dump of input data file ****************************
# mpirun -np 4 siesta-4.1.5 < Thymine.fdf > Thymine.out
SystemLabel      Thymine
NumberOfAtoms    15
NumberOfSpecies  4
%block ChemicalSpeciesLabel
    1    7  N
    2   14  Si
    3    1  H
    4    8  O
%endblock ChemicalSpeciesLabel
###################################
# This overrides Defaults.fdf conf
###################################
MD.TypeOfRun                CG # CG, Verlet
MD.Steps                    400
MD.MaxForceTol              0.0001 eV/Ang
AtomicCoordinatesFormat NotScaledCartesianAng
%block AtomicCoordinatesAndAtomicSpecies
   -0.65036146    4.45062811    0.00000000   1       1  N
   -2.44721426    4.58822155    0.00000000   2       2  Si
   -2.81795898    6.05493469    0.00000000   3       3  H
   -3.63521118    2.74896948    0.00000000   2       4  Si
   -5.92446345    2.30902435    0.00000000   2       5  Si
   -6.59306949    3.29487939    0.92080482   3       6  H
   -6.06453674    0.89068502    0.49451629   3       7  H
   -6.50474503    2.40490001   -1.38436682   3       8  H
   -2.13627022    1.03191223    0.00000000   2       9  Si
   -2.37871376   -0.53414951    0.00000000   4      10  O
   -0.41462503    1.53504950    0.00000000   1      11  N
    0.26244516    0.71251724    0.00000000   3      12  H
    0.45021676    3.05280002    0.00000000   2      13  Si
    2.02522653    3.11861111    0.00000000   4      14  O
   -0.08884137    5.34747758    0.00000000   3      15  H
%endblock AtomicCoordinatesAndAtomicSpecies
%block Geometry.Constraints
    atom all 0.0 0.0 1.0 # constrain along z Cartesian vector
    clear-prev [6 -- 8]
%endblock
%include ../../Defaults.fdf
************************** End of input data file *****************************

reinit: -----------------------------------------------------------------------
reinit: System Name: 
reinit: -----------------------------------------------------------------------
reinit: System Label: Thymine
reinit: -----------------------------------------------------------------------

initatom: Reading input for the pseudopotentials and atomic orbitals ----------
Species number:   1 Atomic number:    7 Label: N
Species number:   2 Atomic number:   14 Label: Si
Species number:   3 Atomic number:    1 Label: H
Species number:   4 Atomic number:    8 Label: O

Ground state valence configuration:   2s02  2p03
Reading pseudopotential information in formatted form from N.psf

Pseudopotential generated from a relativistic atomic calculation

Valence configuration for pseudopotential generation:
2s( 2.00) rc: 0.94
2p( 3.00) rc: 0.59
3d( 0.00) rc: 3.46
4f( 0.00) rc: 2.47
Ground state valence configuration:   3s02  3p02
Reading pseudopotential information in formatted form from Si.psf

Pseudopotential generated from a relativistic atomic calculation

Valence configuration for pseudopotential generation:
3s( 2.00) rc: 1.67
3p( 2.00) rc: 2.04
3d( 0.00) rc: 2.89
4f( 0.00) rc: 2.49
Ground state valence configuration:   1s01
Reading pseudopotential information in formatted form from H.psf

Pseudopotential generated from a relativistic atomic calculation

Valence configuration for pseudopotential generation:
1s( 1.00) rc: 0.01
2p( 0.00) rc: 0.60
3d( 0.00) rc: 1.99
4f( 0.00) rc: 2.49
Ground state valence configuration:   2s02  2p04
Reading pseudopotential information in formatted form from O.psf

Pseudopotential generated from a relativistic atomic calculation

Valence configuration for pseudopotential generation:
2s( 2.00) rc: 0.45
2p( 4.00) rc: 0.92
3d( 0.00) rc: 2.24
4f( 0.00) rc: 0.25
For N, standard SIESTA heuristics set lmxkb to 3
 (one more than the basis l, including polarization orbitals).
Use PS.lmax or PS.KBprojectors blocks to override.
For Si, standard SIESTA heuristics set lmxkb to 3
 (one more than the basis l, including polarization orbitals).
Use PS.lmax or PS.KBprojectors blocks to override.
For H, standard SIESTA heuristics set lmxkb to 2
 (one more than the basis l, including polarization orbitals).
Use PS.lmax or PS.KBprojectors blocks to override.
For O, standard SIESTA heuristics set lmxkb to 3
 (one more than the basis l, including polarization orbitals).
Use PS.lmax or PS.KBprojectors blocks to override.

<basis_specs>
===============================================================================
N                    Z=   7    Mass=  14.010        Charge= 0.17977+309
Lmxo=1 Lmxkb= 3    BasisType=split      Semic=F
L=0  Nsemic=0  Cnfigmx=2
          i=1  nzeta=2  polorb=0  (2s)
            splnorm:   0.28000    
               vcte:    0.0000    
               rinn:    0.0000    
               qcoe:    0.0000    
               qyuk:    0.0000    
               qwid:   0.10000E-01
                rcs:    0.0000      0.0000    
            lambdas:    1.0000      1.0000    
L=1  Nsemic=0  Cnfigmx=2
          i=1  nzeta=2  polorb=1  (2p)
            splnorm:   0.28000    
               vcte:    0.0000    
               rinn:    0.0000    
               qcoe:    0.0000    
               qyuk:    0.0000    
               qwid:   0.10000E-01
                rcs:    0.0000      0.0000    
            lambdas:    1.0000      1.0000    
-------------------------------------------------------------------------------
L=0  Nkbl=1  erefs: 0.17977+309
L=1  Nkbl=1  erefs: 0.17977+309
L=2  Nkbl=1  erefs: 0.17977+309
L=3  Nkbl=1  erefs: 0.17977+309
===============================================================================
</basis_specs>

atom: Called for N                     (Z =   7)

read_vps: Pseudopotential generation method:
read_vps: ATM4.2.7  Troullier-Martins                       
Valence charge for ps generation:    5.00000

xc_check: Exchange-correlation functional:
xc_check: GGA Perdew, Burke & Ernzerhof 1996
V l=0 = -2*Zval/r beyond r=  1.2889
V l=1 = -2*Zval/r beyond r=  1.2889
V l=2 = -2*Zval/r beyond r=  3.4178
V l=3 = -2*Zval/r beyond r=  2.4084
All V_l potentials equal beyond r=  3.3753
This should be close to max(r_c) in ps generation
All pots = -2*Zval/r beyond r=  3.4178

VLOCAL1: 99.0% of the norm of Vloc inside      3.810 Ry
VLOCAL1: 99.9% of the norm of Vloc inside      8.683 Ry
atom: Maximum radius for 4*pi*r*r*local-pseudopot. charge    4.02088
atom: Maximum radius for r*vlocal+2*Zval:    3.54838
GHOST: No ghost state for L =  0
GHOST: No ghost state for L =  1
GHOST: No ghost state for L =  2
GHOST: No ghost state for L =  3

KBgen: Kleinman-Bylander projectors: 
   l= 0   rc=  3.417763   el= -1.365098   Ekb= -4.433130   kbcos= -0.707855
   l= 1   rc=  3.375302   el= -0.521201   Ekb=-13.264039   kbcos= -0.535594
   l= 2   rc=  3.872880   el=  0.001991   Ekb= -0.641094   kbcos= -0.062456
   l= 3   rc=  3.970931   el=  0.003093   Ekb= -0.474517   kbcos= -0.018236

KBgen: Total number of Kleinman-Bylander projectors:   16
atom: -------------------------------------------------------------------------

atom: SANKEY-TYPE ORBITALS:
atom: Selected multiple-zeta basis: split     

SPLIT: Orbitals with angular momentum L= 0

SPLIT: Basis orbitals for state 2s

SPLIT: PAO cut-off radius determined from an
SPLIT: energy shift=  0.002000 Ry

   izeta = 1
                 lambda =    1.000000
                     rc =    4.730425
                 energy =   -1.363399
                kinetic =    1.245246
    potential(screened) =   -2.608645
       potential(ionic) =   -8.121105

   izeta = 2
                 rmatch =    2.531849
              splitnorm =    0.280000
                 energy =   -0.959908
                kinetic =    2.409435
    potential(screened) =   -3.369343
       potential(ionic) =   -9.427975

SPLIT: Orbitals with angular momentum L= 1

SPLIT: Basis orbitals for state 2p

SPLIT: PAO cut-off radius determined from an
SPLIT: energy shift=  0.002000 Ry

   izeta = 1
                 lambda =    1.000000
                     rc =    5.924108
                 energy =   -0.519262
                kinetic =    3.672940
    potential(screened) =   -4.192202
       potential(ionic) =   -9.518354

   izeta = 2
                 rmatch =    2.531849
              splitnorm =    0.280000
                 energy =   -0.104258
                kinetic =    6.807538
    potential(screened) =   -6.911796
       potential(ionic) =  -13.149920

POLgen: Perturbative polarization orbital with L=  2

POLgen: Polarization orbital for state 2p

   izeta = 1
                     rc =    5.924108
                 energy =    1.427508
                kinetic =    2.872379
    potential(screened) =   -1.444871
       potential(ionic) =   -5.563644
atom: Total number of Sankey-type orbitals: 13

atm_pop: Valence configuration (for local Pseudopot. screening):
 2s( 2.00)                                                            
 2p( 3.00)                                                            
Vna: chval, zval:    5.00000   5.00000

Vna:  Cut-off radius for the neutral-atom potential:   5.924108

atom: _________________________________________________________________________

<basis_specs>
===============================================================================
Si                   Z=  14    Mass=  28.090        Charge= 0.17977+309
Lmxo=1 Lmxkb= 3    BasisType=split      Semic=F
L=0  Nsemic=0  Cnfigmx=3
          i=1  nzeta=2  polorb=0  (3s)
            splnorm:   0.28000    
               vcte:    0.0000    
               rinn:    0.0000    
               qcoe:    0.0000    
               qyuk:    0.0000    
               qwid:   0.10000E-01
                rcs:    0.0000      0.0000    
            lambdas:    1.0000      1.0000    
L=1  Nsemic=0  Cnfigmx=3
          i=1  nzeta=2  polorb=1  (3p)
            splnorm:   0.28000    
               vcte:    0.0000    
               rinn:    0.0000    
               qcoe:    0.0000    
               qyuk:    0.0000    
               qwid:   0.10000E-01
                rcs:    0.0000      0.0000    
            lambdas:    1.0000      1.0000    
-------------------------------------------------------------------------------
L=0  Nkbl=1  erefs: 0.17977+309
L=1  Nkbl=1  erefs: 0.17977+309
L=2  Nkbl=1  erefs: 0.17977+309
L=3  Nkbl=1  erefs: 0.17977+309
===============================================================================
</basis_specs>

atom: Called for Si                    (Z =  14)

read_vps: Pseudopotential generation method:
read_vps: ATM4.2.7  Troullier-Martins                       
Valence charge for ps generation:    4.00000

xc_check: Exchange-correlation functional:
xc_check: GGA Perdew, Burke & Ernzerhof 1996
V l=0 = -2*Zval/r beyond r=  2.7826
V l=1 = -2*Zval/r beyond r=  2.7826
V l=2 = -2*Zval/r beyond r=  2.9253
V l=3 = -2*Zval/r beyond r=  2.7826
All V_l potentials equal beyond r=  2.8530
This should be close to max(r_c) in ps generation
All pots = -2*Zval/r beyond r=  2.9253

VLOCAL1: 99.0% of the norm of Vloc inside      5.333 Ry
VLOCAL1: 99.9% of the norm of Vloc inside     12.154 Ry
atom: Maximum radius for 4*pi*r*r*local-pseudopot. charge    3.39869
atom: Maximum radius for r*vlocal+2*Zval:    2.96205
GHOST: No ghost state for L =  0
GHOST: No ghost state for L =  1
GHOST: No ghost state for L =  2
GHOST: No ghost state for L =  3

KBgen: Kleinman-Bylander projectors: 
   l= 0   rc=  3.075247   el= -0.794092   Ekb=  5.879390   kbcos=  0.167461
   l= 1   rc=  3.153101   el= -0.300068   Ekb=  2.642817   kbcos=  0.058301
   l= 2   rc=  3.273594   el=  0.001958   Ekb= -1.185135   kbcos= -0.104411
   l= 3   rc=  3.232927   el=  0.003046   Ekb= -0.497174   kbcos= -0.015889

KBgen: Total number of Kleinman-Bylander projectors:   16
atom: -------------------------------------------------------------------------

atom: SANKEY-TYPE ORBITALS:
atom: Selected multiple-zeta basis: split     

SPLIT: Orbitals with angular momentum L= 0

SPLIT: Basis orbitals for state 3s

SPLIT: PAO cut-off radius determined from an
SPLIT: energy shift=  0.002000 Ry

   izeta = 1
                 lambda =    1.000000
                     rc =    6.429618
                 energy =   -0.792283
                kinetic =    0.525293
    potential(screened) =   -1.317576
       potential(ionic) =   -3.744923

   izeta = 2
                 rmatch =    3.998416
              splitnorm =    0.280000
                 energy =   -0.583081
                kinetic =    1.069570
    potential(screened) =   -1.652651
       potential(ionic) =   -4.235185

SPLIT: Orbitals with angular momentum L= 1

SPLIT: Basis orbitals for state 3p

SPLIT: PAO cut-off radius determined from an
SPLIT: energy shift=  0.002000 Ry

   izeta = 1
                 lambda =    1.000000
                     rc =    8.464845
                 energy =   -0.298236
                kinetic =    0.785360
    potential(screened) =   -1.083596
       potential(ionic) =   -3.273779

   izeta = 2
                 rmatch =    4.587816
              splitnorm =    0.280000
                 energy =   -0.131871
                kinetic =    1.403687
    potential(screened) =   -1.535557
       potential(ionic) =   -4.015310

POLgen: Perturbative polarization orbital with L=  2

POLgen: Polarization orbital for state 3p

   izeta = 1
                     rc =    8.464845
                 energy =    0.321949
                kinetic =    1.055677
    potential(screened) =   -0.733728
       potential(ionic) =   -2.672950
atom: Total number of Sankey-type orbitals: 13

atm_pop: Valence configuration (for local Pseudopot. screening):
 3s( 2.00)                                                            
 3p( 2.00)                                                            
Vna: chval, zval:    4.00000   4.00000

Vna:  Cut-off radius for the neutral-atom potential:   8.464845

atom: _________________________________________________________________________

<basis_specs>
===============================================================================
H                    Z=   1    Mass=  1.0100        Charge= 0.17977+309
Lmxo=0 Lmxkb= 2    BasisType=split      Semic=F
L=0  Nsemic=0  Cnfigmx=1
          i=1  nzeta=2  polorb=1  (1s)
            splnorm:   0.62000    
               vcte:    0.0000    
               rinn:    0.0000    
               qcoe:    0.0000    
               qyuk:    0.0000    
               qwid:   0.10000E-01
                rcs:    0.0000      0.0000    
            lambdas:    1.0000      1.0000    
-------------------------------------------------------------------------------
L=0  Nkbl=1  erefs: 0.17977+309
L=1  Nkbl=1  erefs: 0.17977+309
L=2  Nkbl=1  erefs: 0.17977+309
===============================================================================
</basis_specs>

atom: Called for H                     (Z =   1)

read_vps: Pseudopotential generation method:
read_vps: ATM4.2.7  Troullier-Martins                       
Valence charge for ps generation:    1.00000

xc_check: Exchange-correlation functional:
xc_check: GGA Perdew, Burke & Ernzerhof 1996
V l=0 = -2*Zval/r beyond r=  0.0098
V l=1 = -2*Zval/r beyond r=  0.5817
V l=2 = -2*Zval/r beyond r=  1.9372
All V_l potentials equal beyond r=  1.9372
This should be close to max(r_c) in ps generation
All pots = -2*Zval/r beyond r=  1.9372

VLOCAL1: 99.0% of the norm of Vloc inside     11.567 Ry
VLOCAL1: 99.9% of the norm of Vloc inside     26.362 Ry
atom: Maximum radius for 4*pi*r*r*local-pseudopot. charge    2.25106
atom: Maximum radius for r*vlocal+2*Zval:    1.91306
GHOST: No ghost state for L =  0
GHOST: No ghost state for L =  1
GHOST: No ghost state for L =  2

KBgen: Kleinman-Bylander projectors: 
   l= 0   rc=  2.036604   el= -0.477180   Ekb= -6.081590   kbcos= -0.277285
   l= 1   rc=  2.195416   el=  0.001076   Ekb= -0.926943   kbcos= -0.034643
   l= 2   rc=  2.251056   el=  0.002010   Ekb= -0.130941   kbcos= -0.009788

KBgen: Total number of Kleinman-Bylander projectors:    9
atom: -------------------------------------------------------------------------

atom: SANKEY-TYPE ORBITALS:
atom: Selected multiple-zeta basis: split     

SPLIT: Orbitals with angular momentum L= 0

SPLIT: Basis orbitals for state 1s

SPLIT: PAO cut-off radius determined from an
SPLIT: energy shift=  0.002000 Ry

   izeta = 1
                 lambda =    1.000000
                     rc =    6.518340
                 energy =   -0.475305
                kinetic =    0.912139
    potential(screened) =   -1.387444
       potential(ionic) =   -1.907295

   izeta = 2
                 rmatch =    2.141150
              splitnorm =    0.620000
                 energy =    0.566467
                kinetic =    3.772856
    potential(screened) =   -3.206389
       potential(ionic) =   -3.759093

POLgen: Perturbative polarization orbital with L=  1

POLgen: Polarization orbital for state 1s

   izeta = 1
                     rc =    6.518340
                 energy =    0.533861
                kinetic =    1.121086
    potential(screened) =   -0.587225
       potential(ionic) =   -1.053027
atom: Total number of Sankey-type orbitals:  5

atm_pop: Valence configuration (for local Pseudopot. screening):
 1s( 1.00)                                                            
Vna: chval, zval:    1.00000   1.00000

Vna:  Cut-off radius for the neutral-atom potential:   6.518340

atom: _________________________________________________________________________

<basis_specs>
===============================================================================
O                    Z=   8    Mass=  16.000        Charge= 0.17977+309
Lmxo=1 Lmxkb= 3    BasisType=split      Semic=F
L=0  Nsemic=0  Cnfigmx=2
          i=1  nzeta=2  polorb=0  (2s)
            splnorm:   0.28000    
               vcte:    0.0000    
               rinn:    0.0000    
               qcoe:    0.0000    
               qyuk:    0.0000    
               qwid:   0.10000E-01
                rcs:    0.0000      0.0000    
            lambdas:    1.0000      1.0000    
L=1  Nsemic=0  Cnfigmx=2
          i=1  nzeta=2  polorb=1  (2p)
            splnorm:   0.28000    
               vcte:    0.0000    
               rinn:    0.0000    
               qcoe:    0.0000    
               qyuk:    0.0000    
               qwid:   0.10000E-01
                rcs:    0.0000      0.0000    
            lambdas:    1.0000      1.0000    
-------------------------------------------------------------------------------
L=0  Nkbl=1  erefs: 0.17977+309
L=1  Nkbl=1  erefs: 0.17977+309
L=2  Nkbl=1  erefs: 0.17977+309
L=3  Nkbl=1  erefs: 0.17977+309
===============================================================================
</basis_specs>

atom: Called for O                     (Z =   8)

read_vps: Pseudopotential generation method:
read_vps: ATM4.2.7  Troullier-Martins                       
Valence charge for ps generation:    6.00000

xc_check: Exchange-correlation functional:
xc_check: GGA Perdew, Burke & Ernzerhof 1996
V l=0 = -2*Zval/r beyond r=  1.1000
V l=1 = -2*Zval/r beyond r=  1.1000
V l=2 = -2*Zval/r beyond r=  2.2154
V l=3 = -2*Zval/r beyond r=  1.1000
All V_l potentials equal beyond r=  2.2154
This should be close to max(r_c) in ps generation
All pots = -2*Zval/r beyond r=  2.2154

VLOCAL1: 99.0% of the norm of Vloc inside      8.845 Ry
VLOCAL1: 99.9% of the norm of Vloc inside     20.157 Ry
atom: Maximum radius for 4*pi*r*r*local-pseudopot. charge    2.67231
atom: Maximum radius for r*vlocal+2*Zval:    2.32897
GHOST: No ghost state for L =  0
GHOST: No ghost state for L =  1
GHOST: No ghost state for L =  2
GHOST: No ghost state for L =  3

KBgen: Kleinman-Bylander projectors: 
   l= 0   rc=  2.243238   el= -1.759686   Ekb=**********   kbcos= -0.171774
   l= 1   rc=  2.328968   el= -0.663873   Ekb=-14.506792   kbcos= -0.519897
   l= 2   rc=  2.573941   el=  0.002031   Ekb= -1.137373   kbcos= -0.019581
   l= 3   rc=  2.606321   el=  0.003153   Ekb= -1.013546   kbcos= -0.003122

KBgen: Total number of Kleinman-Bylander projectors:   16
atom: -------------------------------------------------------------------------

atom: SANKEY-TYPE ORBITALS:
atom: Selected multiple-zeta basis: split     

SPLIT: Orbitals with angular momentum L= 0

SPLIT: Basis orbitals for state 2s

SPLIT: PAO cut-off radius determined from an
SPLIT: energy shift=  0.002000 Ry

   izeta = 1
                 lambda =    1.000000
                     rc =    4.243912
                 energy =   -1.758270
                kinetic =    3.286084
    potential(screened) =   -5.044353
       potential(ionic) =  -12.921184

   izeta = 2
                 rmatch =    2.187845
              splitnorm =    0.280000
                 energy =   -0.885018
                kinetic =    8.134434
    potential(screened) =   -9.019452
       potential(ionic) =  -17.710645

SPLIT: Orbitals with angular momentum L= 1

SPLIT: Basis orbitals for state 2p

SPLIT: PAO cut-off radius determined from an
SPLIT: energy shift=  0.002000 Ry

   izeta = 1
                 lambda =    1.000000
                     rc =    5.314825
                 energy =   -0.661986
                kinetic =    4.917472
    potential(screened) =   -5.579458
       potential(ionic) =  -13.236259

   izeta = 2
                 rmatch =    2.160663
              splitnorm =    0.280000
                 energy =   -0.068760
                kinetic =    9.183374
    potential(screened) =   -9.252135
       potential(ionic) =  -18.274251

POLgen: Perturbative polarization orbital with L=  2

POLgen: Polarization orbital for state 2p

   izeta = 1
                     rc =    5.314825
                 energy =    1.970580
                kinetic =    3.886128
    potential(screened) =   -1.915547
       potential(ionic) =   -7.749584
atom: Total number of Sankey-type orbitals: 13

atm_pop: Valence configuration (for local Pseudopot. screening):
 2s( 2.00)                                                            
 2p( 4.00)                                                            
Vna: chval, zval:    6.00000   6.00000

Vna:  Cut-off radius for the neutral-atom potential:   5.314825

atom: _________________________________________________________________________

prinput: Basis input ----------------------------------------------------------

PAO.BasisType split     

%block ChemicalSpeciesLabel
    1    7 N                       # Species index, atomic number, species label
    2   14 Si                      # Species index, atomic number, species label
    3    1 H                       # Species index, atomic number, species label
    4    8 O                       # Species index, atomic number, species label
%endblock ChemicalSpeciesLabel

%block PAO.Basis                 # Define Basis set
N                     2                    # Species label, number of l-shells
 n=2   0   2                         # n, l, Nzeta 
   4.730      2.532   
   1.000      1.000   
 n=2   1   2 P   1                   # n, l, Nzeta, Polarization, NzetaPol
   5.924      2.532   
   1.000      1.000   
Si                    2                    # Species label, number of l-shells
 n=3   0   2                         # n, l, Nzeta 
   6.430      3.998   
   1.000      1.000   
 n=3   1   2 P   1                   # n, l, Nzeta, Polarization, NzetaPol
   8.465      4.588   
   1.000      1.000   
H                     1                    # Species label, number of l-shells
 n=1   0   2 P   1                   # n, l, Nzeta, Polarization, NzetaPol
   6.518      2.141   
   1.000      1.000   
O                     2                    # Species label, number of l-shells
 n=2   0   2                         # n, l, Nzeta 
   4.244      2.188   
   1.000      1.000   
 n=2   1   2 P   1                   # n, l, Nzeta, Polarization, NzetaPol
   5.315      2.161   
   1.000      1.000   
%endblock PAO.Basis

prinput: ----------------------------------------------------------------------

Dumping basis to NetCDF file N.ion.nc
Dumping basis to NetCDF file Si.ion.nc
Dumping basis to NetCDF file H.ion.nc
Dumping basis to NetCDF file O.ion.nc
coor:   Atomic-coordinates input format  =     Cartesian coordinates
coor:                                          (in Angstroms)

siesta: Atomic coordinates (Bohr) and species
siesta:     -1.22901   8.41047   0.00000  1        1
siesta:     -4.62457   8.67049   0.00000  2        2
siesta:     -5.32517  11.44217   0.00000  3        3
siesta:     -6.86956   5.19480   0.00000  2        4
siesta:    -11.19562   4.36343   0.00000  2        5
siesta:    -12.45910   6.22642   1.74007  3        6
siesta:    -11.46032   1.68315   0.93450  3        7
siesta:    -12.29219   4.54460  -2.61608  3        8
siesta:     -4.03697   1.95003   0.00000  2        9
siesta:     -4.49512  -1.00940   0.00000  4       10
siesta:     -0.78353   2.90082   0.00000  1       11
siesta:      0.49595   1.34646   0.00000  3       12
siesta:      0.85079   5.76896   0.00000  2       13
siesta:      3.82713   5.89332   0.00000  4       14
siesta:     -0.16789  10.10527   0.00000  3       15

siesta: Automatic unit cell vectors (Ang):
siesta:   16.866832    0.000000    0.000000
siesta:    0.000000   14.246958    0.000000
siesta:    0.000000    0.000000   10.244437

siesta: System type = molecule  

initatomlists: Number of atoms, orbitals, and projectors:     15   147   198

siesta: ******************** Simulation parameters ****************************
siesta:
siesta: The following are some of the parameters of the simulation.
siesta: A complete list of the parameters used, including default values,
siesta: can be found in file out.fdf
siesta:
redata: Spin configuration                          = spin-orbit
redata: Number of spin components                   = 8
redata: Time-Reversal Symmetry                      = F
redata: Spin spiral                                 = F
############################################################
This spin-orbit implementation uses a local approximation.
From 4.2 and onwards the full non-local approximation is implemented
You are strongly advised to use >=4.2 versions!
############################################################
redata: Long output                                 =   F
redata: Number of Atomic Species                    =        4
redata: Charge density info will appear in .RHO file
redata: Write Mulliken Pop.                         = Atomic and Orbital charges
redata: Matel table size (NRTAB)                    =     1024
redata: Mesh Cutoff                                 =   340.0000 Ry
redata: Net charge of the system                    =     0.0000 |e|
redata: Min. number of SCF Iter                     =        1
redata: Max. number of SCF Iter                     =      200
redata: SCF convergence failure will abort job
redata: SCF mix quantity                            = Hamiltonian
redata: Mix DM or H after convergence               =   F
redata: Recompute H after scf cycle                 =   F
redata: Mix DM in first SCF step                    =   T
redata: Write Pulay info on disk                    =   F
redata: New DM Occupancy tolerance                  = 0.000000000001
redata: No kicks to SCF
redata: DM Mixing Weight for Kicks                  =     0.5000
redata: Require Harris convergence for SCF          =   F
redata: Harris energy tolerance for SCF             =     0.000100 eV
redata: Require DM convergence for SCF              =   T
redata: DM tolerance for SCF                        =     0.000008
redata: Require EDM convergence for SCF             =   F
redata: EDM tolerance for SCF                       =     0.001000 eV
redata: Require H convergence for SCF               =   T
redata: Hamiltonian tolerance for SCF               =     0.000001 eV
redata: Require (free) Energy convergence for SCF   =   F
redata: (free) Energy tolerance for SCF             =     0.000100 eV
redata: Using Saved Data (generic)                  =   F
redata: Use continuation files for DM               =   F
redata: Neglect nonoverlap interactions             =   F
redata: Method of Calculation                       = Diagonalization
redata: Electronic Temperature                      =   299.9978 K
redata: Fix the spin of the system                  =   F
redata: Dynamics option                             = CG coord. optimization
redata: Variable cell                               =   F
redata: Use continuation files for CG               =   F
redata: Max atomic displ per move                   =     0.3000 Ang
redata: Maximum number of optimization moves        =      400
redata: Force tolerance                             =     0.0001 eV/Ang
mix.SCF: Pulay mixing                            = Pulay
mix.SCF:    Variant                              = stable
mix.SCF:    History steps                        = 6
mix.SCF:    Linear mixing weight                 =     0.250000
mix.SCF:    Mixing weight                        =     0.250000
mix.SCF:    SVD condition                        = 0.1000E-07
mix.SCF:    Restart steps                        = 24
mix.SCF:    Restart save steps                   = 3
mix.SCF: Spin-component mixing                   all
redata: Save all siesta data in one NC              =   F
redata: ***********************************************************************

%block SCF.Mixers
  Pulay
%endblock SCF.Mixers

%block SCF.Mixer.Pulay
  # Mixing method
  method pulay
  variant stable

  # Mixing options
  weight 0.2500
  weight.linear 0.2500
  history 6
  restart 24
  restart.save 3
%endblock SCF.Mixer.Pulay

DM_history_depth set to one: no extrapolation allowed by default for geometry relaxation
Size of DM history Fstack: 1
Total number of electrons:    48.000000
Total ionic charge:    48.000000

* ProcessorY, Blocksize:    2  24


* Orbital distribution balance (max,min):    27    24


Time-reversal symmetry not used.

siesta: k-grid: Number of k-points =     1
siesta: k-grid: Cutoff (effective) =     5.122 Ang
siesta: k-grid: Supercell and displacements
siesta: k-grid:    1   0   0      0.000
siesta: k-grid:    0   1   0      0.000
siesta: k-grid:    0   0   1      0.000

diag: Algorithm                                     = ELPA-1stage
diag: Parallel over k                               =   F
diag: Use parallel 2D distribution                  =   T
diag: Parallel block-size                           = 24
diag: Parallel distribution                         =     2 x     3
diag: Used triangular part                          = Lower
diag: Absolute tolerance                            =  0.100E-15
diag: Orthogonalization factor                      =  0.100E-05
diag: Memory factor                                 =  1.0000

siesta: Constraint v=[  0.00000,  0.00000,  1.00000] (12): pos-dir
  [ 1 -- 5, 9 -- 15 ]


ts: **************************************************************
ts: Save H and S matrices                           =    F
ts: Save DM and EDM matrices                        =    F
ts: Only save the overlap matrix S                  =    F
ts: **************************************************************

************************ Begin: TS CHECKS AND WARNINGS ************************
************************ End: TS CHECKS AND WARNINGS **************************


                     ====================================
                        Begin CG opt. move =      0
                     ====================================

outcoor: Atomic coordinates (Ang):                          
   -0.65036146    4.45062811    0.00000000   1       1  N
   -2.44721426    4.58822155    0.00000000   2       2  Si
   -2.81795898    6.05493469    0.00000000   3       3  H
   -3.63521118    2.74896948    0.00000000   2       4  Si
   -5.92446345    2.30902435    0.00000000   2       5  Si
   -6.59306949    3.29487939    0.92080482   3       6  H
   -6.06453674    0.89068502    0.49451629   3       7  H
   -6.50474503    2.40490001   -1.38436682   3       8  H
   -2.13627022    1.03191223    0.00000000   2       9  Si
   -2.37871376   -0.53414951    0.00000000   4      10  O
   -0.41462503    1.53504950    0.00000000   1      11  N
    0.26244516    0.71251724    0.00000000   3      12  H
    0.45021676    3.05280002    0.00000000   2      13  Si
    2.02522653    3.11861111    0.00000000   4      14  O
   -0.08884137    5.34747758    0.00000000   3      15  H

outcell: Unit cell vectors (Ang):
       16.866832    0.000000    0.000000
        0.000000   14.246958    0.000000
        0.000000    0.000000   10.244437

outcell: Cell vector modules (Ang)   :   16.866832   14.246958   10.244437
outcell: Cell angles (23,13,12) (deg):     90.0000     90.0000     90.0000
outcell: Cell volume (Ang**3)        :   2461.7487
<dSpData1D:S at geom step 0
  <sparsity:sparsity for geom step 0
    nrows_g=147 nrows=27 sparsity=.1804 nnzs=3898, refcount: 8>
  <dData1D:(new from dSpData1D) n=3898, refcount: 1>
refcount: 1>
new_DM -- step:     1
Initializing Density Matrix...
DM filled with atomic data:
<dSpData2D:DM initialized from atoms
  <sparsity:sparsity for geom step 0
    nrows_g=147 nrows=27 sparsity=.1804 nnzs=3898, refcount: 9>
  <dData2D:DM n=3898 m=8, refcount: 1>
refcount: 1>
     spin moment: S , {S} =   26.00000   0.00000   0.00000  26.00000
No. of atoms with KB's overlaping orbs in proc 0. Max # of overlaps:      15     125

Initializing spin-orbit part of the Hamiltonian
  Adding spin-orbit effects for N 
  Adding spin-orbit effects for Si
  Adding spin-orbit effects for H 
  Adding spin-orbit effects for O 


New grid distribution:   1
           1       1:   96    1:   40    1:   20
           2       1:   96    1:   40   21:   40
           3       1:   96    1:   40   41:   60
           4       1:   96   41:   80    1:   20
           5       1:   96   41:   80   21:   40
           6       1:   96   41:   80   41:   60

InitMesh: MESH =   192 x   160 x   120 =     3686400
InitMesh: (bp) =    96 x    80 x    60 =      460800
InitMesh: Mesh cutoff (required, used) =   340.000   348.576 Ry
ExtMesh (bp) on 0 =   200 x   144 x   128 =     3686400
New grid distribution:   2
           1       1:   76    1:   13    1:   60
           2      77:   96   14:   80    1:   20
           3      77:   96    1:   13    1:   60
           4       1:   76   14:   80    1:   21
           5      77:   96   14:   80   21:   60
           6       1:   76   14:   80   22:   60
New grid distribution:   3
           1       1:   64    1:   15    1:   60
           2      65:   96   20:   80    1:   25
           3      65:   96    1:   19    1:   60
           4       1:   64   16:   80    1:   23
           5      65:   96   20:   80   26:   60
           6       1:   64   16:   80   24:   60
Setting up quadratic distribution...
ExtMesh (bp) on 0 =   180 x   117 x   168 =     3538080
PhiOnMesh: Number of (b)points on node 0 =                59280
PhiOnMesh: nlist on node 0 =               900464

stepf: Fermi-Dirac step function

siesta: Program's energy decomposition (eV):
siesta: Ebs     =      -365.325547
siesta: Eions   =      1908.291957
siesta: Ena     =       161.909947
siesta: Ekin    =      1646.465425
siesta: Enl     =     -1407.412294
siesta: Eso     =        -0.002246
siesta: Edftu   =         0.000000
siesta: DEna    =        31.985135
siesta: DUscf   =        33.210141
siesta: DUext   =         0.000000
siesta: Exc     =      -579.554059
siesta: eta*DQ  =         0.000000
siesta: Emadel  =         0.000000
siesta: Emeta   =         0.000000
siesta: Emolmec =         0.000000
siesta: Ekinion =         0.000000
siesta: Eharris =     -1996.875132
siesta: Etot    =     -2021.689907
siesta: FreeEng =     -2021.694077

        iscf     Eharris(eV)        E_KS(eV)     FreeEng(eV)     dDmax    Ef(eV) dHmax(eV)
   scf:    1    -1996.875132    -2021.689907    -2021.694077  0.971371 -4.930111 21.004641
     spin moment: S , {S} =    0.03144   0.00002   0.00002   0.03144
timer: Routine,Calls,Time,% = IterSCF        1       2.755  15.19
   scf:    2    -2045.924990    -2037.276162    -2037.276170  0.131972 -4.896433  6.282771
     spin moment: S , {S} =    0.00010   0.00001   0.00000   0.00010
   scf:    3    -2039.553423    -2038.759808    -2038.759808  0.052073 -4.644528  4.583555
     spin moment: S , {S} =    0.00005   0.00000   0.00000   0.00005
   scf:    4    -2039.435234    -2039.135278    -2039.135278  0.030044 -4.587177  2.557104
     spin moment: S , {S} =    0.00002   0.00000   0.00000   0.00002
   scf:    5    -2039.139171    -2039.229247    -2039.229247  0.042087 -4.493324  2.312188
     spin moment: S , {S} =    0.00001   0.00000   0.00000   0.00001
   scf:    6    -2039.223998    -2039.345672    -2039.345672  0.037283 -4.617967  1.273461
     spin moment: S , {S} =    0.00000   0.00000   0.00000   0.00000
   scf:    7    -2039.395143    -2039.403057    -2039.403057  0.019733 -4.509133  0.536983
     spin moment: S , {S} =    0.00000   0.00000   0.00000   0.00000
   scf:    8    -2039.423991    -2039.415597    -2039.415597  0.007526 -4.541118  0.114477
     spin moment: S , {S} =    0.00000   0.00000   0.00000   0.00000
   scf:    9    -2039.423537    -2039.419315    -2039.419315  0.004789 -4.544966  0.056509
     spin moment: S , {S} =    0.00000   0.00000   0.00000   0.00000
   scf:   10    -2039.423705    -2039.421217    -2039.421217  0.004962 -4.544755  0.023052
     spin moment: S , {S} =    0.00000   0.00000   0.00000  -0.00000
   scf:   11    -2039.421752    -2039.421451    -2039.421451  0.001559 -4.540436  0.010428
     spin moment: S , {S} =    0.00000   0.00000   0.00000  -0.00000
   scf:   12    -2039.421527    -2039.421486    -2039.421486  0.000519 -4.537721  0.005733
     spin moment: S , {S} =    0.00000   0.00000   0.00000  -0.00000
   scf:   13    -2039.421528    -2039.421505    -2039.421505  0.000464 -4.535842  0.003527
     spin moment: S , {S} =    0.00000   0.00000   0.00000  -0.00000
   scf:   14    -2039.421525    -2039.421514    -2039.421514  0.000396 -4.535125  0.002364
     spin moment: S , {S} =    0.00000   0.00000   0.00000  -0.00000
   scf:   15    -2039.421523    -2039.421518    -2039.421518  0.000311 -4.535033  0.001630
     spin moment: S , {S} =    0.00000   0.00000   0.00000  -0.00000
   scf:   16    -2039.421521    -2039.421519    -2039.421519  0.000226 -4.534956  0.000826
     spin moment: S , {S} =    0.00000   0.00000   0.00000   0.00000
   scf:   17    -2039.421520    -2039.421520    -2039.421520  0.000131 -4.535061  0.000483
     spin moment: S , {S} =    0.00000   0.00000   0.00000   0.00000
   scf:   18    -2039.421520    -2039.421520    -2039.421520  0.000061 -4.535087  0.000366
     spin moment: S , {S} =    0.00000   0.00000   0.00000   0.00000
   scf:   19    -2039.421520    -2039.421520    -2039.421520  0.000062 -4.535083  0.000204
     spin moment: S , {S} =    0.00000   0.00000   0.00000   0.00000
   scf:   20    -2039.421520    -2039.421520    -2039.421520  0.000029 -4.535053  0.000132
     spin moment: S , {S} =    0.00000   0.00000   0.00000   0.00000
   scf:   21    -2039.421520    -2039.421520    -2039.421520  0.000018 -4.535034  0.000068
     spin moment: S , {S} =    0.00000   0.00000   0.00000   0.00000
   scf:   22    -2039.421520    -2039.421520    -2039.421520  0.000013 -4.535025  0.000027
     spin moment: S , {S} =    0.00000   0.00000   0.00000   0.00000
   scf:   23    -2039.421520    -2039.421520    -2039.421520  0.000002 -4.535026  0.000016
     spin moment: S , {S} =    0.00000   0.00000   0.00000   0.00000
   scf:   24    -2039.421520    -2039.421520    -2039.421520  0.000002 -4.535026  0.000008
     spin moment: S , {S} =    0.00000   0.00000   0.00000   0.00000
mix: Pulay -- resetting history
   scf:   25    -2039.421520    -2039.421520    -2039.421520  0.000001 -4.535026  0.000004
     spin moment: S , {S} =    0.00000   0.00000   0.00000   0.00000
   scf:   26    -2039.421520    -2039.421520    -2039.421520  0.000000 -4.535026  0.000002
     spin moment: S , {S} =    0.00000   0.00000   0.00000   0.00000
   scf:   27    -2039.421520    -2039.421520    -2039.421520  0.000000 -4.535026  0.000001
     spin moment: S , {S} =    0.00000   0.00000   0.00000   0.00000
   scf:   28    -2039.421520    -2039.421520    -2039.421520  0.000000 -4.535026  0.000001
     spin moment: S , {S} =    0.00000   0.00000   0.00000   0.00000

SCF Convergence by DM+H criterion
max |DM_out - DM_in|         :     0.0000001630
max |H_out - H_in|      (eV) :     0.0000007818
SCF cycle converged after 28 iterations

Using DM_out to compute the final energy and forces
No. of atoms with KB's overlaping orbs in proc 0. Max # of overlaps:      15     125

siesta: E_KS(eV) =            -2039.4215

siesta: E_KS - E_eggbox =     -2039.4215
     spin moment: S , {S} =    0.00000   0.00000   0.00000   0.00000

siesta: Atomic forces (eV/Ang):
     1    0.001588   -0.000509    0.003474
     2   -0.000717   -0.003831   -0.019200
     3    0.201710   -0.131739    0.006067
     4    0.081705    0.009143   -0.005252
     5    0.002412    0.000663    0.015182
     6   -0.044987    0.015730    0.147260
     7    0.040119    0.020958    0.178375
     8    0.004526    0.051956    0.033061
     9    0.000141    0.005380   -0.015407
    10    1.151804    0.031292    0.001120
    11    0.005450   -0.001675    0.003835
    12   -0.038939   -0.017069    0.001455
    13    0.000766   -0.001023   -0.000312
    14   -0.998165   -0.219108   -0.000712
    15   -0.005803   -0.006508    0.004381
----------------------------------------
   Tot    0.401611   -0.246340    0.353327
----------------------------------------
   Max    1.151804
   Res    0.235765    sqrt( Sum f_i^2 / 3N )
----------------------------------------
   Max    1.151804    constrained

Stress tensor Voigt[x,y,z,yz,xz,xy] (kbar):       -1.47       -1.29       -0.46        0.03        0.02       -0.81
(Free)E + p*V (eV/cell)    -2037.7688
Target enthalpy (eV/cell)    -2039.4215

mulliken: Atomic and Orbital Populations:

Species: N                   

Atom      Orb        Charge      Spin       Svec
----------------------------------------------------------------
    1  1 2s         1.38620   0.00000     -0.000  -0.000  -0.000
    1  2 2s         0.12252   0.00000      0.000   0.000   0.000
    1  3 2py        1.06188   0.00000     -0.000  -0.000  -0.000
    1  4 2pz        1.54886   0.00000     -0.000  -0.000  -0.000
    1  5 2px        1.00835   0.00000     -0.000   0.000   0.000
    1  6 2py        0.19823   0.00000      0.000   0.000   0.000
    1  7 2pz        0.00259   0.00000      0.000   0.000   0.000
    1  8 2px        0.21923   0.00000      0.000  -0.000   0.000
    1  9 3Pdxy      0.00656   0.00000     -0.000  -0.000   0.000
    1 10 3Pdyz      0.00173   0.00000     -0.000   0.000   0.000
    1 11 3Pdz2      0.00094   0.00000      0.000  -0.000  -0.000
    1 12 3Pdxz      0.00526   0.00000     -0.000  -0.000  -0.000
    1 13 3Pdx2-y2   0.00098   0.00000      0.000   0.000  -0.000
    1     Total     5.56331   0.00000     -0.000  -0.000  -0.000

   11  1 2s         1.37949   0.00000     -0.000   0.000  -0.000
   11  2 2s         0.12463   0.00000      0.000  -0.000   0.000
   11  3 2py        1.02703   0.00000     -0.000  -0.000  -0.000
   11  4 2pz        1.53541   0.00000     -0.000  -0.000  -0.000
   11  5 2px        1.03896   0.00000     -0.000  -0.000  -0.000
   11  6 2py        0.21434   0.00000      0.000   0.000   0.000
   11  7 2pz        0.00549   0.00000      0.000   0.000   0.000
   11  8 2px        0.21028   0.00000      0.000   0.000   0.000
   11  9 3Pdxy      0.00376   0.00000     -0.000   0.000   0.000
   11 10 3Pdyz      0.00236   0.00000      0.000   0.000   0.000
   11 11 3Pdz2     -0.00058   0.00000      0.000   0.000   0.000
   11 12 3Pdxz      0.00324   0.00000     -0.000   0.000   0.000
   11 13 3Pdx2-y2   0.00056   0.00000     -0.000  -0.000  -0.000
   11     Total     5.54498   0.00000     -0.000  -0.000  -0.000

----------------------------------------------------------------
Total              11.10830   0.00000     -0.000  -0.000  -0.000


Species: Si                  

Atom      Orb        Charge      Spin       Svec
----------------------------------------------------------------
    2  1 3s         0.73199   0.00000     -0.000   0.000  -0.000
    2  2 3s         0.35734   0.00000      0.000  -0.000  -0.000
    2  3 3py        0.15288   0.00000     -0.000  -0.000  -0.000
    2  4 3pz        0.62404   0.00000     -0.000   0.000  -0.000
    2  5 3px        0.29919   0.00000      0.000  -0.000  -0.000
    2  6 3py        0.50702   0.00000      0.000   0.000   0.000
    2  7 3pz        0.15047   0.00000     -0.000  -0.000  -0.000
    2  8 3px        0.27800   0.00000     -0.000  -0.000   0.000
    2  9 3Pdxy      0.10666   0.00000     -0.000   0.000  -0.000
    2 10 3Pdyz      0.04273   0.00000     -0.000  -0.000   0.000
    2 11 3Pdz2      0.00910   0.00000     -0.000   0.000   0.000
    2 12 3Pdxz      0.10544   0.00000     -0.000   0.000  -0.000
    2 13 3Pdx2-y2   0.16918   0.00000      0.000  -0.000   0.000
    2     Total     3.53405   0.00000     -0.000  -0.000  -0.000

    4  1 3s         0.86185   0.00000      0.000   0.000   0.000
    4  2 3s         0.31322   0.00000     -0.000  -0.000   0.000
    4  3 3py        0.45069   0.00000     -0.000   0.000   0.000
    4  4 3pz        0.66419   0.00000     -0.000  -0.000   0.000
    4  5 3px        0.35178   0.00000     -0.000   0.000   0.000
    4  6 3py        0.29598   0.00000     -0.000   0.000   0.000
    4  7 3pz        0.26221   0.00000      0.000   0.000   0.000
    4  8 3px        0.38076   0.00000      0.000   0.000   0.000
    4  9 3Pdxy      0.13375   0.00000     -0.000   0.000  -0.000
    4 10 3Pdyz      0.03206   0.00000      0.000  -0.000  -0.000
    4 11 3Pdz2      0.01414   0.00000      0.000   0.000  -0.000
    4 12 3Pdxz      0.05335   0.00000     -0.000   0.000  -0.000
    4 13 3Pdx2-y2   0.08976   0.00000      0.000  -0.000   0.000
    4     Total     3.90375   0.00000     -0.000   0.000   0.000

    5  1 3s         0.54170   0.00000      0.000  -0.000  -0.000
    5  2 3s         0.44472   0.00000     -0.000   0.000   0.000
    5  3 3py        0.26826   0.00000      0.000  -0.000   0.000
    5  4 3pz        0.26072   0.00000     -0.000   0.000  -0.000
    5  5 3px        0.47200   0.00000      0.000  -0.000   0.000
    5  6 3py        0.41607   0.00000     -0.000  -0.000   0.000
    5  7 3pz        0.42202   0.00000      0.000  -0.000   0.000
    5  8 3px        0.25770   0.00000     -0.000   0.000  -0.000
    5  9 3Pdxy      0.04393   0.00000     -0.000  -0.000   0.000
    5 10 3Pdyz      0.04586   0.00000      0.000  -0.000  -0.000
    5 11 3Pdz2      0.05433   0.00000     -0.000   0.000  -0.000
    5 12 3Pdxz      0.10099   0.00000     -0.000  -0.000   0.000
    5 13 3Pdx2-y2   0.07242   0.00000      0.000  -0.000  -0.000
    5     Total     3.40073   0.00000      0.000  -0.000   0.000

    9  1 3s         0.59943   0.00000      0.000  -0.000   0.000
    9  2 3s         0.37436   0.00000     -0.000   0.000  -0.000
    9  3 3py        0.11581   0.00000      0.000  -0.000   0.000
    9  4 3pz        0.42148   0.00000      0.000  -0.000   0.000
    9  5 3px        0.32411   0.00000      0.000  -0.000   0.000
    9  6 3py        0.46784   0.00000      0.000   0.000  -0.000
    9  7 3pz        0.18627   0.00000      0.000  -0.000   0.000
    9  8 3px        0.28800   0.00000      0.000   0.000   0.000
    9  9 3Pdxy      0.31562   0.00000      0.000   0.000   0.000
    9 10 3Pdyz      0.17547   0.00000      0.000  -0.000   0.000
    9 11 3Pdz2      0.01490   0.00000     -0.000   0.000   0.000
    9 12 3Pdxz      0.08254   0.00000      0.000  -0.000   0.000
    9 13 3Pdx2-y2   0.17934   0.00000     -0.000   0.000   0.000
    9     Total     3.54517   0.00000      0.000  -0.000   0.000

   13  1 3s         0.44148   0.00000      0.000  -0.000   0.000
   13  2 3s         0.37652   0.00000     -0.000   0.000  -0.000
   13  3 3py        0.26557   0.00000      0.000   0.000   0.000
   13  4 3pz        0.40498   0.00000      0.000   0.000   0.000
   13  5 3px        0.06495   0.00000      0.000  -0.000   0.000
   13  6 3py        0.28177   0.00000     -0.000   0.000   0.000
   13  7 3pz        0.19970   0.00000      0.000  -0.000   0.000
   13  8 3px        0.46701   0.00000     -0.000   0.000   0.000
   13  9 3Pdxy      0.35784   0.00000      0.000  -0.000   0.000
   13 10 3Pdyz      0.09574   0.00000      0.000   0.000   0.000
   13 11 3Pdz2      0.01523   0.00000     -0.000   0.000   0.000
   13 12 3Pdxz      0.18417   0.00000      0.000   0.000   0.000
   13 13 3Pdx2-y2   0.13410   0.00000      0.000  -0.000  -0.000
   13     Total     3.28906   0.00000      0.000   0.000   0.000

----------------------------------------------------------------
Total              28.78106   0.00000      0.000  -0.000   0.000


Species: H                   

Atom      Orb        Charge      Spin       Svec
----------------------------------------------------------------
    3  1 1s         1.04606   0.00000     -0.000   0.000   0.000
    3  2 1s         0.08321   0.00000     -0.000  -0.000   0.000
    3  3 2Ppy       0.03688   0.00000     -0.000  -0.000   0.000
    3  4 2Ppz       0.01834   0.00000      0.000   0.000  -0.000
    3  5 2Ppx       0.01023   0.00000      0.000   0.000   0.000
    3     Total     1.19472   0.00000     -0.000   0.000   0.000

    6  1 1s         1.06780   0.00000     -0.000  -0.000  -0.000
    6  2 1s         0.08152   0.00000      0.000   0.000   0.000
    6  3 2Ppy       0.02064   0.00000      0.000   0.000   0.000
    6  4 2Ppz       0.02080   0.00000      0.000  -0.000   0.000
    6  5 2Ppx       0.01408   0.00000     -0.000   0.000  -0.000
    6     Total     1.20484   0.00000     -0.000  -0.000  -0.000

    7  1 1s         1.05552   0.00000      0.000  -0.000  -0.000
    7  2 1s         0.08301   0.00000     -0.000  -0.000   0.000
    7  3 2Ppy       0.02766   0.00000     -0.000   0.000   0.000
    7  4 2Ppz       0.01722   0.00000     -0.000   0.000  -0.000
    7  5 2Ppx       0.00972   0.00000     -0.000   0.000  -0.000
    7     Total     1.19313   0.00000      0.000   0.000  -0.000

    8  1 1s         1.06235   0.00000      0.000  -0.000  -0.000
    8  2 1s         0.08287   0.00000     -0.000   0.000   0.000
    8  3 2Ppy       0.01576   0.00000     -0.000   0.000  -0.000
    8  4 2Ppz       0.02453   0.00000     -0.000  -0.000   0.000
    8  5 2Ppx       0.01361   0.00000     -0.000   0.000  -0.000
    8     Total     1.19911   0.00000      0.000  -0.000  -0.000

   12  1 1s         0.47930   0.00000      0.000  -0.000   0.000
   12  2 1s         0.18826   0.00000     -0.000   0.000   0.000
   12  3 2Ppy       0.02366   0.00000     -0.000   0.000  -0.000
   12  4 2Ppz       0.02853   0.00000      0.000   0.000  -0.000
   12  5 2Ppx       0.02627   0.00000      0.000   0.000  -0.000
   12     Total     0.74603   0.00000      0.000  -0.000   0.000

   15  1 1s         0.48215   0.00000      0.000   0.000  -0.000
   15  2 1s         0.18919   0.00000     -0.000  -0.000   0.000
   15  3 2Ppy       0.02310   0.00000      0.000   0.000   0.000
   15  4 2Ppz       0.03424   0.00000      0.000   0.000  -0.000
   15  5 2Ppx       0.02657   0.00000      0.000  -0.000  -0.000
   15     Total     0.75525   0.00000      0.000   0.000   0.000

----------------------------------------------------------------
Total              35.07414   0.00000      0.000  -0.000   0.000


Species: O                   

Atom      Orb        Charge      Spin       Svec
----------------------------------------------------------------
   10  1 2s         1.73736   0.00000      0.000   0.000  -0.000
   10  2 2s         0.07247   0.00000     -0.000  -0.000   0.000
   10  3 2py        1.42507   0.00000     -0.000  -0.000  -0.000
   10  4 2pz        1.51037   0.00000     -0.000   0.000  -0.000
   10  5 2px        1.63255   0.00000     -0.000  -0.000  -0.000
   10  6 2py        0.04683   0.00000      0.000  -0.000   0.000
   10  7 2pz       -0.00021   0.00000     -0.000  -0.000   0.000
   10  8 2px        0.01179   0.00000      0.000   0.000   0.000
   10  9 3Pdxy      0.00740   0.00000      0.000   0.000   0.000
   10 10 3Pdyz      0.01054   0.00000     -0.000  -0.000   0.000
   10 11 3Pdz2      0.00149   0.00000      0.000  -0.000   0.000
   10 12 3Pdxz      0.00005   0.00000      0.000   0.000   0.000
   10 13 3Pdx2-y2   0.00726   0.00000     -0.000   0.000  -0.000
   10     Total     6.46297   0.00000     -0.000   0.000  -0.000

   14  1 2s         1.73655   0.00000     -0.000  -0.000  -0.000
   14  2 2s         0.07364   0.00000      0.000   0.000   0.000
   14  3 2py        1.61057   0.00000     -0.000   0.000  -0.000
   14  4 2pz        1.53470   0.00000     -0.000  -0.000  -0.000
   14  5 2px        1.39926   0.00000      0.000   0.000  -0.000
   14  6 2py        0.02223   0.00000      0.000  -0.000   0.000
   14  7 2pz        0.00425   0.00000      0.000   0.000   0.000
   14  8 2px        0.05361   0.00000     -0.000  -0.000   0.000
   14  9 3Pdxy      0.00780   0.00000     -0.000   0.000   0.000
   14 10 3Pdyz     -0.00021   0.00000      0.000   0.000   0.000
   14 11 3Pdz2      0.00145   0.00000     -0.000   0.000   0.000
   14 12 3Pdxz      0.01103   0.00000      0.000  -0.000   0.000
   14 13 3Pdx2-y2   0.00801   0.00000     -0.000   0.000  -0.000
   14     Total     6.46289   0.00000     -0.000   0.000  -0.000

----------------------------------------------------------------
Total              48.00000   0.00000      0.000   0.000   0.000


                     ====================================
                        Begin CG opt. move =      1
                     ====================================

outcoor: Atomic coordinates (Ang):                          
   -0.65006024    4.45053158    0.00000000   1       1  N
   -2.44735023    4.58749481    0.00000000   2       2  Si
   -2.77969011    6.02994087    0.00000000   3       3  H
   -3.61970984    2.75070405    0.00000000   2       4  Si
   -5.92400575    2.30915012    0.00000000   2       5  Si
   -6.60160445    3.29786370    0.94874326   3       6  H
   -6.05692531    0.89466115    0.52835803   3       7  H
   -6.50388626    2.41475721   -1.37809438   3       8  H
   -2.13624355    1.03293301    0.00000000   2       9  Si
   -2.16019101   -0.52821273    0.00000000   4      10  O
   -0.41359096    1.53473169    0.00000000   1      11  N
    0.25505764    0.70927891    0.00000000   3      12  H
    0.45036200    3.05260602    0.00000000   2      13  Si
    1.83585250    3.07704146    0.00000000   4      14  O
   -0.08994237    5.34624283    0.00000000   3      15  H

outcell: Unit cell vectors (Ang):
       16.866832    0.000000    0.000000
        0.000000   14.246958    0.000000
        0.000000    0.000000   10.244437

outcell: Cell vector modules (Ang)   :   16.866832   14.246958   10.244437
outcell: Cell angles (23,13,12) (deg):     90.0000     90.0000     90.0000
outcell: Cell volume (Ang**3)        :   2461.7487
<dSpData1D:S at geom step 1
  <sparsity:sparsity for geom step 1
    nrows_g=147 nrows=27 sparsity=.1804 nnzs=3898, refcount: 8>
  <dData1D:(new from dSpData1D) n=3898, refcount: 1>
refcount: 1>
new_DM -- step:     2
Re-using DM from previous geometries...
Number of DMs in history: 1
 DM extrapolation coefficients: 
1   1.00000
New DM after history re-use:
<dSpData2D:SpM extrapolated using coords
  <sparsity:sparsity for geom step 1
    nrows_g=147 nrows=27 sparsity=.1804 nnzs=3898, refcount: 10>
  <dData2D:(temp array for extrapolation) n=3898 m=8, refcount: 1>
refcount: 1>
     spin moment: S , {S} =    0.00000   0.00000   0.00000   0.00000
Note: For starting DM, Qtot, Tr[D*S] =         48.00000000         48.09437918
No. of atoms with KB's overlaping orbs in proc 0. Max # of overlaps:      15     132
New grid distribution:   1
           1       1:   96    1:   40    1:   20
           2       1:   96    1:   40   21:   40
           3       1:   96    1:   40   41:   60
           4       1:   96   41:   80    1:   20
           5       1:   96   41:   80   21:   40
           6       1:   96   41:   80   41:   60

InitMesh: MESH =   192 x   160 x   120 =     3686400
InitMesh: (bp) =    96 x    80 x    60 =      460800
InitMesh: Mesh cutoff (required, used) =   340.000   348.576 Ry
ExtMesh (bp) on 0 =   200 x   144 x   128 =     3686400
New grid distribution:   2
           1       1:   77    1:   13    1:   60
           2      78:   96   14:   80    1:   20
           3      78:   96    1:   13    1:   60
           4       1:   77   14:   80    1:   20
           5       1:   77   14:   80   21:   60
           6      78:   96   14:   80   21:   60
New grid distribution:   3
           1       1:   64    1:   15    1:   60
           2      65:   96   20:   80    1:   25
           3      65:   96    1:   19    1:   60
           4       1:   64   16:   80    1:   23
           5      65:   96   20:   80   26:   60
           6       1:   64   16:   80   24:   60
Setting up quadratic distribution...
ExtMesh (bp) on 0 =   181 x   117 x   168 =     3557736
PhiOnMesh: Number of (b)points on node 0 =                60060
PhiOnMesh: nlist on node 0 =               925940

        iscf     Eharris(eV)        E_KS(eV)     FreeEng(eV)     dDmax    Ef(eV) dHmax(eV)
   scf:    1    -2035.534463    -2037.405408    -2037.405408  0.098036 -5.163942  3.938866
     spin moment: S , {S} =    0.00000  -0.00000   0.00000  -0.00000
   scf:    2    -2011.292288    -2029.420966    -2029.420966  0.243550 -4.005100 18.520321
     spin moment: S , {S} =    0.00000  -0.00000  -0.00000   0.00000
   scf:    3    -2038.665661    -2037.866333    -2037.866333  0.221464 -4.651855  1.243874
     spin moment: S , {S} =    0.00000   0.00000   0.00000   0.00000
   scf:    4    -2037.915469    -2037.898675    -2037.898675  0.010409 -4.756814  0.223427
     spin moment: S , {S} =    0.00000   0.00000   0.00000  -0.00000
   scf:    5    -2037.901619    -2037.900815    -2037.900815  0.003347 -4.193597  0.065055
     spin moment: S , {S} =    0.00000   0.00000   0.00000  -0.00000
   scf:    6    -2037.901275    -2037.901125    -2037.901125  0.001432 -4.204516  0.036955
     spin moment: S , {S} =    0.00000   0.00000   0.00000  -0.00000
   scf:    7    -2037.901266    -2037.901201    -2037.901201  0.000813 -4.211778  0.013790
     spin moment: S , {S} =    0.00000   0.00000   0.00000  -0.00000
   scf:    8    -2037.901221    -2037.901213    -2037.901213  0.000380 -4.213181  0.002541
     spin moment: S , {S} =    0.00000   0.00000   0.00000  -0.00000
   scf:    9    -2037.901215    -2037.901214    -2037.901214  0.000103 -4.213145  0.000678
     spin moment: S , {S} =    0.00000   0.00000   0.00000  -0.00000
   scf:   10    -2037.901214    -2037.901214    -2037.901214  0.000025 -4.213080  0.000297
     spin moment: S , {S} =    0.00000   0.00000   0.00000  -0.00000
   scf:   11    -2037.901214    -2037.901214    -2037.901214  0.000009 -4.212985  0.000126
     spin moment: S , {S} =    0.00000   0.00000   0.00000  -0.00000
   scf:   12    -2037.901214    -2037.901214    -2037.901214  0.000004 -4.212940  0.000030
     spin moment: S , {S} =    0.00000   0.00000   0.00000  -0.00000
   scf:   13    -2037.901214    -2037.901214    -2037.901214  0.000001 -4.212927  0.000011
     spin moment: S , {S} =    0.00000   0.00000   0.00000  -0.00000
   scf:   14    -2037.901214    -2037.901214    -2037.901214  0.000001 -4.212926  0.000005
     spin moment: S , {S} =    0.00000   0.00000   0.00000  -0.00000
   scf:   15    -2037.901214    -2037.901214    -2037.901214  0.000000 -4.212925  0.000003
     spin moment: S , {S} =    0.00000   0.00000   0.00000  -0.00000
   scf:   16    -2037.901214    -2037.901214    -2037.901214  0.000000 -4.212923  0.000001
     spin moment: S , {S} =    0.00000   0.00000   0.00000  -0.00000
   scf:   17    -2037.901214    -2037.901214    -2037.901214  0.000000 -4.212923  0.000000
     spin moment: S , {S} =    0.00000   0.00000   0.00000  -0.00000

SCF Convergence by DM+H criterion
max |DM_out - DM_in|         :     0.0000000433
max |H_out - H_in|      (eV) :     0.0000003259
SCF cycle converged after 17 iterations

Using DM_out to compute the final energy and forces
No. of atoms with KB's overlaping orbs in proc 0. Max # of overlaps:      15     132

siesta: E_KS(eV) =            -2037.9012
     spin moment: S , {S} =    0.00000   0.00000   0.00000  -0.00000

siesta: Atomic forces (eV/Ang):
     1   -0.124784   -0.017535    0.003443
     2    0.471398   -0.393055   -0.022687
     3   -0.252053    0.411674    0.006702
     4   -0.411928   -0.095688   -0.004021
     5    0.047185    0.189444    0.427112
     6    0.188941   -0.212843   -0.287935
     7   -0.022392    0.068520   -0.164416
     8   -0.047438   -0.065925   -0.049387
     9    0.782779    0.782185   -0.013652
    10   -2.053412   -2.937049    0.001172
    11   -0.207352    0.640488    0.003196
    12    0.015475   -0.016419    0.001535
    13  -13.654295   -0.672905   -0.000265
    14   16.235888    1.721597   -0.000769
    15    0.062254    0.078964    0.004940
----------------------------------------
   Tot    1.030264   -0.518547   -0.095030
----------------------------------------
   Max   16.235888
   Res    3.229113    sqrt( Sum f_i^2 / 3N )
----------------------------------------
   Max   16.235888    constrained

Stress tensor Voigt[x,y,z,yz,xz,xy] (kbar):      -13.46       -2.64       -0.25        0.10       -0.12       -1.53
(Free)E + p*V (eV/cell)    -2029.5223
Target enthalpy (eV/cell)    -2037.9012

mulliken: Atomic and Orbital Populations:

Species: N                   

Atom      Orb        Charge      Spin       Svec
----------------------------------------------------------------
    1  1 2s         1.38452   0.00000     -0.000  -0.000  -0.000
    1  2 2s         0.12325   0.00000      0.000   0.000   0.000
    1  3 2py        1.06142   0.00000     -0.000  -0.000  -0.000
    1  4 2pz        1.55003   0.00000      0.000  -0.000   0.000
    1  5 2px        1.01280   0.00000     -0.000   0.000   0.000
    1  6 2py        0.19915   0.00000      0.000   0.000   0.000
    1  7 2pz        0.00255   0.00000     -0.000   0.000  -0.000
    1  8 2px        0.21642   0.00000      0.000   0.000  -0.000
    1  9 3Pdxy      0.00488   0.00000     -0.000  -0.000   0.000
    1 10 3Pdyz      0.00168   0.00000      0.000   0.000   0.000
    1 11 3Pdz2      0.00006   0.00000      0.000  -0.000   0.000
    1 12 3Pdxz      0.00489   0.00000     -0.000  -0.000  -0.000
    1 13 3Pdx2-y2   0.00087   0.00000      0.000   0.000   0.000
    1     Total     5.56253   0.00000     -0.000  -0.000  -0.000

   11  1 2s         1.37456   0.00000      0.000  -0.000  -0.000
   11  2 2s         0.12524   0.00000     -0.000   0.000   0.000
   11  3 2py        1.01897   0.00000      0.000  -0.000   0.000
   11  4 2pz        1.53142   0.00000     -0.000   0.000  -0.000
   11  5 2px        1.04174   0.00000      0.000   0.000  -0.000
   11  6 2py        0.21567   0.00000     -0.000   0.000  -0.000
   11  7 2pz        0.00579   0.00000      0.000  -0.000   0.000
   11  8 2px        0.20608   0.00000     -0.000   0.000   0.000
   11  9 3Pdxy      0.00088   0.00000      0.000  -0.000   0.000
   11 10 3Pdyz      0.00223   0.00000     -0.000   0.000   0.000
   11 11 3Pdz2     -0.00209   0.00000      0.000  -0.000  -0.000
   11 12 3Pdxz      0.00278   0.00000      0.000  -0.000  -0.000
   11 13 3Pdx2-y2   0.00088   0.00000     -0.000  -0.000  -0.000
   11     Total     5.52414   0.00000      0.000  -0.000  -0.000

----------------------------------------------------------------
Total              11.08667   0.00000     -0.000  -0.000  -0.000


Species: Si                  

Atom      Orb        Charge      Spin       Svec
----------------------------------------------------------------
    2  1 3s         0.72171   0.00000     -0.000  -0.000  -0.000
    2  2 3s         0.35981   0.00000      0.000   0.000   0.000
    2  3 3py        0.13457   0.00000     -0.000  -0.000  -0.000
    2  4 3pz        0.61729   0.00000      0.000   0.000  -0.000
    2  5 3px        0.30550   0.00000      0.000  -0.000  -0.000
    2  6 3py        0.52414   0.00000      0.000   0.000   0.000
    2  7 3pz        0.15240   0.00000      0.000  -0.000  -0.000
    2  8 3px        0.27574   0.00000     -0.000   0.000   0.000
    2  9 3Pdxy      0.10640   0.00000     -0.000  -0.000  -0.000
    2 10 3Pdyz      0.04448   0.00000     -0.000  -0.000   0.000
    2 11 3Pdz2      0.00889   0.00000     -0.000   0.000   0.000
    2 12 3Pdxz      0.10873   0.00000      0.000  -0.000  -0.000
    2 13 3Pdx2-y2   0.17063   0.00000      0.000  -0.000   0.000
    2     Total     3.53029   0.00000     -0.000  -0.000  -0.000

    4  1 3s         0.87068   0.00000      0.000  -0.000   0.000
    4  2 3s         0.30772   0.00000     -0.000   0.000  -0.000
    4  3 3py        0.44930   0.00000      0.000   0.000   0.000
    4  4 3pz        0.66471   0.00000     -0.000  -0.000   0.000
    4  5 3px        0.36395   0.00000     -0.000   0.000  -0.000
    4  6 3py        0.29818   0.00000     -0.000   0.000  -0.000
    4  7 3pz        0.26977   0.00000     -0.000  -0.000   0.000
    4  8 3px        0.37215   0.00000      0.000  -0.000   0.000
    4  9 3Pdxy      0.13218   0.00000      0.000   0.000   0.000
    4 10 3Pdyz      0.03258   0.00000     -0.000  -0.000  -0.000
    4 11 3Pdz2      0.01454   0.00000      0.000  -0.000   0.000
    4 12 3Pdxz      0.05244   0.00000      0.000   0.000   0.000
    4 13 3Pdx2-y2   0.09104   0.00000     -0.000   0.000  -0.000
    4     Total     3.91924   0.00000      0.000  -0.000   0.000

    5  1 3s         0.54683   0.00000     -0.000   0.000  -0.000
    5  2 3s         0.44242   0.00000      0.000  -0.000   0.000
    5  3 3py        0.28230   0.00000      0.000   0.000  -0.000
    5  4 3pz        0.25668   0.00000      0.000   0.000   0.000
    5  5 3px        0.47888   0.00000      0.000   0.000   0.000
    5  6 3py        0.40339   0.00000     -0.000  -0.000   0.000
    5  7 3pz        0.42372   0.00000      0.000   0.000   0.000
    5  8 3px        0.25410   0.00000     -0.000   0.000  -0.000
    5  9 3Pdxy      0.04219   0.00000     -0.000  -0.000  -0.000
    5 10 3Pdyz      0.04739   0.00000     -0.000  -0.000  -0.000
    5 11 3Pdz2      0.05371   0.00000      0.000   0.000  -0.000
    5 12 3Pdxz      0.10184   0.00000      0.000   0.000   0.000
    5 13 3Pdx2-y2   0.07064   0.00000      0.000  -0.000   0.000
    5     Total     3.40410   0.00000     -0.000   0.000  -0.000

    9  1 3s         0.61325   0.00000      0.000  -0.000  -0.000
    9  2 3s         0.36440   0.00000     -0.000   0.000   0.000
    9  3 3py        0.09431   0.00000      0.000   0.000   0.000
    9  4 3pz        0.41355   0.00000      0.000   0.000   0.000
    9  5 3px        0.33575   0.00000      0.000   0.000   0.000
    9  6 3py        0.47995   0.00000     -0.000  -0.000  -0.000
    9  7 3pz        0.19247   0.00000      0.000   0.000   0.000
    9  8 3px        0.28425   0.00000      0.000  -0.000   0.000
    9  9 3Pdxy      0.33127   0.00000     -0.000  -0.000   0.000
    9 10 3Pdyz      0.18601   0.00000      0.000   0.000   0.000
    9 11 3Pdz2      0.01513   0.00000     -0.000   0.000   0.000
    9 12 3Pdxz      0.08128   0.00000     -0.000  -0.000   0.000
    9 13 3Pdx2-y2   0.15854   0.00000     -0.000  -0.000   0.000
    9     Total     3.55017   0.00000      0.000   0.000   0.000

   13  1 3s         0.38329   0.00000     -0.000   0.000   0.000
   13  2 3s         0.37881   0.00000      0.000  -0.000  -0.000
   13  3 3py        0.20536   0.00000      0.000   0.000   0.000
   13  4 3pz        0.34921   0.00000      0.000  -0.000   0.000
   13  5 3px        0.08558   0.00000      0.000   0.000   0.000
   13  6 3py        0.33623   0.00000     -0.000   0.000  -0.000
   13  7 3pz        0.23647   0.00000      0.000   0.000   0.000
   13  8 3px        0.42974   0.00000      0.000  -0.000  -0.000
   13  9 3Pdxy      0.39041   0.00000     -0.000   0.000   0.000
   13 10 3Pdyz      0.09840   0.00000      0.000   0.000   0.000
   13 11 3Pdz2      0.01614   0.00000     -0.000   0.000   0.000
   13 12 3Pdxz      0.19913   0.00000      0.000   0.000  -0.000
   13 13 3Pdx2-y2   0.13056   0.00000      0.000  -0.000   0.000
   13     Total     3.23934   0.00000      0.000   0.000   0.000

----------------------------------------------------------------
Total              28.72981   0.00000      0.000   0.000   0.000


Species: H                   

Atom      Orb        Charge      Spin       Svec
----------------------------------------------------------------
    3  1 1s         1.03827   0.00000      0.000   0.000   0.000
    3  2 1s         0.08904   0.00000     -0.000  -0.000  -0.000
    3  3 2Ppy       0.03580   0.00000      0.000  -0.000   0.000
    3  4 2Ppz       0.01925   0.00000      0.000  -0.000  -0.000
    3  5 2Ppx       0.00942   0.00000     -0.000  -0.000  -0.000
    3     Total     1.19178   0.00000      0.000  -0.000   0.000

    6  1 1s         1.07247   0.00000      0.000  -0.000  -0.000
    6  2 1s         0.07790   0.00000     -0.000  -0.000   0.000
    6  3 2Ppy       0.02016   0.00000      0.000  -0.000   0.000
    6  4 2Ppz       0.02124   0.00000      0.000   0.000   0.000
    6  5 2Ppx       0.01407   0.00000     -0.000   0.000  -0.000
    6     Total     1.20584   0.00000      0.000  -0.000  -0.000

    7  1 1s         1.05809   0.00000     -0.000   0.000   0.000
    7  2 1s         0.08180   0.00000      0.000  -0.000  -0.000
    7  3 2Ppy       0.02741   0.00000      0.000   0.000  -0.000
    7  4 2Ppz       0.01774   0.00000      0.000  -0.000   0.000
    7  5 2Ppx       0.00962   0.00000     -0.000   0.000   0.000
    7     Total     1.19467   0.00000     -0.000   0.000   0.000

    8  1 1s         1.06073   0.00000     -0.000  -0.000  -0.000
    8  2 1s         0.08375   0.00000      0.000   0.000  -0.000
    8  3 2Ppy       0.01614   0.00000      0.000  -0.000  -0.000
    8  4 2Ppz       0.02506   0.00000     -0.000  -0.000  -0.000
    8  5 2Ppx       0.01382   0.00000     -0.000  -0.000  -0.000
    8     Total     1.19949   0.00000     -0.000  -0.000  -0.000

   12  1 1s         0.48303   0.00000     -0.000   0.000   0.000
   12  2 1s         0.18898   0.00000     -0.000  -0.000  -0.000
   12  3 2Ppy       0.02550   0.00000     -0.000   0.000  -0.000
   12  4 2Ppz       0.02899   0.00000     -0.000   0.000   0.000
   12  5 2Ppx       0.02571   0.00000     -0.000  -0.000  -0.000
   12     Total     0.75221   0.00000     -0.000   0.000   0.000

   15  1 1s         0.48850   0.00000      0.000   0.000   0.000
   15  2 1s         0.18899   0.00000     -0.000  -0.000  -0.000
   15  3 2Ppy       0.02347   0.00000      0.000   0.000   0.000
   15  4 2Ppz       0.03546   0.00000     -0.000   0.000  -0.000
   15  5 2Ppx       0.02614   0.00000      0.000   0.000   0.000
   15     Total     0.76255   0.00000      0.000   0.000  -0.000

----------------------------------------------------------------
Total              35.03636   0.00000      0.000   0.000   0.000


Species: O                   

Atom      Orb        Charge      Spin       Svec
----------------------------------------------------------------
   10  1 2s         1.72358   0.00000     -0.000   0.000  -0.000
   10  2 2s         0.07751   0.00000     -0.000  -0.000   0.000
   10  3 2py        1.44183   0.00000     -0.000  -0.000   0.000
   10  4 2pz        1.50746   0.00000     -0.000  -0.000  -0.000
   10  5 2px        1.63053   0.00000     -0.000   0.000  -0.000
   10  6 2py        0.04704   0.00000     -0.000   0.000  -0.000
   10  7 2pz        0.00046   0.00000     -0.000   0.000   0.000
   10  8 2px        0.01001   0.00000      0.000  -0.000   0.000
   10  9 3Pdxy      0.00717   0.00000     -0.000  -0.000  -0.000
   10 10 3Pdyz      0.01111   0.00000      0.000   0.000   0.000
   10 11 3Pdz2      0.00123   0.00000      0.000  -0.000   0.000
   10 12 3Pdxz     -0.00019   0.00000      0.000  -0.000  -0.000
   10 13 3Pdx2-y2   0.00740   0.00000      0.000  -0.000  -0.000
   10     Total     6.46515   0.00000     -0.000  -0.000  -0.000

   14  1 2s         1.62415   0.00000     -0.000   0.000  -0.000
   14  2 2s         0.12408   0.00000      0.000  -0.000   0.000
   14  3 2py        1.53999   0.00000     -0.000  -0.000   0.000
   14  4 2pz        1.50182   0.00000     -0.000  -0.000  -0.000
   14  5 2px        1.53789   0.00000     -0.000   0.000   0.000
   14  6 2py        0.05156   0.00000      0.000   0.000  -0.000
   14  7 2pz        0.01946   0.00000      0.000   0.000  -0.000
   14  8 2px        0.06599   0.00000     -0.000   0.000  -0.000
   14  9 3Pdxy      0.01053   0.00000      0.000   0.000  -0.000
   14 10 3Pdyz     -0.00032   0.00000      0.000   0.000  -0.000
   14 11 3Pdz2      0.00027   0.00000      0.000   0.000   0.000
   14 12 3Pdxz      0.01604   0.00000      0.000   0.000   0.000
   14 13 3Pdx2-y2   0.00704   0.00000      0.000  -0.000  -0.000
   14     Total     6.49849   0.00000     -0.000  -0.000  -0.000

----------------------------------------------------------------
Total              48.00000   0.00000      0.000   0.000  -0.000


                     ====================================
                        Begin CG opt. move =      2
                     ====================================

outcoor: Atomic coordinates (Ang):                          
   -0.65032687    4.45061703    0.00000000   1       1  N
   -2.44722987    4.58813810    0.00000000   2       2  Si
   -2.81356490    6.05206487    0.00000000   3       3  H
   -3.63343130    2.74916865    0.00000000   2       4  Si
   -5.92441090    2.30903879    0.00000000   2       5  Si
   -6.59404949    3.29522205    0.92401275   3       6  H
   -6.06366279    0.89114156    0.49840204   3       7  H
   -6.50464642    2.40603183   -1.38364661   3       8  H
   -2.13626716    1.03202944    0.00000000   2       9  Si
   -2.35362269   -0.53346784    0.00000000   4      10  O
   -0.41450630    1.53501301    0.00000000   1      11  N
    0.26159691    0.71214541    0.00000000   3      12  H
    0.45023344    3.05277774    0.00000000   2      13  Si
    2.00348235    3.11383803    0.00000000   4      14  O
   -0.08896779    5.34733580    0.00000000   3      15  H

outcell: Unit cell vectors (Ang):
       16.866832    0.000000    0.000000
        0.000000   14.246958    0.000000
        0.000000    0.000000   10.244437

outcell: Cell vector modules (Ang)   :   16.866832   14.246958   10.244437
outcell: Cell angles (23,13,12) (deg):     90.0000     90.0000     90.0000
outcell: Cell volume (Ang**3)        :   2461.7487
<dSpData1D:S at geom step 2
  <sparsity:sparsity for geom step 2
    nrows_g=147 nrows=27 sparsity=.1804 nnzs=3898, refcount: 8>
  <dData1D:(new from dSpData1D) n=3898, refcount: 1>
refcount: 1>
new_DM -- step:     3
Re-using DM from previous geometries...
Number of DMs in history: 1
 DM extrapolation coefficients: 
1   1.00000
New DM after history re-use:
<dSpData2D:SpM extrapolated using coords
  <sparsity:sparsity for geom step 2
    nrows_g=147 nrows=27 sparsity=.1804 nnzs=3898, refcount: 10>
  <dData2D:(temp array for extrapolation) n=3898 m=8, refcount: 1>
refcount: 1>
     spin moment: S , {S} =    0.00000  -0.00000  -0.00000  -0.00000
Note: For starting DM, Qtot, Tr[D*S] =         48.00000000         47.85733063
No. of atoms with KB's overlaping orbs in proc 0. Max # of overlaps:      15     125
New grid distribution:   1
           1       1:   96    1:   40    1:   20
           2       1:   96    1:   40   21:   40
           3       1:   96    1:   40   41:   60
           4       1:   96   41:   80    1:   20
           5       1:   96   41:   80   21:   40
           6       1:   96   41:   80   41:   60

InitMesh: MESH =   192 x   160 x   120 =     3686400
InitMesh: (bp) =    96 x    80 x    60 =      460800
InitMesh: Mesh cutoff (required, used) =   340.000   348.576 Ry
ExtMesh (bp) on 0 =   200 x   144 x   128 =     3686400
New grid distribution:   2
           1       1:   76    1:   13    1:   60
           2      77:   96   14:   80    1:   20
           3      77:   96    1:   13    1:   60
           4       1:   76   14:   80    1:   21
           5      77:   96   14:   80   21:   60
           6       1:   76   14:   80   22:   60
New grid distribution:   3
           1       1:   64    1:   15    1:   60
           2      65:   96   20:   80    1:   25
           3      65:   96    1:   19    1:   60
           4       1:   64   16:   80    1:   23
           5      65:   96   20:   80   26:   60
           6       1:   64   16:   80   24:   60
Setting up quadratic distribution...
ExtMesh (bp) on 0 =   180 x   117 x   168 =     3538080
PhiOnMesh: Number of (b)points on node 0 =                59280
PhiOnMesh: nlist on node 0 =               900246

        iscf     Eharris(eV)        E_KS(eV)     FreeEng(eV)     dDmax    Ef(eV) dHmax(eV)
   scf:    1    -2039.377909    -2039.083420    -2039.083420  0.099827 -4.772000  1.514646
     spin moment: S , {S} =    0.00000   0.00000   0.00000  -0.00000
   scf:    2    -2033.324949    -2037.475559    -2037.475559  0.077710 -5.059103  5.876720
     spin moment: S , {S} =    0.00000  -0.00000   0.00000   0.00000
   scf:    3    -2039.810253    -2039.347333    -2039.347333  0.054590 -4.735635  0.344148
     spin moment: S , {S} =    0.00000   0.00000   0.00000  -0.00000
   scf:    4    -2039.354213    -2039.352173    -2039.352173  0.005621 -4.636025  0.088091
     spin moment: S , {S} =    0.00000   0.00000  -0.00000  -0.00000
   scf:    5    -2039.352805    -2039.352812    -2039.352812  0.001171 -4.629307  0.059395
     spin moment: S , {S} =    0.00000   0.00000  -0.00000   0.00000
   scf:    6    -2039.353047    -2039.352994    -2039.352994  0.001608 -4.619907  0.024133
     spin moment: S , {S} =    0.00000   0.00000  -0.00000   0.00000
   scf:    7    -2039.353064    -2039.353037    -2039.353037  0.000685 -4.617403  0.004366
     spin moment: S , {S} =    0.00000   0.00000  -0.00000   0.00000
   scf:    8    -2039.353040    -2039.353039    -2039.353039  0.000137 -4.617529  0.002336
     spin moment: S , {S} =    0.00000   0.00000  -0.00000   0.00000
   scf:    9    -2039.353040    -2039.353039    -2039.353039  0.000078 -4.617441  0.000697
     spin moment: S , {S} =    0.00000   0.00000  -0.00000   0.00000
   scf:   10    -2039.353039    -2039.353039    -2039.353039  0.000017 -4.617522  0.000367
     spin moment: S , {S} =    0.00000   0.00000  -0.00000   0.00000
   scf:   11    -2039.353039    -2039.353039    -2039.353039  0.000013 -4.617565  0.000182
     spin moment: S , {S} =    0.00000   0.00000  -0.00000   0.00000
   scf:   12    -2039.353039    -2039.353039    -2039.353039  0.000005 -4.617603  0.000071
[...]
    11   -0.000029    0.000032    0.006763
    12   -0.000019    0.000023    0.002767
    13    0.000037    0.000004   -0.000785
    14   -0.000002   -0.000038   -0.001147
    15    0.000043    0.000036    0.008118
----------------------------------------
   Tot    0.000060    0.000111   -0.048019
----------------------------------------
   Max    0.041935
   Res    0.010469    sqrt( Sum f_i^2 / 3N )
----------------------------------------
   Max    0.000081    constrained

Stress tensor Voigt[x,y,z,yz,xz,xy] (kbar):       -3.28       -2.06       -0.47       -0.00        0.12       -1.04
(Free)E + p*V (eV/cell)    -2036.3483
Target enthalpy (eV/cell)    -2039.3223

mulliken: Atomic and Orbital Populations:

Species: N                   

Atom      Orb        Charge      Spin       Svec
----------------------------------------------------------------
    1  1 2s         1.37836   0.00000     -0.000   0.000  -0.000
    1  2 2s         0.12612   0.00000      0.000  -0.000   0.000
    1  3 2py        1.06128   0.00000     -0.000   0.000  -0.000
    1  4 2pz        1.54687   0.00000      0.000  -0.000   0.000
    1  5 2px        1.01034   0.00000     -0.000  -0.000  -0.000
    1  6 2py        0.19995   0.00000      0.000   0.000   0.000
    1  7 2pz        0.00333   0.00000     -0.000   0.000  -0.000
    1  8 2px        0.22030   0.00000      0.000   0.000   0.000
    1  9 3Pdxy      0.00650   0.00000     -0.000   0.000   0.000
    1 10 3Pdyz      0.00183   0.00000     -0.000   0.000  -0.000
    1 11 3Pdz2      0.00090   0.00000     -0.000  -0.000   0.000
    1 12 3Pdxz      0.00528   0.00000      0.000  -0.000  -0.000
    1 13 3Pdx2-y2   0.00108   0.00000      0.000  -0.000   0.000
    1     Total     5.56214   0.00000     -0.000  -0.000  -0.000

   11  1 2s         1.37340   0.00000     -0.000  -0.000   0.000
   11  2 2s         0.12505   0.00000      0.000   0.000  -0.000
   11  3 2py        1.01890   0.00000     -0.000   0.000  -0.000
   11  4 2pz        1.53145   0.00000      0.000   0.000   0.000
   11  5 2px        1.03644   0.00000     -0.000   0.000  -0.000
   11  6 2py        0.22007   0.00000      0.000  -0.000   0.000
   11  7 2pz        0.00521   0.00000     -0.000  -0.000   0.000
   11  8 2px        0.21506   0.00000      0.000  -0.000   0.000
   11  9 3Pdxy      0.00250   0.00000     -0.000   0.000   0.000
   11 10 3Pdyz      0.00230   0.00000      0.000  -0.000   0.000
   11 11 3Pdz2     -0.00125   0.00000      0.000   0.000   0.000
   11 12 3Pdxz      0.00316   0.00000      0.000  -0.000  -0.000
   11 13 3Pdx2-y2   0.00035   0.00000     -0.000   0.000  -0.000
   11     Total     5.53266   0.00000     -0.000   0.000  -0.000

----------------------------------------------------------------
Total              11.09480   0.00000     -0.000   0.000  -0.000


Species: Si                  

Atom      Orb        Charge      Spin       Svec
----------------------------------------------------------------
    2  1 3s         0.73134   0.00000      0.000  -0.000   0.000
    2  2 3s         0.35755   0.00000     -0.000   0.000  -0.000
    2  3 3py        0.15378   0.00000     -0.000   0.000  -0.000
    2  4 3pz        0.61783   0.00000     -0.000   0.000   0.000
    2  5 3px        0.28937   0.00000      0.000   0.000   0.000
    2  6 3py        0.51041   0.00000      0.000   0.000   0.000
    2  7 3pz        0.15189   0.00000      0.000   0.000   0.000
    2  8 3px        0.28416   0.00000     -0.000  -0.000  -0.000
    2  9 3Pdxy      0.11046   0.00000     -0.000  -0.000   0.000
    2 10 3Pdyz      0.04564   0.00000     -0.000  -0.000  -0.000
    2 11 3Pdz2      0.00900   0.00000     -0.000   0.000   0.000
    2 12 3Pdxz      0.10533   0.00000      0.000   0.000  -0.000
    2 13 3Pdx2-y2   0.16577   0.00000      0.000   0.000   0.000
    2     Total     3.53252   0.00000     -0.000   0.000   0.000

    4  1 3s         0.86420   0.00000      0.000  -0.000  -0.000
    4  2 3s         0.31207   0.00000     -0.000   0.000   0.000
    4  3 3py        0.44428   0.00000     -0.000   0.000  -0.000
    4  4 3pz        0.65915   0.00000      0.000   0.000  -0.000
    4  5 3px        0.36007   0.00000     -0.000  -0.000  -0.000
    4  6 3py        0.29711   0.00000      0.000   0.000   0.000
    4  7 3pz        0.26832   0.00000     -0.000  -0.000  -0.000
    4  8 3px        0.37763   0.00000      0.000   0.000   0.000
    4  9 3Pdxy      0.13469   0.00000     -0.000   0.000  -0.000
    4 10 3Pdyz      0.03199   0.00000      0.000   0.000  -0.000
    4 11 3Pdz2      0.01453   0.00000      0.000   0.000   0.000
    4 12 3Pdxz      0.05382   0.00000      0.000  -0.000  -0.000
    4 13 3Pdx2-y2   0.09018   0.00000      0.000   0.000  -0.000
    4     Total     3.90802   0.00000      0.000  -0.000  -0.000

    5  1 3s         0.53968   0.00000     -0.000   0.000   0.000
    5  2 3s         0.44489   0.00000      0.000  -0.000  -0.000
    5  3 3py        0.28004   0.00000      0.000   0.000   0.000
    5  4 3pz        0.25337   0.00000     -0.000  -0.000   0.000
    5  5 3px        0.47488   0.00000      0.000   0.000   0.000
    5  6 3py        0.40893   0.00000     -0.000  -0.000  -0.000
    5  7 3pz        0.42549   0.00000     -0.000  -0.000  -0.000
    5  8 3px        0.25927   0.00000     -0.000  -0.000  -0.000
    5  9 3Pdxy      0.04174   0.00000     -0.000  -0.000  -0.000
    5 10 3Pdyz      0.04864   0.00000      0.000   0.000   0.000
    5 11 3Pdz2      0.05116   0.00000     -0.000   0.000  -0.000
    5 12 3Pdxz      0.10568   0.00000      0.000   0.000  -0.000
    5 13 3Pdx2-y2   0.07380   0.00000      0.000  -0.000   0.000
    5     Total     3.40758   0.00000      0.000   0.000   0.000

    9  1 3s         0.61069   0.00000      0.000  -0.000   0.000
    9  2 3s         0.36742   0.00000     -0.000   0.000  -0.000
    9  3 3py        0.09051   0.00000      0.000   0.000  -0.000
    9  4 3pz        0.41509   0.00000      0.000  -0.000  -0.000
    9  5 3px        0.35066   0.00000      0.000  -0.000   0.000
    9  6 3py        0.48047   0.00000     -0.000  -0.000   0.000
    9  7 3pz        0.18993   0.00000      0.000   0.000  -0.000
    9  8 3px        0.27655   0.00000     -0.000   0.000  -0.000
    9  9 3Pdxy      0.33911   0.00000     -0.000   0.000  -0.000
    9 10 3Pdyz      0.18467   0.00000     -0.000   0.000  -0.000
    9 11 3Pdz2      0.01547   0.00000     -0.000   0.000  -0.000
    9 12 3Pdxz      0.07924   0.00000      0.000  -0.000  -0.000
    9 13 3Pdx2-y2   0.15273   0.00000     -0.000  -0.000  -0.000
    9     Total     3.55255   0.00000      0.000  -0.000   0.000

   13  1 3s         0.43491   0.00000      0.000  -0.000   0.000
   13  2 3s         0.37702   0.00000     -0.000   0.000  -0.000
   13  3 3py        0.26904   0.00000      0.000   0.000   0.000
   13  4 3pz        0.40148   0.00000      0.000  -0.000   0.000
   13  5 3px        0.06183   0.00000      0.000  -0.000   0.000
   13  6 3py        0.28270   0.00000     -0.000  -0.000  -0.000
   13  7 3pz        0.20298   0.00000      0.000   0.000  -0.000
   13  8 3px        0.47006   0.00000     -0.000   0.000  -0.000
   13  9 3Pdxy      0.36286   0.00000      0.000   0.000  -0.000
   13 10 3Pdyz      0.09561   0.00000     -0.000   0.000  -0.000
   13 11 3Pdz2      0.01566   0.00000     -0.000   0.000  -0.000
   13 12 3Pdxz      0.18708   0.00000     -0.000  -0.000   0.000
   13 13 3Pdx2-y2   0.13389   0.00000      0.000   0.000   0.000
   13     Total     3.29511   0.00000      0.000  -0.000   0.000

----------------------------------------------------------------
Total              28.79057   0.00000      0.000   0.000   0.000


Species: H                   

Atom      Orb        Charge      Spin       Svec
----------------------------------------------------------------
    3  1 1s         1.04476   0.00000      0.000   0.000  -0.000
    3  2 1s         0.08469   0.00000     -0.000  -0.000   0.000
    3  3 2Ppy       0.03638   0.00000     -0.000  -0.000  -0.000
    3  4 2Ppz       0.01845   0.00000     -0.000   0.000   0.000
    3  5 2Ppx       0.00948   0.00000      0.000   0.000   0.000
    3     Total     1.19375   0.00000      0.000   0.000  -0.000

    6  1 1s         1.06401   0.00000     -0.000   0.000  -0.000
    6  2 1s         0.08314   0.00000      0.000  -0.000  -0.000
    6  3 2Ppy       0.02040   0.00000     -0.000  -0.000   0.000
    6  4 2Ppz       0.02113   0.00000      0.000  -0.000   0.000
    6  5 2Ppx       0.01347   0.00000      0.000  -0.000  -0.000
    6     Total     1.20215   0.00000     -0.000   0.000  -0.000

    7  1 1s         1.05404   0.00000      0.000  -0.000  -0.000
    7  2 1s         0.08362   0.00000     -0.000   0.000  -0.000
    7  3 2Ppy       0.02740   0.00000      0.000   0.000  -0.000
    7  4 2Ppz       0.01778   0.00000     -0.000   0.000  -0.000
    7  5 2Ppx       0.00963   0.00000     -0.000   0.000  -0.000
    7     Total     1.19247   0.00000      0.000  -0.000  -0.000

    8  1 1s         1.06285   0.00000      0.000  -0.000  -0.000
    8  2 1s         0.08269   0.00000     -0.000   0.000   0.000
    8  3 2Ppy       0.01596   0.00000     -0.000   0.000  -0.000
    8  4 2Ppz       0.02473   0.00000     -0.000  -0.000  -0.000
    8  5 2Ppx       0.01433   0.00000     -0.000  -0.000  -0.000
    8     Total     1.20056   0.00000      0.000  -0.000  -0.000

   12  1 1s         0.47092   0.00000      0.000   0.000   0.000
   12  2 1s         0.18997   0.00000     -0.000   0.000  -0.000
   12  3 2Ppy       0.02457   0.00000     -0.000  -0.000  -0.000
   12  4 2Ppz       0.02681   0.00000     -0.000  -0.000  -0.000
   12  5 2Ppx       0.02551   0.00000      0.000  -0.000  -0.000
   12     Total     0.73778   0.00000      0.000   0.000   0.000

   15  1 1s         0.48172   0.00000      0.000   0.000  -0.000
   15  2 1s         0.18954   0.00000      0.000  -0.000   0.000
   15  3 2Ppy       0.02321   0.00000      0.000  -0.000   0.000
   15  4 2Ppz       0.03383   0.00000     -0.000  -0.000  -0.000
   15  5 2Ppx       0.02606   0.00000      0.000  -0.000   0.000
   15     Total     0.75436   0.00000      0.000  -0.000  -0.000

----------------------------------------------------------------
Total              35.07164   0.00000      0.000   0.000   0.000


Species: O                   

Atom      Orb        Charge      Spin       Svec
----------------------------------------------------------------
   10  1 2s         1.73567   0.00000      0.000   0.000   0.000
   10  2 2s         0.07292   0.00000     -0.000  -0.000  -0.000
   10  3 2py        1.42587   0.00000     -0.000  -0.000  -0.000
   10  4 2pz        1.51161   0.00000     -0.000   0.000  -0.000
   10  5 2px        1.63460   0.00000     -0.000  -0.000  -0.000
   10  6 2py        0.04765   0.00000      0.000   0.000   0.000
   10  7 2pz        0.00031   0.00000     -0.000  -0.000   0.000
   10  8 2px        0.00885   0.00000      0.000   0.000   0.000
   10  9 3Pdxy      0.00715   0.00000     -0.000   0.000  -0.000
   10 10 3Pdyz      0.01071   0.00000      0.000  -0.000   0.000
   10 11 3Pdz2      0.00136   0.00000     -0.000  -0.000   0.000
   10 12 3Pdxz     -0.00018   0.00000      0.000   0.000  -0.000
   10 13 3Pdx2-y2   0.00741   0.00000      0.000   0.000  -0.000
   10     Total     6.46391   0.00000     -0.000  -0.000  -0.000

   14  1 2s         1.73065   0.00000     -0.000  -0.000  -0.000
   14  2 2s         0.07603   0.00000      0.000   0.000   0.000
   14  3 2py        1.60447   0.00000     -0.000  -0.000   0.000
   14  4 2pz        1.53174   0.00000     -0.000  -0.000   0.000
   14  5 2px        1.41185   0.00000      0.000  -0.000  -0.000
   14  6 2py        0.02399   0.00000      0.000  -0.000  -0.000
   14  7 2pz        0.00501   0.00000      0.000   0.000  -0.000
   14  8 2px        0.05256   0.00000     -0.000  -0.000   0.000
   14  9 3Pdxy      0.00785   0.00000      0.000   0.000  -0.000
   14 10 3Pdyz     -0.00022   0.00000      0.000   0.000  -0.000
   14 11 3Pdz2      0.00136   0.00000      0.000   0.000  -0.000
   14 12 3Pdxz      0.01117   0.00000     -0.000   0.000   0.000
   14 13 3Pdx2-y2   0.00798   0.00000     -0.000   0.000   0.000
   14     Total     6.46445   0.00000     -0.000  -0.000  -0.000

----------------------------------------------------------------
Total              48.00000   0.00000      0.000  -0.000   0.000


outcoor: Relaxed atomic coordinates (Ang):                  
   -0.72091097    4.52666618    0.00000000   1       1  N
   -2.51564088    4.60051849    0.00000000   2       2  Si
   -2.90040995    6.05473365    0.00000000   3       3  H
   -3.68240572    2.74617003    0.00000000   2       4  Si
   -5.96356556    2.30731156    0.00000000   2       5  Si
   -6.59119571    3.29524031    0.94030528   3       6  H
   -6.06195746    0.89072833    0.51261370   3       7  H
   -6.58851679    2.40458391   -1.36667834   3       8  H
   -2.16978327    1.04694531    0.00000000   2       9  Si
   -2.19885692   -0.53487894    0.00000000   4      10  O
   -0.49294269    1.62638579    0.00000000   1      11  N
    0.17618158    0.80092449    0.00000000   3      12  H
    0.36702009    3.12740005    0.00000000   2      13  Si
    1.93451553    3.11844685    0.00000000   4      14  O
   -0.17692559    5.43415161    0.00000000   3      15  H

siesta: Eigenvalues (eV):
ik =     1
  -22.9253  -22.9253  -22.5042  -22.5042  -21.9001  -21.9001  -21.2387  -21.2387  -15.1825  -15.1825
  -14.2221  -14.2221  -13.6192  -13.6192  -13.2186  -13.2186  -11.9410  -11.9410  -11.4364  -11.4364
  -10.6607  -10.6607   -9.7007   -9.7007   -9.3863   -9.3863   -9.2101   -9.2101   -9.1203   -9.1203
   -8.6099   -8.6099   -8.3574   -8.3574   -8.0774   -8.0774   -7.8494   -7.8494   -7.2930   -7.2930
   -6.8215   -6.8215   -6.6299   -6.6299   -6.3254   -6.3254   -5.8341   -5.8341   -3.6051   -3.6051
   -2.7146   -2.7146   -2.3472   -2.3472   -2.0947   -2.0947   -1.8506   -1.8506   -1.5124   -1.5124
   -1.0206   -1.0206   -0.2112   -0.2112   -0.0602   -0.0602    0.0675    0.0675    0.3957    0.3957
    0.5123    0.5123    0.8208    0.8208    1.2018    1.2018    1.4407    1.4407    1.6238    1.6238
    2.1643    2.1643    2.7398    2.7398    2.9154    2.9154    3.0955    3.0955    3.2896    3.2896
    3.6421    3.6421    4.0386    4.0386    4.4598    4.4598    4.5774    4.5774    4.7293    4.7293
    5.0726    5.0726    5.5517    5.5517    5.6714    5.6714    6.0930    6.0930    6.4736    6.4736
    6.6107    6.6107    6.8666    6.8666    7.1072    7.1072    7.8131    7.8131    7.9429    7.9429
    8.3839    8.3839    8.5871    8.5871    8.6041    8.6041    9.7822    9.7822    9.9984    9.9984
   10.0694   10.0694   10.1298   10.1298   10.7553   10.7553   11.2416   11.2416   11.5063   11.5063
   11.8928   11.8928   11.9959   11.9959   12.3901   12.3901   12.7587   12.7587   13.0055   13.0055
   13.3480   13.3480   13.5439   13.5439   13.6793   13.6793   14.4422   14.4422   14.9086   14.9086
   15.7079   15.7079   16.2233   16.2233   16.5239   16.5239   17.0357   17.0357   17.3562   17.3562
   18.1792   18.1792   18.5040   18.5040   19.9133   19.9133   20.0826   20.0826   20.6948   20.6948
   21.0490   21.0490   21.5908   21.5908   22.5521   22.5521   23.0739   23.0739   23.2516   23.2516
   24.3676   24.3676   25.2552   25.2552   26.0546   26.0546   27.1719   27.1719   28.0391   28.0391
   28.2998   28.2998   28.6200   28.6200   29.8560   29.8560   31.4712   31.4712   31.8223   31.8223
   33.4811   33.4811   34.0337   34.0337   34.2266   34.2266   34.4894   34.4894   35.4734   35.4734
   35.8930   35.8930   36.4406   36.4406   37.6134   37.6134   38.8603   38.8603   38.9846   38.9846
   39.9237   39.9237   41.8713   41.8713   42.0539   42.0539   42.9637   42.9637   44.9518   44.9518
   45.9232   45.9232   47.6822   47.6822   48.0302   48.0302   48.6262   48.6262   49.3724   49.3724
   50.0123   50.0123   50.4796   50.4796   50.7010   50.7010   52.3093   52.3093   54.1010   54.1010
   55.0480   55.0480   55.5602   55.5602   56.4558   56.4558   56.5359   56.5359   58.5772   58.5772
   59.0539   59.0539   62.9022   62.9022   66.4828   66.4828   67.2793   67.2793   68.1251   68.1251
   73.6145   73.6145   91.4101   91.4101   92.5445   92.5445   97.5176   97.5176  100.5713  100.5713
  120.4048  120.4048  135.6238  135.6238
siesta: Fermi energy =      -4.449369 eV

siesta: Program's energy decomposition (eV):
siesta: Ebs     =      -564.128395
siesta: Eions   =      1908.291957
siesta: Ena     =       162.573858
siesta: Ekin    =      1443.715760
siesta: Enl     =     -1207.818527
siesta: Eso     =        -0.002425
siesta: Edftu   =         0.000000
siesta: DEna    =         8.023149
siesta: DUscf   =         6.984389
siesta: DUext   =         0.000000
siesta: Exc     =      -544.506543
siesta: eta*DQ  =         0.000000
siesta: Emadel  =         0.000000
siesta: Emeta   =         0.000000
siesta: Emolmec =         0.000000
siesta: Ekinion =         0.000000
siesta: Eharris =     -2039.322296
siesta: Etot    =     -2039.322296
siesta: FreeEng =     -2039.322296

siesta: Final energy (eV):
siesta:  Band Struct. =    -564.128395
siesta:       Kinetic =    1443.715760
siesta:       Hartree =    3131.007941
siesta:       Edftu   =       0.000000
siesta:       Eso     =      -0.002425
siesta:    Ext. field =       0.000000
siesta:   Exch.-corr. =    -544.506543
siesta:  Ion-electron =   -7563.413497
siesta:       Ion-ion =    1493.876468
siesta:       Ekinion =       0.000000
siesta:         Total =   -2039.322296
siesta:         Fermi =      -4.449369

siesta: Atomic forces (eV/Ang):
siesta:      1    0.000052    0.000013    0.008073
siesta:      2   -0.000072   -0.000010   -0.039589
siesta:      3   -0.000010   -0.000016    0.008275
siesta:      4    0.000004   -0.000039   -0.041935
siesta:      5    0.000014    0.000024    0.025014
siesta:      6   -0.000003    0.000011    0.000020
siesta:      7    0.000011   -0.000002    0.000006
siesta:      8   -0.000040    0.000081   -0.000034
siesta:      9    0.000065   -0.000032   -0.026745
siesta:     10    0.000010    0.000024    0.003178
siesta:     11   -0.000029    0.000032    0.006763
siesta:     12   -0.000019    0.000023    0.002767
siesta:     13    0.000037    0.000004   -0.000785
siesta:     14   -0.000002   -0.000038   -0.001147
siesta:     15    0.000043    0.000036    0.008118
siesta: ----------------------------------------
siesta:    Tot    0.000060    0.000111   -0.048019

siesta: Stress tensor (static) (eV/Ang**3):
siesta:    -0.002050   -0.000648    0.000074
siesta:    -0.000648   -0.001283   -0.000002
siesta:     0.000074   -0.000002   -0.000292

siesta: Cell volume =       2461.748715 Ang**3

siesta: Pressure (static):
siesta:                Solid            Molecule  Units
siesta:           0.00001316          0.00001316  Ry/Bohr**3
siesta:           0.00120808          0.00120801  eV/Ang**3
siesta:           1.93557936          1.93546292  kBar
(Free)E+ p_basis*V_orbitals  =       -2028.876081
(Free)Eharris+ p_basis*V_orbitals  =       -2028.876081
     spin moment: S , {S} =    0.00000   0.00000  -0.00000   0.00000

siesta: Electric dipole (a.u.)  =   -1.934659    2.394243   -0.013717
siesta: Electric dipole (Debye) =   -4.917416    6.085564   -0.034864

cite: Please see "Thymine.bib" for an exhaustive BiBTeX file.
cite: Please clearly indicate Siesta version in published work: v4.1.5-1-g384057250
cite: This calculation has made use of the following articles
cite: which are encouraged to be cited in a published work.
        Primary SIESTA paper
          DOI: www.doi.org/10.1088/0953-8984/14/11/302
        Spin-orbit coupling (on-site approximation)
          DOI: www.doi.org/10.1088/0953-8984/19/19/489001


WARNING: alloc-realloc-dealloc name mismatch
         Name: atomlist isa
         Size:               -60. Bytes
         Node:     0
         Subsequent mismatches will not be reported
>> End of run:  16-MAY-2023   1:22:32
Job completed
