Siesta Version  : v4.1.5-1-g384057250
Architecture    : gcc
Compiler version: GNU Fortran (Debian 10.2.1-6) 10.2.1 20210110
Compiler flags  : mpifort -O2 -fPIC -ftree-vectorize -fallow-argument-mismatch
PP flags        : -DFC_HAVE_ABORT -DMPI -DSIESTA__FLOOK -DSIESTA__METIS -DSIESTA__MUMPS -DCDF -DNCDF -DNCDF_4 -DNCDF_PARALLEL -DSIESTA__MRRR -DSIESTA__ELPA
Libraries       : libncdf.a libfdict.a  -lflookall -ldl -lnetcdff -lnetcdf -lhdf5_hl -lhdf5 -lhdf5_fortran -lz -lscalapack-openmpi -lopenblas -lmetis -lzmumps -lcmumps -ldmumps -lmumps_common -lpord -lsmumps -lesmumps -lscotch -lscotcherr -fopenmp -lelpa
PARALLEL version
NetCDF support
NetCDF-4 support
NetCDF-4 MPI-IO support
METIS ordering support
Lua support

* Running on 6 nodes in parallel
>> Start of run:   1-JUN-2023   5:19:15

                           ***********************       
                           *  WELCOME TO SIESTA  *       
                           ***********************       

reinit: Reading from standard input
reinit: Dumped input in INPUT_TMP.75024
************************** Dump of input data file ****************************
# mpirun -np 4 siesta-4.1.5 < Thymine.fdf > Thymine.out
SystemLabel      Thymine
NumberOfAtoms    15
NumberOfSpecies  4
%block ChemicalSpeciesLabel
    1    7  N
    2   14  Si
    3    1  H
    4    8  O
%endblock ChemicalSpeciesLabel
###################################
# This overrides Defaults.fdf conf
###################################
MD.TypeOfRun                CG # CG, Verlet
AtomicCoordinatesFormat NotScaledCartesianAng
%block AtomicCoordinatesAndAtomicSpecies
   -0.72091097    4.52666618    0.00000000   1       1  N
   -2.51564088    4.60051849    0.00000000   2       2  Si
   -2.90040995    6.05473365    0.00000000   3       3  H
   -3.68240572    2.74617003    0.00000000   2       4  Si
   -5.96356556    2.30731156    0.00000000   2       5  Si
   -6.59119571    3.29524031    0.94030528   3       6  H
   -6.06195746    0.89072833    0.51261370   3       7  H
   -6.58851679    2.40458391   -1.36667834   3       8  H
   -2.16978327    1.04694531    0.00000000   2       9  Si
   -2.19885692   -0.53487894    0.00000000   4      10  O
   -0.49294269    1.62638579    0.00000000   1      11  N
    0.17618158    0.80092449    0.00000000   3      12  H
    0.36702009    3.12740005    0.00000000   2      13  Si
    1.93451553    3.11844685    0.00000000   4      14  O
   -0.17692559    5.43415161    0.00000000   3      15  H
%endblock AtomicCoordinatesAndAtomicSpecies
%block Geometry.Constraints
    atom all 0.0 0.0 1.0 # constrain along z Cartesian vector
    clear-prev [6 -- 8]
%endblock
%include ../../Defaults.fdf
************************** End of input data file *****************************

reinit: -----------------------------------------------------------------------
reinit: System Name: 
reinit: -----------------------------------------------------------------------
reinit: System Label: Thymine
reinit: -----------------------------------------------------------------------

initatom: Reading input for the pseudopotentials and atomic orbitals ----------
Species number:   1 Atomic number:    7 Label: N
Species number:   2 Atomic number:   14 Label: Si
Species number:   3 Atomic number:    1 Label: H
Species number:   4 Atomic number:    8 Label: O

Ground state valence configuration:   2s02  2p03
Reading pseudopotential information in formatted form from N.psf

Pseudopotential generated from a relativistic atomic calculation

Valence configuration for pseudopotential generation:
2s( 2.00) rc: 0.94
2p( 3.00) rc: 0.59
3d( 0.00) rc: 3.46
4f( 0.00) rc: 2.47
Ground state valence configuration:   3s02  3p02
Reading pseudopotential information in formatted form from Si.psf

Pseudopotential generated from a relativistic atomic calculation

Valence configuration for pseudopotential generation:
3s( 2.00) rc: 1.67
3p( 2.00) rc: 2.04
3d( 0.00) rc: 2.89
4f( 0.00) rc: 2.49
Ground state valence configuration:   1s01
Reading pseudopotential information in formatted form from H.psf

Pseudopotential generated from a relativistic atomic calculation

Valence configuration for pseudopotential generation:
1s( 1.00) rc: 0.01
2p( 0.00) rc: 0.60
3d( 0.00) rc: 1.99
4f( 0.00) rc: 2.49
Ground state valence configuration:   2s02  2p04
Reading pseudopotential information in formatted form from O.psf

Pseudopotential generated from a relativistic atomic calculation

Valence configuration for pseudopotential generation:
2s( 2.00) rc: 0.45
2p( 4.00) rc: 0.92
3d( 0.00) rc: 2.24
4f( 0.00) rc: 0.25
For N, standard SIESTA heuristics set lmxkb to 3
 (one more than the basis l, including polarization orbitals).
Use PS.lmax or PS.KBprojectors blocks to override.
For Si, standard SIESTA heuristics set lmxkb to 3
 (one more than the basis l, including polarization orbitals).
Use PS.lmax or PS.KBprojectors blocks to override.
For H, standard SIESTA heuristics set lmxkb to 2
 (one more than the basis l, including polarization orbitals).
Use PS.lmax or PS.KBprojectors blocks to override.
For O, standard SIESTA heuristics set lmxkb to 3
 (one more than the basis l, including polarization orbitals).
Use PS.lmax or PS.KBprojectors blocks to override.

<basis_specs>
===============================================================================
N                    Z=   7    Mass=  14.010        Charge= 0.17977+309
Lmxo=1 Lmxkb= 3    BasisType=split      Semic=F
L=0  Nsemic=0  Cnfigmx=2
          i=1  nzeta=2  polorb=0  (2s)
            splnorm:   0.28000    
               vcte:    0.0000    
               rinn:    0.0000    
               qcoe:    0.0000    
               qyuk:    0.0000    
               qwid:   0.10000E-01
                rcs:    0.0000      0.0000    
            lambdas:    1.0000      1.0000    
L=1  Nsemic=0  Cnfigmx=2
          i=1  nzeta=2  polorb=1  (2p)
            splnorm:   0.28000    
               vcte:    0.0000    
               rinn:    0.0000    
               qcoe:    0.0000    
               qyuk:    0.0000    
               qwid:   0.10000E-01
                rcs:    0.0000      0.0000    
            lambdas:    1.0000      1.0000    
-------------------------------------------------------------------------------
L=0  Nkbl=1  erefs: 0.17977+309
L=1  Nkbl=1  erefs: 0.17977+309
L=2  Nkbl=1  erefs: 0.17977+309
L=3  Nkbl=1  erefs: 0.17977+309
===============================================================================
</basis_specs>

atom: Called for N                     (Z =   7)

read_vps: Pseudopotential generation method:
read_vps: ATM4.2.7  Troullier-Martins                       
Valence charge for ps generation:    5.00000

xc_check: Exchange-correlation functional:
xc_check: GGA Perdew, Burke & Ernzerhof 1996
V l=0 = -2*Zval/r beyond r=  1.2889
V l=1 = -2*Zval/r beyond r=  1.2889
V l=2 = -2*Zval/r beyond r=  3.4178
V l=3 = -2*Zval/r beyond r=  2.4084
All V_l potentials equal beyond r=  3.3753
This should be close to max(r_c) in ps generation
All pots = -2*Zval/r beyond r=  3.4178

VLOCAL1: 99.0% of the norm of Vloc inside      3.810 Ry
VLOCAL1: 99.9% of the norm of Vloc inside      8.683 Ry
atom: Maximum radius for 4*pi*r*r*local-pseudopot. charge    4.02088
atom: Maximum radius for r*vlocal+2*Zval:    3.54838
GHOST: No ghost state for L =  0
GHOST: No ghost state for L =  1
GHOST: No ghost state for L =  2
GHOST: No ghost state for L =  3

KBgen: Kleinman-Bylander projectors: 
   l= 0   rc=  3.417763   el= -1.365098   Ekb= -4.433130   kbcos= -0.707855
   l= 1   rc=  3.375302   el= -0.521201   Ekb=-13.264039   kbcos= -0.535594
   l= 2   rc=  3.872880   el=  0.001991   Ekb= -0.641094   kbcos= -0.062456
   l= 3   rc=  3.970931   el=  0.003093   Ekb= -0.474517   kbcos= -0.018236

KBgen: Total number of Kleinman-Bylander projectors:   16
atom: -------------------------------------------------------------------------

atom: SANKEY-TYPE ORBITALS:
atom: Selected multiple-zeta basis: split     

SPLIT: Orbitals with angular momentum L= 0

SPLIT: Basis orbitals for state 2s

SPLIT: PAO cut-off radius determined from an
SPLIT: energy shift=  0.002000 Ry

   izeta = 1
                 lambda =    1.000000
                     rc =    4.730425
                 energy =   -1.363399
                kinetic =    1.245246
    potential(screened) =   -2.608645
       potential(ionic) =   -8.121105

   izeta = 2
                 rmatch =    2.531849
              splitnorm =    0.280000
                 energy =   -0.959908
                kinetic =    2.409435
    potential(screened) =   -3.369343
       potential(ionic) =   -9.427975

SPLIT: Orbitals with angular momentum L= 1

SPLIT: Basis orbitals for state 2p

SPLIT: PAO cut-off radius determined from an
SPLIT: energy shift=  0.002000 Ry

   izeta = 1
                 lambda =    1.000000
                     rc =    5.924108
                 energy =   -0.519262
                kinetic =    3.672940
    potential(screened) =   -4.192202
       potential(ionic) =   -9.518354

   izeta = 2
                 rmatch =    2.531849
              splitnorm =    0.280000
                 energy =   -0.104258
                kinetic =    6.807538
    potential(screened) =   -6.911796
       potential(ionic) =  -13.149920

POLgen: Perturbative polarization orbital with L=  2

POLgen: Polarization orbital for state 2p

   izeta = 1
                     rc =    5.924108
                 energy =    1.427508
                kinetic =    2.872379
    potential(screened) =   -1.444871
       potential(ionic) =   -5.563644
atom: Total number of Sankey-type orbitals: 13

atm_pop: Valence configuration (for local Pseudopot. screening):
 2s( 2.00)                                                            
 2p( 3.00)                                                            
Vna: chval, zval:    5.00000   5.00000

Vna:  Cut-off radius for the neutral-atom potential:   5.924108

atom: _________________________________________________________________________

<basis_specs>
===============================================================================
Si                   Z=  14    Mass=  28.090        Charge= 0.17977+309
Lmxo=1 Lmxkb= 3    BasisType=split      Semic=F
L=0  Nsemic=0  Cnfigmx=3
          i=1  nzeta=2  polorb=0  (3s)
            splnorm:   0.28000    
               vcte:    0.0000    
               rinn:    0.0000    
               qcoe:    0.0000    
               qyuk:    0.0000    
               qwid:   0.10000E-01
                rcs:    0.0000      0.0000    
            lambdas:    1.0000      1.0000    
L=1  Nsemic=0  Cnfigmx=3
          i=1  nzeta=2  polorb=1  (3p)
            splnorm:   0.28000    
               vcte:    0.0000    
               rinn:    0.0000    
               qcoe:    0.0000    
               qyuk:    0.0000    
               qwid:   0.10000E-01
                rcs:    0.0000      0.0000    
            lambdas:    1.0000      1.0000    
-------------------------------------------------------------------------------
L=0  Nkbl=1  erefs: 0.17977+309
L=1  Nkbl=1  erefs: 0.17977+309
L=2  Nkbl=1  erefs: 0.17977+309
L=3  Nkbl=1  erefs: 0.17977+309
===============================================================================
</basis_specs>

atom: Called for Si                    (Z =  14)

read_vps: Pseudopotential generation method:
read_vps: ATM4.2.7  Troullier-Martins                       
Valence charge for ps generation:    4.00000

xc_check: Exchange-correlation functional:
xc_check: GGA Perdew, Burke & Ernzerhof 1996
V l=0 = -2*Zval/r beyond r=  2.7826
V l=1 = -2*Zval/r beyond r=  2.7826
V l=2 = -2*Zval/r beyond r=  2.9253
V l=3 = -2*Zval/r beyond r=  2.7826
All V_l potentials equal beyond r=  2.8530
This should be close to max(r_c) in ps generation
All pots = -2*Zval/r beyond r=  2.9253

VLOCAL1: 99.0% of the norm of Vloc inside      5.333 Ry
VLOCAL1: 99.9% of the norm of Vloc inside     12.154 Ry
atom: Maximum radius for 4*pi*r*r*local-pseudopot. charge    3.39869
atom: Maximum radius for r*vlocal+2*Zval:    2.96205
GHOST: No ghost state for L =  0
GHOST: No ghost state for L =  1
GHOST: No ghost state for L =  2
GHOST: No ghost state for L =  3

KBgen: Kleinman-Bylander projectors: 
   l= 0   rc=  3.075247   el= -0.794092   Ekb=  5.879390   kbcos=  0.167461
   l= 1   rc=  3.153101   el= -0.300068   Ekb=  2.642817   kbcos=  0.058301
   l= 2   rc=  3.273594   el=  0.001958   Ekb= -1.185135   kbcos= -0.104411
   l= 3   rc=  3.232927   el=  0.003046   Ekb= -0.497174   kbcos= -0.015889

KBgen: Total number of Kleinman-Bylander projectors:   16
atom: -------------------------------------------------------------------------

atom: SANKEY-TYPE ORBITALS:
atom: Selected multiple-zeta basis: split     

SPLIT: Orbitals with angular momentum L= 0

SPLIT: Basis orbitals for state 3s

SPLIT: PAO cut-off radius determined from an
SPLIT: energy shift=  0.002000 Ry

   izeta = 1
                 lambda =    1.000000
                     rc =    6.429618
                 energy =   -0.792283
                kinetic =    0.525293
    potential(screened) =   -1.317576
       potential(ionic) =   -3.744923

   izeta = 2
                 rmatch =    3.998416
              splitnorm =    0.280000
                 energy =   -0.583081
                kinetic =    1.069570
    potential(screened) =   -1.652651
       potential(ionic) =   -4.235185

SPLIT: Orbitals with angular momentum L= 1

SPLIT: Basis orbitals for state 3p

SPLIT: PAO cut-off radius determined from an
SPLIT: energy shift=  0.002000 Ry

   izeta = 1
                 lambda =    1.000000
                     rc =    8.464845
                 energy =   -0.298236
                kinetic =    0.785360
    potential(screened) =   -1.083596
       potential(ionic) =   -3.273779

   izeta = 2
                 rmatch =    4.587816
              splitnorm =    0.280000
                 energy =   -0.131871
                kinetic =    1.403687
    potential(screened) =   -1.535557
       potential(ionic) =   -4.015310

POLgen: Perturbative polarization orbital with L=  2

POLgen: Polarization orbital for state 3p

   izeta = 1
                     rc =    8.464845
                 energy =    0.321949
                kinetic =    1.055677
    potential(screened) =   -0.733728
       potential(ionic) =   -2.672950
atom: Total number of Sankey-type orbitals: 13

atm_pop: Valence configuration (for local Pseudopot. screening):
 3s( 2.00)                                                            
 3p( 2.00)                                                            
Vna: chval, zval:    4.00000   4.00000

Vna:  Cut-off radius for the neutral-atom potential:   8.464845

atom: _________________________________________________________________________

<basis_specs>
===============================================================================
H                    Z=   1    Mass=  1.0100        Charge= 0.17977+309
Lmxo=0 Lmxkb= 2    BasisType=split      Semic=F
L=0  Nsemic=0  Cnfigmx=1
          i=1  nzeta=2  polorb=1  (1s)
            splnorm:   0.62000    
               vcte:    0.0000    
               rinn:    0.0000    
               qcoe:    0.0000    
               qyuk:    0.0000    
               qwid:   0.10000E-01
                rcs:    0.0000      0.0000    
            lambdas:    1.0000      1.0000    
-------------------------------------------------------------------------------
L=0  Nkbl=1  erefs: 0.17977+309
L=1  Nkbl=1  erefs: 0.17977+309
L=2  Nkbl=1  erefs: 0.17977+309
===============================================================================
</basis_specs>

atom: Called for H                     (Z =   1)

read_vps: Pseudopotential generation method:
read_vps: ATM4.2.7  Troullier-Martins                       
Valence charge for ps generation:    1.00000

xc_check: Exchange-correlation functional:
xc_check: GGA Perdew, Burke & Ernzerhof 1996
V l=0 = -2*Zval/r beyond r=  0.0098
V l=1 = -2*Zval/r beyond r=  0.5817
V l=2 = -2*Zval/r beyond r=  1.9372
All V_l potentials equal beyond r=  1.9372
This should be close to max(r_c) in ps generation
All pots = -2*Zval/r beyond r=  1.9372

VLOCAL1: 99.0% of the norm of Vloc inside     11.567 Ry
VLOCAL1: 99.9% of the norm of Vloc inside     26.362 Ry
atom: Maximum radius for 4*pi*r*r*local-pseudopot. charge    2.25106
atom: Maximum radius for r*vlocal+2*Zval:    1.91306
GHOST: No ghost state for L =  0
GHOST: No ghost state for L =  1
GHOST: No ghost state for L =  2

KBgen: Kleinman-Bylander projectors: 
   l= 0   rc=  2.036604   el= -0.477180   Ekb= -6.081590   kbcos= -0.277285
   l= 1   rc=  2.195416   el=  0.001076   Ekb= -0.926943   kbcos= -0.034643
   l= 2   rc=  2.251056   el=  0.002010   Ekb= -0.130941   kbcos= -0.009788

KBgen: Total number of Kleinman-Bylander projectors:    9
atom: -------------------------------------------------------------------------

atom: SANKEY-TYPE ORBITALS:
atom: Selected multiple-zeta basis: split     

SPLIT: Orbitals with angular momentum L= 0

SPLIT: Basis orbitals for state 1s

SPLIT: PAO cut-off radius determined from an
SPLIT: energy shift=  0.002000 Ry

   izeta = 1
                 lambda =    1.000000
                     rc =    6.518340
                 energy =   -0.475305
                kinetic =    0.912139
    potential(screened) =   -1.387444
       potential(ionic) =   -1.907295

   izeta = 2
                 rmatch =    2.141150
              splitnorm =    0.620000
                 energy =    0.566467
                kinetic =    3.772856
    potential(screened) =   -3.206389
       potential(ionic) =   -3.759093

POLgen: Perturbative polarization orbital with L=  1

POLgen: Polarization orbital for state 1s

   izeta = 1
                     rc =    6.518340
                 energy =    0.533861
                kinetic =    1.121086
    potential(screened) =   -0.587225
       potential(ionic) =   -1.053027
atom: Total number of Sankey-type orbitals:  5

atm_pop: Valence configuration (for local Pseudopot. screening):
 1s( 1.00)                                                            
Vna: chval, zval:    1.00000   1.00000

Vna:  Cut-off radius for the neutral-atom potential:   6.518340

atom: _________________________________________________________________________

<basis_specs>
===============================================================================
O                    Z=   8    Mass=  16.000        Charge= 0.17977+309
Lmxo=1 Lmxkb= 3    BasisType=split      Semic=F
L=0  Nsemic=0  Cnfigmx=2
          i=1  nzeta=2  polorb=0  (2s)
            splnorm:   0.28000    
               vcte:    0.0000    
               rinn:    0.0000    
               qcoe:    0.0000    
               qyuk:    0.0000    
               qwid:   0.10000E-01
                rcs:    0.0000      0.0000    
            lambdas:    1.0000      1.0000    
L=1  Nsemic=0  Cnfigmx=2
          i=1  nzeta=2  polorb=1  (2p)
            splnorm:   0.28000    
               vcte:    0.0000    
               rinn:    0.0000    
               qcoe:    0.0000    
               qyuk:    0.0000    
               qwid:   0.10000E-01
                rcs:    0.0000      0.0000    
            lambdas:    1.0000      1.0000    
-------------------------------------------------------------------------------
L=0  Nkbl=1  erefs: 0.17977+309
L=1  Nkbl=1  erefs: 0.17977+309
L=2  Nkbl=1  erefs: 0.17977+309
L=3  Nkbl=1  erefs: 0.17977+309
===============================================================================
</basis_specs>

atom: Called for O                     (Z =   8)

read_vps: Pseudopotential generation method:
read_vps: ATM4.2.7  Troullier-Martins                       
Valence charge for ps generation:    6.00000

xc_check: Exchange-correlation functional:
xc_check: GGA Perdew, Burke & Ernzerhof 1996
V l=0 = -2*Zval/r beyond r=  1.1000
V l=1 = -2*Zval/r beyond r=  1.1000
V l=2 = -2*Zval/r beyond r=  2.2154
V l=3 = -2*Zval/r beyond r=  1.1000
All V_l potentials equal beyond r=  2.2154
This should be close to max(r_c) in ps generation
All pots = -2*Zval/r beyond r=  2.2154

VLOCAL1: 99.0% of the norm of Vloc inside      8.845 Ry
VLOCAL1: 99.9% of the norm of Vloc inside     20.157 Ry
atom: Maximum radius for 4*pi*r*r*local-pseudopot. charge    2.67231
atom: Maximum radius for r*vlocal+2*Zval:    2.32897
GHOST: No ghost state for L =  0
GHOST: No ghost state for L =  1
GHOST: No ghost state for L =  2
GHOST: No ghost state for L =  3

KBgen: Kleinman-Bylander projectors: 
   l= 0   rc=  2.243238   el= -1.759686   Ekb=**********   kbcos= -0.171774
   l= 1   rc=  2.328968   el= -0.663873   Ekb=-14.506792   kbcos= -0.519897
   l= 2   rc=  2.573941   el=  0.002031   Ekb= -1.137373   kbcos= -0.019581
   l= 3   rc=  2.606321   el=  0.003153   Ekb= -1.013546   kbcos= -0.003122

KBgen: Total number of Kleinman-Bylander projectors:   16
atom: -------------------------------------------------------------------------

atom: SANKEY-TYPE ORBITALS:
atom: Selected multiple-zeta basis: split     

SPLIT: Orbitals with angular momentum L= 0

SPLIT: Basis orbitals for state 2s

SPLIT: PAO cut-off radius determined from an
SPLIT: energy shift=  0.002000 Ry

   izeta = 1
                 lambda =    1.000000
                     rc =    4.243912
                 energy =   -1.758270
                kinetic =    3.286084
    potential(screened) =   -5.044353
       potential(ionic) =  -12.921184

   izeta = 2
                 rmatch =    2.187845
              splitnorm =    0.280000
                 energy =   -0.885018
                kinetic =    8.134434
    potential(screened) =   -9.019452
       potential(ionic) =  -17.710645

SPLIT: Orbitals with angular momentum L= 1

SPLIT: Basis orbitals for state 2p

SPLIT: PAO cut-off radius determined from an
SPLIT: energy shift=  0.002000 Ry

   izeta = 1
                 lambda =    1.000000
                     rc =    5.314825
                 energy =   -0.661986
                kinetic =    4.917472
    potential(screened) =   -5.579458
       potential(ionic) =  -13.236259

   izeta = 2
                 rmatch =    2.160663
              splitnorm =    0.280000
                 energy =   -0.068760
                kinetic =    9.183374
    potential(screened) =   -9.252135
       potential(ionic) =  -18.274251

POLgen: Perturbative polarization orbital with L=  2

POLgen: Polarization orbital for state 2p

   izeta = 1
                     rc =    5.314825
                 energy =    1.970580
                kinetic =    3.886128
    potential(screened) =   -1.915547
       potential(ionic) =   -7.749584
atom: Total number of Sankey-type orbitals: 13

atm_pop: Valence configuration (for local Pseudopot. screening):
 2s( 2.00)                                                            
 2p( 4.00)                                                            
Vna: chval, zval:    6.00000   6.00000

Vna:  Cut-off radius for the neutral-atom potential:   5.314825

atom: _________________________________________________________________________

prinput: Basis input ----------------------------------------------------------

PAO.BasisType split     

%block ChemicalSpeciesLabel
    1    7 N                       # Species index, atomic number, species label
    2   14 Si                      # Species index, atomic number, species label
    3    1 H                       # Species index, atomic number, species label
    4    8 O                       # Species index, atomic number, species label
%endblock ChemicalSpeciesLabel

%block PAO.Basis                 # Define Basis set
N                     2                    # Species label, number of l-shells
 n=2   0   2                         # n, l, Nzeta 
   4.730      2.532   
   1.000      1.000   
 n=2   1   2 P   1                   # n, l, Nzeta, Polarization, NzetaPol
   5.924      2.532   
   1.000      1.000   
Si                    2                    # Species label, number of l-shells
 n=3   0   2                         # n, l, Nzeta 
   6.430      3.998   
   1.000      1.000   
 n=3   1   2 P   1                   # n, l, Nzeta, Polarization, NzetaPol
   8.465      4.588   
   1.000      1.000   
H                     1                    # Species label, number of l-shells
 n=1   0   2 P   1                   # n, l, Nzeta, Polarization, NzetaPol
   6.518      2.141   
   1.000      1.000   
O                     2                    # Species label, number of l-shells
 n=2   0   2                         # n, l, Nzeta 
   4.244      2.188   
   1.000      1.000   
 n=2   1   2 P   1                   # n, l, Nzeta, Polarization, NzetaPol
   5.315      2.161   
   1.000      1.000   
%endblock PAO.Basis

prinput: ----------------------------------------------------------------------

Dumping basis to NetCDF file N.ion.nc
Dumping basis to NetCDF file Si.ion.nc
Dumping basis to NetCDF file H.ion.nc
Dumping basis to NetCDF file O.ion.nc
coor:   Atomic-coordinates input format  =     Cartesian coordinates
coor:                                          (in Angstroms)

siesta: Atomic coordinates (Bohr) and species
siesta:     -1.36232   8.55416   0.00000  1        1
siesta:     -4.75387   8.69372   0.00000  2        2
siesta:     -5.48098  11.44179   0.00000  3        3
siesta:     -6.95874   5.18951   0.00000  2        4
siesta:    -11.26951   4.36019   0.00000  2        5
siesta:    -12.45556   6.22710   1.77692  3        6
siesta:    -11.45544   1.68323   0.96870  3        7
siesta:    -12.45050   4.54401  -2.58265  3        8
siesta:     -4.10030   1.97844   0.00000  2        9
siesta:     -4.15524  -1.01078   0.00000  4       10
siesta:     -0.93153   3.07342   0.00000  1       11
siesta:      0.33294   1.51353   0.00000  3       12
siesta:      0.69357   5.90993   0.00000  2       13
siesta:      3.65571   5.89301   0.00000  4       14
siesta:     -0.33434  10.26906   0.00000  3       15

siesta: Automatic unit cell vectors (Ang):
siesta:   16.818328    0.000000    0.000000
siesta:    0.000000   14.230200    0.000000
siesta:    0.000000    0.000000   10.224979

siesta: System type = molecule  

initatomlists: Number of atoms, orbitals, and projectors:     15   147   198

siesta: ******************** Simulation parameters ****************************
siesta:
siesta: The following are some of the parameters of the simulation.
siesta: A complete list of the parameters used, including default values,
siesta: can be found in file out.fdf
siesta:
redata: Spin configuration                          = spin-orbit
redata: Number of spin components                   = 8
redata: Time-Reversal Symmetry                      = F
redata: Spin spiral                                 = F
############################################################
This spin-orbit implementation uses a local approximation.
From 4.2 and onwards the full non-local approximation is implemented
You are strongly advised to use >=4.2 versions!
############################################################
redata: Long output                                 =   F
redata: Number of Atomic Species                    =        4
redata: Charge density info will appear in .RHO file
redata: Write Mulliken Pop.                         = Atomic and Orbital charges
redata: Matel table size (NRTAB)                    =     1024
redata: Mesh Cutoff                                 =   340.0000 Ry
redata: Net charge of the system                    =     0.0000 |e|
redata: Min. number of SCF Iter                     =        1
redata: Max. number of SCF Iter                     =      200
redata: SCF convergence failure will abort job
redata: SCF mix quantity                            = Hamiltonian
redata: Mix DM or H after convergence               =   F
redata: Recompute H after scf cycle                 =   F
redata: Mix DM in first SCF step                    =   T
redata: Write Pulay info on disk                    =   F
redata: New DM Occupancy tolerance                  = 0.000000000001
redata: No kicks to SCF
redata: DM Mixing Weight for Kicks                  =     0.5000
redata: Require Harris convergence for SCF          =   F
redata: Harris energy tolerance for SCF             =     0.000100 eV
redata: Require DM convergence for SCF              =   T
redata: DM tolerance for SCF                        =     0.000008
redata: Require EDM convergence for SCF             =   F
redata: EDM tolerance for SCF                       =     0.001000 eV
redata: Require H convergence for SCF               =   T
redata: Hamiltonian tolerance for SCF               =     0.000001 eV
redata: Require (free) Energy convergence for SCF   =   F
redata: (free) Energy tolerance for SCF             =     0.000100 eV
redata: Using Saved Data (generic)                  =   F
redata: Use continuation files for DM               =   F
redata: Neglect nonoverlap interactions             =   F
redata: Method of Calculation                       = Diagonalization
redata: Electronic Temperature                      =   299.9978 K
redata: Fix the spin of the system                  =   F
redata: Dynamics option                             = CG coord. optimization
redata: Variable cell                               =   F
redata: Use continuation files for CG               =   F
redata: Max atomic displ per move                   =     0.3000 Ang
redata: Maximum number of optimization moves        =      185
redata: Force tolerance                             =     0.0050 eV/Ang
mix.SCF: Pulay mixing                            = Pulay
mix.SCF:    Variant                              = stable
mix.SCF:    History steps                        = 6
mix.SCF:    Linear mixing weight                 =     0.250000
mix.SCF:    Mixing weight                        =     0.250000
mix.SCF:    SVD condition                        = 0.1000E-07
mix.SCF:    Restart steps                        = 24
mix.SCF:    Restart save steps                   = 3
mix.SCF: Spin-component mixing                   all
redata: Save all siesta data in one NC              =   F
redata: ***********************************************************************

%block SCF.Mixers
  Pulay
%endblock SCF.Mixers

%block SCF.Mixer.Pulay
  # Mixing method
  method pulay
  variant stable

  # Mixing options
  weight 0.2500
  weight.linear 0.2500
  history 6
  restart 24
  restart.save 3
%endblock SCF.Mixer.Pulay

DM_history_depth set to one: no extrapolation allowed by default for geometry relaxation
Size of DM history Fstack: 1
Total number of electrons:    48.000000
Total ionic charge:    48.000000

* ProcessorY, Blocksize:    2  24


* Orbital distribution balance (max,min):    27    24


Time-reversal symmetry not used.

siesta: k-grid: Number of k-points =     1
siesta: k-grid: Cutoff (effective) =     5.112 Ang
siesta: k-grid: Supercell and displacements
siesta: k-grid:    1   0   0      0.000
siesta: k-grid:    0   1   0      0.000
siesta: k-grid:    0   0   1      0.000

diag: Algorithm                                     = ELPA-1stage
diag: Parallel over k                               =   F
diag: Use parallel 2D distribution                  =   T
diag: Parallel block-size                           = 24
diag: Parallel distribution                         =     2 x     3
diag: Used triangular part                          = Lower
diag: Absolute tolerance                            =  0.100E-15
diag: Orthogonalization factor                      =  0.100E-05
diag: Memory factor                                 =  1.0000

siesta: Constraint v=[  0.00000,  0.00000,  1.00000] (12): pos-dir
  [ 1 -- 5, 9 -- 15 ]


ts: **************************************************************
ts: Save H and S matrices                           =    F
ts: Save DM and EDM matrices                        =    F
ts: Only save the overlap matrix S                  =    F
ts: **************************************************************

************************ Begin: TS CHECKS AND WARNINGS ************************
************************ End: TS CHECKS AND WARNINGS **************************


                     ====================================
                        Begin CG opt. move =      0
                     ====================================

outcoor: Atomic coordinates (Ang):                          
   -0.72091097    4.52666618    0.00000000   1       1  N
   -2.51564088    4.60051849    0.00000000   2       2  Si
   -2.90040995    6.05473365    0.00000000   3       3  H
   -3.68240572    2.74617003    0.00000000   2       4  Si
   -5.96356556    2.30731156    0.00000000   2       5  Si
   -6.59119571    3.29524031    0.94030528   3       6  H
   -6.06195746    0.89072833    0.51261370   3       7  H
   -6.58851679    2.40458391   -1.36667834   3       8  H
   -2.16978327    1.04694531    0.00000000   2       9  Si
   -2.19885692   -0.53487894    0.00000000   4      10  O
   -0.49294269    1.62638579    0.00000000   1      11  N
    0.17618158    0.80092449    0.00000000   3      12  H
    0.36702009    3.12740005    0.00000000   2      13  Si
    1.93451553    3.11844685    0.00000000   4      14  O
   -0.17692559    5.43415161    0.00000000   3      15  H

outcell: Unit cell vectors (Ang):
       16.818328    0.000000    0.000000
        0.000000   14.230200    0.000000
        0.000000    0.000000   10.224979

outcell: Cell vector modules (Ang)   :   16.818328   14.230200   10.224979
outcell: Cell angles (23,13,12) (deg):     90.0000     90.0000     90.0000
outcell: Cell volume (Ang**3)        :   2447.1255
<dSpData1D:S at geom step 0
  <sparsity:sparsity for geom step 0
    nrows_g=147 nrows=27 sparsity=.1811 nnzs=3914, refcount: 8>
  <dData1D:(new from dSpData1D) n=3914, refcount: 1>
refcount: 1>
new_DM -- step:     1
Initializing Density Matrix...
DM filled with atomic data:
<dSpData2D:DM initialized from atoms
  <sparsity:sparsity for geom step 0
    nrows_g=147 nrows=27 sparsity=.1811 nnzs=3914, refcount: 9>
  <dData2D:DM n=3914 m=8, refcount: 1>
refcount: 1>
     spin moment: S , {S} =   26.00000   0.00000   0.00000  26.00000
No. of atoms with KB's overlaping orbs in proc 0. Max # of overlaps:      15     125

Initializing spin-orbit part of the Hamiltonian
  Adding spin-orbit effects for N 
  Adding spin-orbit effects for Si
  Adding spin-orbit effects for H 
  Adding spin-orbit effects for O 


New grid distribution:   1
           1       1:   96    1:   40    1:   20
           2       1:   96    1:   40   21:   40
           3       1:   96    1:   40   41:   60
           4       1:   96   41:   80    1:   20
           5       1:   96   41:   80   21:   40
           6       1:   96   41:   80   41:   60

InitMesh: MESH =   192 x   160 x   120 =     3686400
InitMesh: (bp) =    96 x    80 x    60 =      460800
InitMesh: Mesh cutoff (required, used) =   340.000   349.397 Ry
ExtMesh (bp) on 0 =   200 x   144 x   128 =     3686400
New grid distribution:   2
           1       1:   77    1:   13    1:   60
           2      78:   96   15:   80    1:   20
           3      78:   96    1:   14    1:   60
           4       1:   77   14:   80    1:   20
           5       1:   77   14:   80   21:   60
           6      78:   96   15:   80   21:   60
New grid distribution:   3
           1       1:   64    1:   15    1:   60
           2      65:   96   20:   80    1:   25
           3      65:   96    1:   19    1:   60
           4       1:   64   16:   80    1:   23
           5      65:   96   20:   80   26:   60
           6       1:   64   16:   80   24:   60
Setting up quadratic distribution...
ExtMesh (bp) on 0 =   181 x   117 x   168 =     3557736
PhiOnMesh: Number of (b)points on node 0 =                60060
PhiOnMesh: nlist on node 0 =               925287

stepf: Fermi-Dirac step function

siesta: Program's energy decomposition (eV):
siesta: Ebs     =      -363.736944
siesta: Eions   =      1908.291957
siesta: Ena     =       162.573858
siesta: Ekin    =      1650.203921
siesta: Enl     =     -1411.073632
siesta: Eso     =        -0.002260
siesta: Edftu   =         0.000000
siesta: DEna    =        32.037610
siesta: DUscf   =        33.492339
siesta: DUext   =         0.000000
siesta: Exc     =      -580.425052
siesta: eta*DQ  =         0.000000
siesta: Emadel  =         0.000000
siesta: Emeta   =         0.000000
siesta: Emolmec =         0.000000
siesta: Ekinion =         0.000000
siesta: Eharris =     -1995.887757
siesta: Etot    =     -2021.485174
siesta: FreeEng =     -2021.489416

        iscf     Eharris(eV)        E_KS(eV)     FreeEng(eV)     dDmax    Ef(eV) dHmax(eV)
   scf:    1    -1995.887757    -2021.485174    -2021.489416  0.971467 -4.941031 21.060399
     spin moment: S , {S} =    0.03214   0.00002   0.00003   0.03214
timer: Routine,Calls,Time,% = IterSCF        1       2.770  15.29
   scf:    2    -2045.899583    -2037.106987    -2037.106993  0.127780 -4.936614  6.498787
     spin moment: S , {S} =    0.00010   0.00001   0.00001   0.00010
   scf:    3    -2039.420879    -2038.635208    -2038.635208  0.054079 -4.692345  4.680402
     spin moment: S , {S} =    0.00005   0.00001   0.00001   0.00005
   scf:    4    -2039.278093    -2039.003033    -2039.003033  0.030216 -4.514222  2.597297
     spin moment: S , {S} =    0.00002   0.00000   0.00001   0.00002
   scf:    5    -2038.826440    -2039.046650    -2039.046650  0.047852 -4.396029  2.735690
     spin moment: S , {S} =    0.00001   0.00000   0.00000   0.00001
   scf:    6    -2039.004061    -2039.195618    -2039.195618  0.044077 -4.547160  1.515970
     spin moment: S , {S} =    0.00000   0.00000   0.00000   0.00000
   scf:    7    -2039.263258    -2039.270805    -2039.270805  0.021566 -4.425013  0.527067
     spin moment: S , {S} =    0.00000   0.00000   0.00000   0.00000
   scf:    8    -2039.291986    -2039.283213    -2039.283213  0.007215 -4.455906  0.110012
     spin moment: S , {S} =    0.00000   0.00000   0.00000   0.00000
   scf:    9    -2039.290826    -2039.286781    -2039.286781  0.004651 -4.459561  0.055149
     spin moment: S , {S} =    0.00000   0.00000   0.00000   0.00000
   scf:   10    -2039.290926    -2039.288580    -2039.288580  0.004744 -4.459888  0.022281
     spin moment: S , {S} =    0.00000   0.00000   0.00000  -0.00000
   scf:   11    -2039.289071    -2039.288798    -2039.288798  0.001411 -4.455386  0.011928
     spin moment: S , {S} =    0.00000   0.00000   0.00000  -0.00000
   scf:   12    -2039.288888    -2039.288839    -2039.288839  0.000566 -4.452706  0.005760
     spin moment: S , {S} =    0.00000   0.00000   0.00000  -0.00000
   scf:   13    -2039.288882    -2039.288858    -2039.288858  0.000473 -4.450799  0.004342
     spin moment: S , {S} =    0.00000   0.00000   0.00000  -0.00000
   scf:   14    -2039.288880    -2039.288868    -2039.288868  0.000404 -4.450461  0.002252
     spin moment: S , {S} =    0.00000   0.00000   0.00000  -0.00000
   scf:   15    -2039.288876    -2039.288872    -2039.288872  0.000249 -4.450290  0.001613
     spin moment: S , {S} =    0.00000  -0.00000   0.00000  -0.00000
   scf:   16    -2039.288875    -2039.288873    -2039.288873  0.000217 -4.450292  0.000890
     spin moment: S , {S} =    0.00000  -0.00000   0.00000   0.00000
   scf:   17    -2039.288875    -2039.288874    -2039.288874  0.000176 -4.450257  0.000493
     spin moment: S , {S} =    0.00000  -0.00000   0.00000   0.00000
   scf:   18    -2039.288874    -2039.288874    -2039.288874  0.000084 -4.450343  0.000255
     spin moment: S , {S} =    0.00000  -0.00000   0.00000   0.00000
   scf:   19    -2039.288874    -2039.288874    -2039.288874  0.000034 -4.450333  0.000177
     spin moment: S , {S} =    0.00000  -0.00000   0.00000   0.00000
   scf:   20    -2039.288874    -2039.288874    -2039.288874  0.000035 -4.450299  0.000090
     spin moment: S , {S} =    0.00000  -0.00000   0.00000   0.00000
   scf:   21    -2039.288874    -2039.288874    -2039.288874  0.000013 -4.450273  0.000050
     spin moment: S , {S} =    0.00000   0.00000   0.00000   0.00000
   scf:   22    -2039.288874    -2039.288874    -2039.288874  0.000008 -4.450263  0.000032
     spin moment: S , {S} =    0.00000   0.00000   0.00000   0.00000
   scf:   23    -2039.288874    -2039.288874    -2039.288874  0.000004 -4.450265  0.000017
     spin moment: S , {S} =    0.00000   0.00000   0.00000   0.00000
   scf:   24    -2039.288874    -2039.288874    -2039.288874  0.000001 -4.450261  0.000009
     spin moment: S , {S} =    0.00000   0.00000   0.00000   0.00000
mix: Pulay -- resetting history
   scf:   25    -2039.288874    -2039.288874    -2039.288874  0.000001 -4.450261  0.000004
     spin moment: S , {S} =    0.00000   0.00000   0.00000   0.00000
   scf:   26    -2039.288874    -2039.288874    -2039.288874  0.000000 -4.450261  0.000002
     spin moment: S , {S} =    0.00000  -0.00000   0.00000  -0.00000
   scf:   27    -2039.288874    -2039.288874    -2039.288874  0.000000 -4.450261  0.000001
     spin moment: S , {S} =    0.00000  -0.00000   0.00000   0.00000
   scf:   28    -2039.288874    -2039.288874    -2039.288874  0.000000 -4.450261  0.000000
     spin moment: S , {S} =    0.00000  -0.00000   0.00000   0.00000

SCF Convergence by DM+H criterion
max |DM_out - DM_in|         :     0.0000001900
max |H_out - H_in|      (eV) :     0.0000004880
SCF cycle converged after 28 iterations

Using DM_out to compute the final energy and forces
No. of atoms with KB's overlaping orbs in proc 0. Max # of overlaps:      15     125

siesta: E_KS(eV) =            -2039.2889

siesta: E_KS - E_eggbox =     -2039.2889
     spin moment: S , {S} =    0.00000  -0.00000   0.00000   0.00000

siesta: Atomic forces (eV/Ang):
     1   -0.000783    0.002682    0.008070
     2    0.000568   -0.001438   -0.039571
     3    0.013960   -0.103360    0.008276
     4   -0.000026   -0.000468   -0.041950
     5    0.001317    0.000382    0.024845
     6   -0.056717    0.013554    0.059426
     7    0.087934    0.017490    0.021147
     8    0.125423    0.011455   -0.036099
     9   -0.001933    0.002482   -0.026739
    10    1.121668    0.126408    0.003207
    11    0.004779    0.000687    0.006762
    12   -0.037033   -0.075865    0.002766
    13    0.001158    0.002009   -0.000786
    14   -0.952371   -0.795094   -0.001138
    15   -0.046434   -0.002186    0.008118
----------------------------------------
   Tot    0.261509   -0.801262   -0.003666
----------------------------------------
   Max    1.121668
   Res    0.252588    sqrt( Sum f_i^2 / 3N )
----------------------------------------
   Max    1.121668    constrained

Stress tensor Voigt[x,y,z,yz,xz,xy] (kbar):       -3.20       -2.03       -0.45       -0.00        0.12       -1.04
(Free)E + p*V (eV/cell)    -2036.3966
Target enthalpy (eV/cell)    -2039.2889

mulliken: Atomic and Orbital Populations:

Species: N                   

Atom      Orb        Charge      Spin       Svec
----------------------------------------------------------------
    1  1 2s         1.37848   0.00000     -0.000   0.000  -0.000
    1  2 2s         0.12606   0.00000      0.000  -0.000   0.000
    1  3 2py        1.06159   0.00000     -0.000   0.000   0.000
    1  4 2pz        1.54686   0.00000     -0.000  -0.000  -0.000
    1  5 2px        1.01045   0.00000     -0.000  -0.000   0.000
    1  6 2py        0.19980   0.00000      0.000   0.000   0.000
    1  7 2pz        0.00333   0.00000      0.000   0.000  -0.000
    1  8 2px        0.22025   0.00000      0.000   0.000  -0.000
    1  9 3Pdxy      0.00651   0.00000     -0.000   0.000   0.000
    1 10 3Pdyz      0.00183   0.00000     -0.000   0.000  -0.000
    1 11 3Pdz2      0.00090   0.00000      0.000  -0.000   0.000
    1 12 3Pdxz      0.00528   0.00000      0.000  -0.000  -0.000
    1 13 3Pdx2-y2   0.00108   0.00000      0.000   0.000   0.000
    1     Total     5.56242   0.00000     -0.000   0.000  -0.000

   11  1 2s         1.37341   0.00000      0.000  -0.000  -0.000
   11  2 2s         0.12504   0.00000     -0.000   0.000   0.000
   11  3 2py        1.01891   0.00000     -0.000  -0.000  -0.000
   11  4 2pz        1.53149   0.00000      0.000   0.000  -0.000
   11  5 2px        1.03648   0.00000     -0.000   0.000  -0.000
   11  6 2py        0.22006   0.00000      0.000   0.000   0.000
   11  7 2pz        0.00521   0.00000     -0.000  -0.000  -0.000
   11  8 2px        0.21505   0.00000      0.000  -0.000   0.000
   11  9 3Pdxy      0.00250   0.00000      0.000   0.000   0.000
   11 10 3Pdyz      0.00230   0.00000      0.000  -0.000   0.000
   11 11 3Pdz2     -0.00124   0.00000      0.000  -0.000   0.000
   11 12 3Pdxz      0.00316   0.00000     -0.000  -0.000   0.000
   11 13 3Pdx2-y2   0.00035   0.00000     -0.000   0.000  -0.000
   11     Total     5.53271   0.00000     -0.000   0.000  -0.000

----------------------------------------------------------------
Total              11.09513   0.00000     -0.000   0.000  -0.000


Species: Si                  

Atom      Orb        Charge      Spin       Svec
----------------------------------------------------------------
    2  1 3s         0.73130   0.00000      0.000   0.000   0.000
    2  2 3s         0.35756   0.00000     -0.000  -0.000  -0.000
    2  3 3py        0.15357   0.00000     -0.000   0.000  -0.000
    2  4 3pz        0.61784   0.00000      0.000   0.000  -0.000
    2  5 3px        0.28935   0.00000      0.000   0.000  -0.000
    2  6 3py        0.51053   0.00000      0.000   0.000   0.000
    2  7 3pz        0.15188   0.00000      0.000  -0.000  -0.000
    2  8 3px        0.28417   0.00000     -0.000   0.000   0.000
    2  9 3Pdxy      0.11045   0.00000     -0.000  -0.000  -0.000
    2 10 3Pdyz      0.04563   0.00000      0.000   0.000   0.000
    2 11 3Pdz2      0.00900   0.00000      0.000   0.000   0.000
    2 12 3Pdxz      0.10532   0.00000      0.000  -0.000  -0.000
    2 13 3Pdx2-y2   0.16578   0.00000      0.000   0.000   0.000
    2     Total     3.53240   0.00000     -0.000   0.000  -0.000

    4  1 3s         0.86422   0.00000      0.000  -0.000   0.000
    4  2 3s         0.31206   0.00000     -0.000   0.000   0.000
    4  3 3py        0.44427   0.00000     -0.000   0.000   0.000
    4  4 3pz        0.65915   0.00000      0.000  -0.000   0.000
    4  5 3px        0.36011   0.00000     -0.000  -0.000   0.000
    4  6 3py        0.29711   0.00000     -0.000   0.000   0.000
    4  7 3pz        0.26830   0.00000     -0.000   0.000   0.000
    4  8 3px        0.37757   0.00000      0.000   0.000   0.000
    4  9 3Pdxy      0.13471   0.00000     -0.000   0.000  -0.000
    4 10 3Pdyz      0.03199   0.00000     -0.000  -0.000  -0.000
    4 11 3Pdz2      0.01453   0.00000      0.000  -0.000  -0.000
    4 12 3Pdxz      0.05384   0.00000      0.000  -0.000  -0.000
    4 13 3Pdx2-y2   0.09017   0.00000      0.000   0.000   0.000
    4     Total     3.90803   0.00000      0.000  -0.000   0.000

    5  1 3s         0.53949   0.00000     -0.000   0.000   0.000
    5  2 3s         0.44496   0.00000      0.000  -0.000  -0.000
    5  3 3py        0.27978   0.00000      0.000  -0.000   0.000
    5  4 3pz        0.25304   0.00000     -0.000   0.000  -0.000
    5  5 3px        0.47467   0.00000      0.000   0.000   0.000
    5  6 3py        0.40910   0.00000     -0.000   0.000   0.000
    5  7 3pz        0.42570   0.00000      0.000  -0.000   0.000
    5  8 3px        0.25937   0.00000     -0.000  -0.000  -0.000
    5  9 3Pdxy      0.04174   0.00000     -0.000  -0.000   0.000
    5 10 3Pdyz      0.04865   0.00000      0.000  -0.000  -0.000
    5 11 3Pdz2      0.05115   0.00000     -0.000   0.000  -0.000
    5 12 3Pdxz      0.10568   0.00000      0.000   0.000   0.000
    5 13 3Pdx2-y2   0.07380   0.00000      0.000   0.000   0.000
    5     Total     3.40714   0.00000      0.000   0.000   0.000

    9  1 3s         0.61063   0.00000      0.000  -0.000   0.000
    9  2 3s         0.36745   0.00000     -0.000   0.000  -0.000
    9  3 3py        0.09050   0.00000      0.000   0.000   0.000
    9  4 3pz        0.41513   0.00000      0.000  -0.000   0.000
    9  5 3px        0.35060   0.00000      0.000  -0.000   0.000
    9  6 3py        0.48052   0.00000      0.000  -0.000   0.000
    9  7 3pz        0.18994   0.00000      0.000   0.000   0.000
    9  8 3px        0.27656   0.00000     -0.000   0.000  -0.000
    9  9 3Pdxy      0.33905   0.00000     -0.000   0.000   0.000
    9 10 3Pdyz      0.18468   0.00000      0.000   0.000   0.000
    9 11 3Pdz2      0.01547   0.00000     -0.000   0.000   0.000
    9 12 3Pdxz      0.07924   0.00000      0.000   0.000   0.000
    9 13 3Pdx2-y2   0.15271   0.00000     -0.000  -0.000   0.000
    9     Total     3.55248   0.00000      0.000  -0.000   0.000

   13  1 3s         0.43483   0.00000      0.000  -0.000   0.000
   13  2 3s         0.37703   0.00000     -0.000   0.000  -0.000
   13  3 3py        0.26901   0.00000      0.000   0.000   0.000
   13  4 3pz        0.40153   0.00000      0.000  -0.000   0.000
   13  5 3px        0.06177   0.00000      0.000  -0.000   0.000
   13  6 3py        0.28272   0.00000     -0.000   0.000  -0.000
   13  7 3pz        0.20299   0.00000      0.000  -0.000   0.000
   13  8 3px        0.47003   0.00000     -0.000   0.000   0.000
   13  9 3Pdxy      0.36283   0.00000      0.000   0.000   0.000
   13 10 3Pdyz      0.09562   0.00000     -0.000   0.000   0.000
   13 11 3Pdz2      0.01567   0.00000     -0.000  -0.000  -0.000
   13 12 3Pdxz      0.18709   0.00000      0.000  -0.000   0.000
   13 13 3Pdx2-y2   0.13387   0.00000      0.000   0.000   0.000
   13     Total     3.29499   0.00000      0.000  -0.000   0.000

----------------------------------------------------------------
Total              28.79017   0.00000      0.000  -0.000   0.000


Species: H                   

Atom      Orb        Charge      Spin       Svec
----------------------------------------------------------------
    3  1 1s         1.04507   0.00000      0.000   0.000  -0.000
    3  2 1s         0.08444   0.00000     -0.000  -0.000  -0.000
    3  3 2Ppy       0.03640   0.00000     -0.000  -0.000   0.000
    3  4 2Ppz       0.01845   0.00000      0.000  -0.000  -0.000
    3  5 2Ppx       0.00949   0.00000      0.000   0.000  -0.000
    3     Total     1.19384   0.00000      0.000  -0.000  -0.000

    6  1 1s         1.06442   0.00000     -0.000   0.000  -0.000
    6  2 1s         0.08277   0.00000      0.000  -0.000   0.000
    6  3 2Ppy       0.02041   0.00000     -0.000  -0.000   0.000
    6  4 2Ppz       0.02115   0.00000      0.000   0.000   0.000
    6  5 2Ppx       0.01348   0.00000     -0.000  -0.000  -0.000
    6     Total     1.20224   0.00000     -0.000   0.000  -0.000

    7  1 1s         1.05448   0.00000      0.000  -0.000  -0.000
    7  2 1s         0.08326   0.00000     -0.000   0.000   0.000
    7  3 2Ppy       0.02742   0.00000      0.000   0.000  -0.000
    7  4 2Ppz       0.01780   0.00000      0.000   0.000   0.000
    7  5 2Ppx       0.00964   0.00000      0.000  -0.000  -0.000
    7     Total     1.19260   0.00000      0.000  -0.000  -0.000

    8  1 1s         1.06334   0.00000      0.000  -0.000  -0.000
    8  2 1s         0.08230   0.00000     -0.000   0.000   0.000
    8  3 2Ppy       0.01598   0.00000      0.000   0.000  -0.000
    8  4 2Ppz       0.02475   0.00000     -0.000  -0.000   0.000
    8  5 2Ppx       0.01435   0.00000     -0.000  -0.000  -0.000
    8     Total     1.20071   0.00000      0.000  -0.000  -0.000

   12  1 1s         0.47092   0.00000      0.000   0.000  -0.000
   12  2 1s         0.18996   0.00000     -0.000  -0.000  -0.000
   12  3 2Ppy       0.02457   0.00000     -0.000  -0.000  -0.000
   12  4 2Ppz       0.02682   0.00000     -0.000  -0.000  -0.000
   12  5 2Ppx       0.02551   0.00000      0.000  -0.000  -0.000
   12     Total     0.73778   0.00000     -0.000  -0.000  -0.000

   15  1 1s         0.48148   0.00000      0.000   0.000  -0.000
   15  2 1s         0.18948   0.00000      0.000  -0.000  -0.000
   15  3 2Ppy       0.02320   0.00000      0.000  -0.000   0.000
   15  4 2Ppz       0.03384   0.00000     -0.000   0.000  -0.000
   15  5 2Ppx       0.02606   0.00000      0.000  -0.000  -0.000
   15     Total     0.75406   0.00000      0.000   0.000  -0.000

----------------------------------------------------------------
Total              35.07140   0.00000      0.000  -0.000   0.000


Species: O                   

Atom      Orb        Charge      Spin       Svec
----------------------------------------------------------------
   10  1 2s         1.73602   0.00000      0.000   0.000  -0.000
   10  2 2s         0.07259   0.00000     -0.000  -0.000  -0.000
   10  3 2py        1.42597   0.00000     -0.000  -0.000  -0.000
   10  4 2pz        1.51165   0.00000     -0.000   0.000  -0.000
   10  5 2px        1.63467   0.00000     -0.000  -0.000  -0.000
   10  6 2py        0.04754   0.00000      0.000   0.000  -0.000
   10  7 2pz        0.00018   0.00000     -0.000  -0.000  -0.000
   10  8 2px        0.00890   0.00000      0.000   0.000  -0.000
   10  9 3Pdxy      0.00715   0.00000     -0.000   0.000  -0.000
   10 10 3Pdyz      0.01071   0.00000     -0.000  -0.000   0.000
   10 11 3Pdz2      0.00136   0.00000     -0.000   0.000   0.000
   10 12 3Pdxz     -0.00018   0.00000      0.000   0.000  -0.000
   10 13 3Pdx2-y2   0.00740   0.00000      0.000  -0.000  -0.000
   10     Total     6.46395   0.00000     -0.000   0.000  -0.000

   14  1 2s         1.73126   0.00000     -0.000  -0.000  -0.000
   14  2 2s         0.07553   0.00000      0.000   0.000   0.000
   14  3 2py        1.60454   0.00000     -0.000  -0.000  -0.000
   14  4 2pz        1.53179   0.00000     -0.000   0.000   0.000
   14  5 2px        1.41206   0.00000      0.000  -0.000  -0.000
   14  6 2py        0.02397   0.00000      0.000  -0.000  -0.000
   14  7 2pz        0.00487   0.00000      0.000   0.000  -0.000
   14  8 2px        0.05248   0.00000     -0.000   0.000   0.000
   14  9 3Pdxy      0.00785   0.00000     -0.000   0.000   0.000
   14 10 3Pdyz     -0.00022   0.00000      0.000   0.000  -0.000
   14 11 3Pdz2      0.00136   0.00000      0.000   0.000   0.000
   14 12 3Pdxz      0.01117   0.00000      0.000  -0.000   0.000
   14 13 3Pdx2-y2   0.00798   0.00000     -0.000   0.000   0.000
   14     Total     6.46465   0.00000     -0.000  -0.000  -0.000

----------------------------------------------------------------
Total              48.00000   0.00000     -0.000   0.000   0.000


                     ====================================
                        Begin CG opt. move =      1
                     ====================================

outcoor: Atomic coordinates (Ang):                          
   -0.72104965    4.52714136    0.00000000   1       1  N
   -2.51554031    4.60026372    0.00000000   2       2  Si
   -2.89793617    6.03641777    0.00000000   3       3  H
   -3.68241039    2.74608715    0.00000000   2       4  Si
   -5.96333215    2.30737931    0.00000000   2       5  Si
   -6.60124623    3.29764220    0.95083589   3       6  H
   -6.04637522    0.89382756    0.51636113   3       7  H
   -6.56629127    2.40661379   -1.37307533   3       8  H
   -2.17012577    1.04738521    0.00000000   2       9  Si
   -2.00009200   -0.51247893    0.00000000   4      10  O
   -0.49209575    1.62650749    0.00000000   1      11  N
    0.16961919    0.78748085    0.00000000   3      12  H
    0.36722525    3.12775608    0.00000000   2      13  Si
    1.76575081    2.97755247    0.00000000   4      14  O
   -0.18515394    5.43376418    0.00000000   3      15  H

outcell: Unit cell vectors (Ang):
       16.818328    0.000000    0.000000
        0.000000   14.230200    0.000000
        0.000000    0.000000   10.224979

outcell: Cell vector modules (Ang)   :   16.818328   14.230200   10.224979
outcell: Cell angles (23,13,12) (deg):     90.0000     90.0000     90.0000
outcell: Cell volume (Ang**3)        :   2447.1255
<dSpData1D:S at geom step 1
  <sparsity:sparsity for geom step 1
    nrows_g=147 nrows=27 sparsity=.1811 nnzs=3914, refcount: 8>
  <dData1D:(new from dSpData1D) n=3914, refcount: 1>
refcount: 1>
new_DM -- step:     2
Re-using DM from previous geometries...
Number of DMs in history: 1
 DM extrapolation coefficients: 
1   1.00000
New DM after history re-use:
<dSpData2D:SpM extrapolated using coords
  <sparsity:sparsity for geom step 1
    nrows_g=147 nrows=27 sparsity=.1811 nnzs=3914, refcount: 10>
  <dData2D:(temp array for extrapolation) n=3914 m=8, refcount: 1>
refcount: 1>
     spin moment: S , {S} =    0.00000   0.00000   0.00000  -0.00000
No. of atoms with KB's overlaping orbs in proc 0. Max # of overlaps:      15     132
New grid distribution:   1
           1       1:   96    1:   40    1:   20
           2       1:   96    1:   40   21:   40
           3       1:   96    1:   40   41:   60
           4       1:   96   41:   80    1:   20
           5       1:   96   41:   80   21:   40
           6       1:   96   41:   80   41:   60

InitMesh: MESH =   192 x   160 x   120 =     3686400
InitMesh: (bp) =    96 x    80 x    60 =      460800
InitMesh: Mesh cutoff (required, used) =   340.000   349.397 Ry
ExtMesh (bp) on 0 =   200 x   144 x   128 =     3686400
New grid distribution:   2
           1       1:   77    1:   13    1:   60
           2      78:   96   15:   80    1:   20
           3      78:   96    1:   14    1:   60
           4       1:   77   14:   80    1:   20
           5       1:   77   14:   80   21:   60
           6      78:   96   15:   80   21:   60
New grid distribution:   3
           1       1:   64    1:   15    1:   60
           2      65:   96   20:   80    1:   25
           3      65:   96    1:   19    1:   60
           4       1:   64   16:   80    1:   23
           5      65:   96   20:   80   26:   60
           6       1:   64   16:   80   24:   60
Setting up quadratic distribution...
ExtMesh (bp) on 0 =   181 x   117 x   168 =     3557736
PhiOnMesh: Number of (b)points on node 0 =                60060
PhiOnMesh: nlist on node 0 =               928342

        iscf     Eharris(eV)        E_KS(eV)     FreeEng(eV)     dDmax    Ef(eV) dHmax(eV)
   scf:    1    -2036.155096    -2037.555713    -2037.555713  0.095202 -5.186686  3.359681
     spin moment: S , {S} =    0.00000   0.00000   0.00000   0.00000
   scf:    2    -2019.921352    -2032.183153    -2032.183153  0.193335 -4.122316 14.944968
     spin moment: S , {S} =    0.00000   0.00000  -0.00000   0.00000
   scf:    3    -2038.505354    -2037.880664    -2037.880664  0.173952 -5.178387  0.957126
     spin moment: S , {S} =    0.00000   0.00000   0.00000   0.00000
   scf:    4    -2037.908349    -2037.898343    -2037.898343  0.007464 -4.605462  0.217707
     spin moment: S , {S} =    0.00000   0.00000   0.00000   0.00000
   scf:    5    -2037.900997    -2037.900235    -2037.900235  0.003067 -4.646245  0.058705
     spin moment: S , {S} =    0.00000   0.00000   0.00000   0.00000
   scf:    6    -2037.900564    -2037.900466    -2037.900466  0.001080 -4.652045  0.037836
     spin moment: S , {S} =    0.00000   0.00000   0.00000   0.00000
   scf:    7    -2037.900587    -2037.900532    -2037.900532  0.000666 -4.656177  0.014267
     spin moment: S , {S} =    0.00000   0.00000   0.00000   0.00000
   scf:    8    -2037.900547    -2037.900541    -2037.900541  0.000267 -4.656360  0.001936
     spin moment: S , {S} =    0.00000   0.00000   0.00000   0.00000
   scf:    9    -2037.900542    -2037.900542    -2037.900542  0.000081 -4.656311  0.000573
     spin moment: S , {S} =    0.00000   0.00000   0.00000   0.00000
   scf:   10    -2037.900542    -2037.900542    -2037.900542  0.000016 -4.656208  0.000268
     spin moment: S , {S} =    0.00000   0.00000   0.00000   0.00000
   scf:   11    -2037.900542    -2037.900542    -2037.900542  0.000009 -4.656137  0.000096
     spin moment: S , {S} =    0.00000   0.00000   0.00000   0.00000
   scf:   12    -2037.900542    -2037.900542    -2037.900542  0.000003 -4.656102  0.000026
     spin moment: S , {S} =    0.00000   0.00000   0.00000   0.00000
   scf:   13    -2037.900542    -2037.900542    -2037.900542  0.000001 -4.656089  0.000010
     spin moment: S , {S} =    0.00000   0.00000   0.00000   0.00000
   scf:   14    -2037.900542    -2037.900542    -2037.900542  0.000000 -4.656086  0.000004
     spin moment: S , {S} =    0.00000   0.00000   0.00000   0.00000
   scf:   15    -2037.900542    -2037.900542    -2037.900542  0.000000 -4.656085  0.000002
     spin moment: S , {S} =    0.00000   0.00000   0.00000   0.00000
   scf:   16    -2037.900542    -2037.900542    -2037.900542  0.000000 -4.656084  0.000001
     spin moment: S , {S} =    0.00000   0.00000   0.00000   0.00000

SCF Convergence by DM+H criterion
max |DM_out - DM_in|         :     0.0000000539
max |H_out - H_in|      (eV) :     0.0000006497
SCF cycle converged after 16 iterations

Using DM_out to compute the final energy and forces
No. of atoms with KB's overlaping orbs in proc 0. Max # of overlaps:      15     132

siesta: E_KS(eV) =            -2037.9005
     spin moment: S , {S} =    0.00000   0.00000   0.00000   0.00000

siesta: Atomic forces (eV/Ang):
     1    0.025440   -0.026289    0.006906
     2    0.134851   -0.348763   -0.038661
     3   -0.114033    0.387393    0.009040
     4   -0.102620    0.006874   -0.031278
     5    0.003239    0.190587    0.176612
     6   -0.040364   -0.112490   -0.094505
     7   -0.005717   -0.141605   -0.109072
     8   -0.096053   -0.047239    0.043568
     9    0.654742    0.460607   -0.021683
    10   -3.744231   -4.774964    0.002837
    11   -0.361927    0.416769    0.005194
    12   -0.086456    0.330221    0.002531
    13  -11.054728    0.363508   -0.000423
    14    8.759807   -0.643036   -0.001168
    15    0.098106    0.257518    0.007652
----------------------------------------
   Tot   -5.929945   -3.680910   -0.042449
----------------------------------------
   Max   11.054728
   Res    2.299268    sqrt( Sum f_i^2 / 3N )
----------------------------------------
   Max   11.054728    constrained

Stress tensor Voigt[x,y,z,yz,xz,xy] (kbar):      -13.33       -2.72       -0.30        0.09        0.03       -0.85
(Free)E + p*V (eV/cell)    -2029.5715
Target enthalpy (eV/cell)    -2037.9005

mulliken: Atomic and Orbital Populations:

Species: N                   

Atom      Orb        Charge      Spin       Svec
----------------------------------------------------------------
    1  1 2s         1.37611   0.00000     -0.000   0.000  -0.000
    1  2 2s         0.12751   0.00000      0.000  -0.000   0.000
    1  3 2py        1.06049   0.00000      0.000   0.000  -0.000
    1  4 2pz        1.55086   0.00000     -0.000  -0.000   0.000
    1  5 2px        1.01555   0.00000     -0.000  -0.000  -0.000
    1  6 2py        0.20157   0.00000     -0.000  -0.000   0.000
    1  7 2pz        0.00377   0.00000      0.000   0.000  -0.000
    1  8 2px        0.21789   0.00000      0.000   0.000   0.000
    1  9 3Pdxy      0.00544   0.00000     -0.000  -0.000   0.000
    1 10 3Pdyz      0.00183   0.00000     -0.000   0.000   0.000
    1 11 3Pdz2      0.00062   0.00000     -0.000   0.000   0.000
    1 12 3Pdxz      0.00513   0.00000      0.000   0.000  -0.000
    1 13 3Pdx2-y2   0.00123   0.00000      0.000  -0.000   0.000
    1     Total     5.56801   0.00000     -0.000  -0.000  -0.000

   11  1 2s         1.36743   0.00000      0.000  -0.000  -0.000
   11  2 2s         0.12595   0.00000     -0.000   0.000   0.000
   11  3 2py        1.01552   0.00000     -0.000   0.000   0.000
   11  4 2pz        1.52348   0.00000      0.000   0.000   0.000
   11  5 2px        1.02929   0.00000     -0.000   0.000   0.000
   11  6 2py        0.21620   0.00000     -0.000  -0.000  -0.000
   11  7 2pz        0.00531   0.00000     -0.000  -0.000  -0.000
   11  8 2px        0.21242   0.00000      0.000  -0.000   0.000
   11  9 3Pdxy     -0.00001   0.00000      0.000  -0.000   0.000
   11 10 3Pdyz      0.00213   0.00000      0.000  -0.000  -0.000
   11 11 3Pdz2     -0.00271   0.00000      0.000   0.000   0.000
   11 12 3Pdxz      0.00265   0.00000      0.000   0.000  -0.000
   11 13 3Pdx2-y2   0.00108   0.00000     -0.000  -0.000  -0.000
   11     Total     5.49873   0.00000      0.000   0.000   0.000

----------------------------------------------------------------
Total              11.06674   0.00000     -0.000  -0.000  -0.000


Species: Si                  

Atom      Orb        Charge      Spin       Svec
----------------------------------------------------------------
    2  1 3s         0.72412   0.00000      0.000  -0.000  -0.000
    2  2 3s         0.35936   0.00000     -0.000   0.000   0.000
    2  3 3py        0.14730   0.00000     -0.000   0.000  -0.000
    2  4 3pz        0.61894   0.00000      0.000   0.000   0.000
    2  5 3px        0.28906   0.00000      0.000  -0.000   0.000
    2  6 3py        0.51720   0.00000      0.000  -0.000   0.000
    2  7 3pz        0.15250   0.00000     -0.000  -0.000  -0.000
    2  8 3px        0.28418   0.00000     -0.000   0.000  -0.000
    2  9 3Pdxy      0.11167   0.00000     -0.000   0.000  -0.000
    2 10 3Pdyz      0.04561   0.00000      0.000   0.000   0.000
    2 11 3Pdz2      0.00889   0.00000     -0.000  -0.000   0.000
    2 12 3Pdxz      0.10682   0.00000     -0.000   0.000   0.000
    2 13 3Pdx2-y2   0.16482   0.00000      0.000  -0.000   0.000
    2     Total     3.53046   0.00000     -0.000   0.000  -0.000

    4  1 3s         0.87310   0.00000     -0.000   0.000   0.000
    4  2 3s         0.30776   0.00000      0.000  -0.000  -0.000
    4  3 3py        0.44364   0.00000     -0.000   0.000   0.000
    4  4 3pz        0.65882   0.00000      0.000  -0.000   0.000
    4  5 3px        0.36614   0.00000     -0.000   0.000  -0.000
    4  6 3py        0.29679   0.00000      0.000  -0.000   0.000
    4  7 3pz        0.27141   0.00000     -0.000   0.000   0.000
    4  8 3px        0.37353   0.00000      0.000  -0.000   0.000
    4  9 3Pdxy      0.13473   0.00000     -0.000  -0.000   0.000
    4 10 3Pdyz      0.03233   0.00000      0.000  -0.000  -0.000
    4 11 3Pdz2      0.01481   0.00000      0.000   0.000   0.000
    4 12 3Pdxz      0.05355   0.00000      0.000  -0.000  -0.000
    4 13 3Pdx2-y2   0.09036   0.00000     -0.000   0.000   0.000
    4     Total     3.91699   0.00000     -0.000   0.000   0.000

    5  1 3s         0.53880   0.00000     -0.000  -0.000  -0.000
    5  2 3s         0.44494   0.00000      0.000   0.000   0.000
    5  3 3py        0.28395   0.00000     -0.000  -0.000  -0.000
    5  4 3pz        0.25230   0.00000      0.000   0.000   0.000
    5  5 3px        0.48151   0.00000      0.000  -0.000   0.000
    5  6 3py        0.40486   0.00000      0.000   0.000   0.000
    5  7 3pz        0.42633   0.00000     -0.000  -0.000  -0.000
    5  8 3px        0.25686   0.00000     -0.000   0.000  -0.000
    5  9 3Pdxy      0.04158   0.00000     -0.000  -0.000  -0.000
    5 10 3Pdyz      0.04878   0.00000     -0.000   0.000   0.000
    5 11 3Pdz2      0.05285   0.00000      0.000  -0.000   0.000
    5 12 3Pdxz      0.10564   0.00000     -0.000   0.000   0.000
    5 13 3Pdx2-y2   0.07318   0.00000     -0.000  -0.000   0.000
    5     Total     3.41157   0.00000     -0.000  -0.000  -0.000

    9  1 3s         0.63811   0.00000      0.000  -0.000   0.000
    9  2 3s         0.35373   0.00000     -0.000   0.000  -0.000
    9  3 3py        0.08257   0.00000      0.000   0.000  -0.000
    9  4 3pz        0.41162   0.00000     -0.000   0.000  -0.000
    9  5 3px        0.35911   0.00000      0.000   0.000   0.000
    9  6 3py        0.48005   0.00000     -0.000   0.000  -0.000
    9  7 3pz        0.19171   0.00000      0.000   0.000  -0.000
    9  8 3px        0.27977   0.00000      0.000  -0.000   0.000
    9  9 3Pdxy      0.33880   0.00000     -0.000  -0.000  -0.000
    9 10 3Pdyz      0.18939   0.00000     -0.000  -0.000  -0.000
    9 11 3Pdz2      0.01612   0.00000      0.000  -0.000   0.000
    9 12 3Pdxz      0.08105   0.00000     -0.000   0.000   0.000
    9 13 3Pdx2-y2   0.14324   0.00000      0.000  -0.000  -0.000
    9     Total     3.56526   0.00000      0.000   0.000   0.000

   13  1 3s         0.39832   0.00000      0.000  -0.000   0.000
   13  2 3s         0.37489   0.00000     -0.000  -0.000  -0.000
   13  3 3py        0.22042   0.00000      0.000  -0.000   0.000
   13  4 3pz        0.35578   0.00000     -0.000  -0.000  -0.000
   13  5 3px        0.08048   0.00000     -0.000  -0.000   0.000
   13  6 3py        0.33058   0.00000     -0.000   0.000  -0.000
   13  7 3pz        0.23378   0.00000      0.000  -0.000   0.000
   13  8 3px        0.43478   0.00000      0.000   0.000  -0.000
   13  9 3Pdxy      0.38740   0.00000     -0.000   0.000   0.000
   13 10 3Pdyz      0.09804   0.00000      0.000  -0.000  -0.000
   13 11 3Pdz2      0.01715   0.00000     -0.000  -0.000  -0.000
   13 12 3Pdxz      0.20048   0.00000      0.000   0.000  -0.000
   13 13 3Pdx2-y2   0.13239   0.00000      0.000   0.000   0.000
   13     Total     3.26449   0.00000      0.000  -0.000   0.000

----------------------------------------------------------------
Total              28.75552   0.00000      0.000   0.000   0.000


Species: H                   

Atom      Orb        Charge      Spin       Svec
----------------------------------------------------------------
    3  1 1s         1.03936   0.00000      0.000   0.000   0.000
    3  2 1s         0.08804   0.00000     -0.000  -0.000  -0.000
    3  3 2Ppy       0.03581   0.00000     -0.000   0.000   0.000
    3  4 2Ppz       0.01906   0.00000     -0.000  -0.000   0.000
    3  5 2Ppx       0.00950   0.00000      0.000  -0.000  -0.000
    3     Total     1.19177   0.00000     -0.000   0.000   0.000

    6  1 1s         1.06735   0.00000      0.000  -0.000  -0.000
    6  2 1s         0.08050   0.00000     -0.000  -0.000   0.000
    6  3 2Ppy       0.02051   0.00000      0.000   0.000   0.000
    6  4 2Ppz       0.02157   0.00000      0.000   0.000  -0.000
    6  5 2Ppx       0.01358   0.00000     -0.000  -0.000   0.000
    6     Total     1.20352   0.00000      0.000  -0.000  -0.000

    7  1 1s         1.05383   0.00000      0.000   0.000   0.000
    7  2 1s         0.08402   0.00000     -0.000  -0.000  -0.000
    7  3 2Ppy       0.02714   0.00000     -0.000   0.000   0.000
    7  4 2Ppz       0.01806   0.00000      0.000  -0.000   0.000
    7  5 2Ppx       0.00970   0.00000     -0.000  -0.000   0.000
    7     Total     1.19273   0.00000      0.000   0.000   0.000

    8  1 1s         1.06135   0.00000     -0.000  -0.000  -0.000
    8  2 1s         0.08317   0.00000      0.000   0.000   0.000
    8  3 2Ppy       0.01616   0.00000      0.000  -0.000   0.000
    8  4 2Ppz       0.02518   0.00000      0.000  -0.000   0.000
    8  5 2Ppx       0.01405   0.00000     -0.000   0.000   0.000
    8     Total     1.19991   0.00000      0.000  -0.000  -0.000

   12  1 1s         0.47834   0.00000      0.000  -0.000   0.000
   12  2 1s         0.18726   0.00000     -0.000  -0.000  -0.000
   12  3 2Ppy       0.02771   0.00000     -0.000   0.000  -0.000
   12  4 2Ppz       0.02633   0.00000      0.000   0.000   0.000
   12  5 2Ppx       0.02473   0.00000     -0.000  -0.000   0.000
   12     Total     0.74437   0.00000     -0.000   0.000   0.000

   15  1 1s         0.48359   0.00000      0.000   0.000  -0.000
   15  2 1s         0.19085   0.00000      0.000  -0.000  -0.000
   15  3 2Ppy       0.02315   0.00000      0.000   0.000   0.000
   15  4 2Ppz       0.03538   0.00000     -0.000   0.000  -0.000
   15  5 2Ppx       0.02587   0.00000      0.000   0.000   0.000
   15     Total     0.75884   0.00000      0.000   0.000   0.000

----------------------------------------------------------------
Total              35.04667   0.00000      0.000   0.000   0.000


Species: O                   

Atom      Orb        Charge      Spin       Svec
----------------------------------------------------------------
   10  1 2s         1.72974   0.00000      0.000   0.000  -0.000
   10  2 2s         0.07323   0.00000     -0.000  -0.000   0.000
   10  3 2py        1.46177   0.00000     -0.000  -0.000   0.000
   10  4 2pz        1.51194   0.00000     -0.000  -0.000   0.000
   10  5 2px        1.61085   0.00000     -0.000   0.000   0.000
   10  6 2py        0.04331   0.00000      0.000   0.000  -0.000
   10  7 2pz       -0.00013   0.00000     -0.000   0.000  -0.000
   10  8 2px        0.00804   0.00000      0.000  -0.000   0.000
   10  9 3Pdxy      0.00734   0.00000     -0.000  -0.000   0.000
   10 10 3Pdyz      0.01058   0.00000     -0.000  -0.000   0.000
   10 11 3Pdz2      0.00110   0.00000     -0.000  -0.000   0.000
   10 12 3Pdxz      0.00001   0.00000      0.000  -0.000   0.000
   10 13 3Pdx2-y2   0.00699   0.00000      0.000   0.000  -0.000
   10     Total     6.46479   0.00000     -0.000  -0.000   0.000

   14  1 2s         1.64091   0.00000     -0.000  -0.000  -0.000
   14  2 2s         0.11473   0.00000      0.000   0.000   0.000
   14  3 2py        1.52552   0.00000     -0.000  -0.000  -0.000
   14  4 2pz        1.50386   0.00000     -0.000  -0.000  -0.000
   14  5 2px        1.54226   0.00000     -0.000   0.000   0.000
   14  6 2py        0.05252   0.00000      0.000   0.000   0.000
   14  7 2pz        0.01805   0.00000      0.000   0.000  -0.000
   14  8 2px        0.05818   0.00000      0.000  -0.000  -0.000
   14  9 3Pdxy      0.01029   0.00000     -0.000   0.000  -0.000
   14 10 3Pdyz      0.00000   0.00000      0.000   0.000  -0.000
   14 11 3Pdz2      0.00031   0.00000      0.000  -0.000  -0.000
   14 12 3Pdxz      0.01494   0.00000      0.000   0.000   0.000
   14 13 3Pdx2-y2   0.00697   0.00000      0.000  -0.000   0.000
   14     Total     6.48854   0.00000     -0.000  -0.000  -0.000

----------------------------------------------------------------
Total              48.00000   0.00000      0.000   0.000   0.000


                     ====================================
                        Begin CG opt. move =      2
                     ====================================

outcoor: Atomic coordinates (Ang):                          
   -0.72093644    4.52675345    0.00000000   1       1  N
   -2.51562241    4.60047170    0.00000000   2       2  Si
   -2.89995565    6.05137003    0.00000000   3       3  H
   -3.68240658    2.74615481    0.00000000   2       4  Si
   -5.96352269    2.30732400    0.00000000   2       5  Si
   -6.59304144    3.29568140    0.94223917   3       6  H
   -6.05909586    0.89129749    0.51330190   3       7  H
   -6.58443519    2.40495669   -1.36785311   3       8  H
   -2.16984617    1.04702610    0.00000000   2       9  Si
   -2.16235475   -0.53076529    0.00000000   4      10  O
   -0.49278715    1.62640814    0.00000000   1      11  N
    0.17497643    0.79845563    0.00000000   3      12  H
    0.36705777    3.12746543    0.00000000   2      13  Si
    1.90352275    3.09257231    0.00000000   4      14  O
   -0.17843668    5.43408046    0.00000000   3      15  H

outcell: Unit cell vectors (Ang):
       16.818328    0.000000    0.000000
        0.000000   14.230200    0.000000
        0.000000    0.000000   10.224979

outcell: Cell vector modules (Ang)   :   16.818328   14.230200   10.224979
outcell: Cell angles (23,13,12) (deg):     90.0000     90.0000     90.0000
outcell: Cell volume (Ang**3)        :   2447.1255
<dSpData1D:S at geom step 2
  <sparsity:sparsity for geom step 2
    nrows_g=147 nrows=27 sparsity=.1811 nnzs=3914, refcount: 8>
  <dData1D:(new from dSpData1D) n=3914, refcount: 1>
refcount: 1>
new_DM -- step:     3
Re-using DM from previous geometries...
Number of DMs in history: 1
 DM extrapolation coefficients: 
1   1.00000
New DM after history re-use:
<dSpData2D:SpM extrapolated using coords
  <sparsity:sparsity for geom step 2
    nrows_g=147 nrows=27 sparsity=.1811 nnzs=3914, refcount: 10>
  <dData2D:(temp array for extrapolation) n=3914 m=8, refcount: 1>
refcount: 1>
     spin moment: S , {S} =    0.00000  -0.00000   0.00000  -0.00000
Note: For starting DM, Qtot, Tr[D*S] =         48.00000000         47.91630016
No. of atoms with KB's overlaping orbs in proc 0. Max # of overlaps:      15     125
New grid distribution:   1
           1       1:   96    1:   40    1:   20
           2       1:   96    1:   40   21:   40
           3       1:   96    1:   40   41:   60
           4       1:   96   41:   80    1:   20
           5       1:   96   41:   80   21:   40
           6       1:   96   41:   80   41:   60

InitMesh: MESH =   192 x   160 x   120 =     3686400
InitMesh: (bp) =    96 x    80 x    60 =      460800
InitMesh: Mesh cutoff (required, used) =   340.000   349.397 Ry
ExtMesh (bp) on 0 =   200 x   144 x   128 =     3686400
New grid distribution:   2
           1       1:   77    1:   13    1:   60
           2      78:   96   15:   80    1:   20
           3      78:   96    1:   14    1:   60
           4       1:   77   14:   80    1:   20
           5       1:   77   14:   80   21:   60
           6      78:   96   15:   80   21:   60
New grid distribution:   3
           1       1:   64    1:   15    1:   60
           2      65:   96   20:   80    1:   25
           3      65:   96    1:   19    1:   60
           4       1:   64   16:   80    1:   23
           5      65:   96   20:   80   26:   60
           6       1:   64   16:   80   24:   60
Setting up quadratic distribution...
ExtMesh (bp) on 0 =   181 x   117 x   168 =     3557736
PhiOnMesh: Number of (b)points on node 0 =                60060
PhiOnMesh: nlist on node 0 =               925817

        iscf     Eharris(eV)        E_KS(eV)     FreeEng(eV)     dDmax    Ef(eV) dHmax(eV)
   scf:    1    -2039.360149    -2038.941689    -2038.941689  0.084355 -4.771787  1.620631
     spin moment: S , {S} =    0.00000   0.00000  -0.00000  -0.00000
   scf:    2    -2035.840534    -2038.076155    -2038.076155  0.062796 -4.883881  5.205161
     spin moment: S , {S} =    0.00000   0.00000   0.00000   0.00000
   scf:    3    -2039.325484    -2039.087570    -2039.087570  0.044894 -4.659981  0.244818
     spin moment: S , {S} =    0.00000   0.00000   0.00000   0.00000
   scf:    4    -2039.092369    -2039.090565    -2039.090565  0.002586 -4.596805  0.089578
     spin moment: S , {S} =    0.00000   0.00000   0.00000   0.00000
   scf:    5    -2039.091125    -2039.090918    -2039.090918  0.001373 -4.577312  0.032885
     spin moment: S , {S} =    0.00000  -0.00000   0.00000   0.00000
   scf:    6    -2039.091054    -2039.090996    -2039.090996  0.000605 -4.576446  0.024695
     spin moment: S , {S} =    0.00000  -0.00000   0.00000   0.00000
   scf:    7    -2039.091059    -2039.091029    -2039.091029  0.000743 -4.572263  0.007651
     spin moment: S , {S} =    0.00000  -0.00000   0.00000   0.00000
   scf:    8    -2039.091036    -2039.091033    -2039.091033  0.000214 -4.571281  0.001350
     spin moment: S , {S} =    0.00000  -0.00000   0.00000   0.00000
   scf:    9    -2039.091034    -2039.091033    -2039.091033  0.000051 -4.571374  0.000678
     spin moment: S , {S} =    0.00000  -0.00000   0.00000   0.00000
   scf:   10    -2039.091033    -2039.091033    -2039.091033  0.000028 -4.571470  0.000254
     spin moment: S , {S} =    0.00000  -0.00000   0.00000   0.00000
   scf:   11    -2039.091033    -2039.091033    -2039.091033  0.000010 -4.571513  0.000121
     spin moment: S , {S} =    0.00000  -0.00000   0.00000   0.00000
   scf:   12    -2039.091033    -2039.091033    -2039.091033  0.000005 -4.571537  0.000052
     spin moment: S , {S} =    0.00000  -0.00000   0.00000   0.00000
   scf:   13    -2039.091033    -2039.091033    -2039.091033  0.000002 -4.571553  0.000017
     spin moment: S , {S} =    0.00000  -0.00000   0.00000   0.00000
   scf:   14    -2039.091033    -2039.091033    -2039.091033  0.000000 -4.571557  0.000010
[...]
PhiOnMesh: nlist on node 0 =               924876

        iscf     Eharris(eV)        E_KS(eV)     FreeEng(eV)     dDmax    Ef(eV) dHmax(eV)
   scf:    1    -2039.129740    -2039.125329    -2039.125329  0.001667 -4.425645  0.059243
     spin moment: S , {S} =    0.00000   0.00000   0.00000   0.00000
   scf:    2    -2039.123376    -2039.124822    -2039.124822  0.001714 -4.449101  0.113918
     spin moment: S , {S} =    0.00000   0.00000   0.00000  -0.00000
   scf:    3    -2039.125643    -2039.125480    -2039.125480  0.001190 -4.431961  0.010925
     spin moment: S , {S} =    0.00000   0.00000   0.00000   0.00000
   scf:    4    -2039.125486    -2039.125484    -2039.125484  0.000087 -4.432308  0.002985
     spin moment: S , {S} =    0.00000   0.00000   0.00000   0.00000
   scf:    5    -2039.125484    -2039.125484    -2039.125484  0.000026 -4.432376  0.000627
     spin moment: S , {S} =    0.00000   0.00000   0.00000   0.00000
   scf:    6    -2039.125484    -2039.125484    -2039.125484  0.000006 -4.432449  0.000337
     spin moment: S , {S} =    0.00000   0.00000   0.00000   0.00000
   scf:    7    -2039.125484    -2039.125484    -2039.125484  0.000009 -4.432506  0.000050
     spin moment: S , {S} =    0.00000   0.00000   0.00000   0.00000
   scf:    8    -2039.125484    -2039.125484    -2039.125484  0.000001 -4.432499  0.000019
     spin moment: S , {S} =    0.00000   0.00000   0.00000   0.00000
   scf:    9    -2039.125484    -2039.125484    -2039.125484  0.000001 -4.432499  0.000013
     spin moment: S , {S} =    0.00000   0.00000   0.00000   0.00000
   scf:   10    -2039.125484    -2039.125484    -2039.125484  0.000001 -4.432500  0.000004
     spin moment: S , {S} =    0.00000   0.00000   0.00000   0.00000
   scf:   11    -2039.125484    -2039.125484    -2039.125484  0.000000 -4.432500  0.000002
     spin moment: S , {S} =    0.00000   0.00000   0.00000   0.00000
   scf:   12    -2039.125484    -2039.125484    -2039.125484  0.000000 -4.432501  0.000001
     spin moment: S , {S} =    0.00000   0.00000   0.00000   0.00000

SCF Convergence by DM+H criterion
max |DM_out - DM_in|         :     0.0000000768
max |H_out - H_in|      (eV) :     0.0000006786
SCF cycle converged after 12 iterations

Using DM_out to compute the final energy and forces
No. of atoms with KB's overlaping orbs in proc 0. Max # of overlaps:      15     132

siesta: E_KS(eV) =            -2039.1255
     spin moment: S , {S} =    0.00000   0.00000   0.00000   0.00000

siesta: Atomic forces (eV/Ang):
     1    0.027259    0.050332    0.003799
     2    0.002647   -0.095369   -0.027708
     3   -0.065026   -0.140007    0.009719
     4   -0.027045   -0.044796    0.022040
     5    0.072744    0.004116    0.123748
     6   -0.017026   -0.022254    0.031593
     7    0.062357    0.010881   -0.019537
     8   -0.075645   -0.023639   -0.083946
     9    0.028098    0.076371    0.005791
    10   -0.160193   -0.164705   -0.000572
    11   -0.055888    0.013309   -0.000959
    12    0.000823    0.086670    0.000237
    13   -0.006817    0.124470   -0.000385
    14   -0.005579   -0.292880   -0.000328
    15   -0.009544    0.052489    0.004010
----------------------------------------
   Tot   -0.228836   -0.365011    0.067502
----------------------------------------
   Max    0.292880
   Res    0.075263    sqrt( Sum f_i^2 / 3N )
----------------------------------------
   Max    0.292880    constrained

Stress tensor Voigt[x,y,z,yz,xz,xy] (kbar):       -3.36       -1.67       -0.46       -0.03       -0.06       -2.18
(Free)E + p*V (eV/cell)    -2036.3290
Target enthalpy (eV/cell)    -2039.1255

mulliken: Atomic and Orbital Populations:

Species: N                   

Atom      Orb        Charge      Spin       Svec
----------------------------------------------------------------
    1  1 2s         1.38014   0.00000     -0.000  -0.000  -0.000
    1  2 2s         0.12635   0.00000      0.000   0.000   0.000
    1  3 2py        1.06109   0.00000     -0.000  -0.000  -0.000
    1  4 2pz        1.54726   0.00000     -0.000   0.000   0.000
    1  5 2px        1.01148   0.00000     -0.000  -0.000   0.000
    1  6 2py        0.19873   0.00000      0.000  -0.000   0.000
    1  7 2pz        0.00397   0.00000      0.000  -0.000   0.000
    1  8 2px        0.21905   0.00000      0.000  -0.000  -0.000
    1  9 3Pdxy      0.00657   0.00000     -0.000   0.000   0.000
    1 10 3Pdyz      0.00175   0.00000     -0.000  -0.000   0.000
    1 11 3Pdz2      0.00123   0.00000      0.000  -0.000   0.000
    1 12 3Pdxz      0.00539   0.00000      0.000  -0.000  -0.000
    1 13 3Pdx2-y2   0.00179   0.00000      0.000   0.000  -0.000
    1     Total     5.56480   0.00000     -0.000  -0.000   0.000

   11  1 2s         1.37690   0.00000     -0.000   0.000   0.000
   11  2 2s         0.12183   0.00000      0.000  -0.000  -0.000
   11  3 2py        1.01528   0.00000     -0.000  -0.000  -0.000
   11  4 2pz        1.52613   0.00000      0.000  -0.000   0.000
   11  5 2px        1.03301   0.00000     -0.000  -0.000  -0.000
   11  6 2py        0.22125   0.00000      0.000   0.000   0.000
   11  7 2pz        0.00464   0.00000      0.000  -0.000  -0.000
   11  8 2px        0.21647   0.00000      0.000   0.000   0.000
   11  9 3Pdxy      0.00191   0.00000      0.000   0.000   0.000
   11 10 3Pdyz      0.00224   0.00000      0.000  -0.000   0.000
   11 11 3Pdz2     -0.00175   0.00000     -0.000   0.000  -0.000
   11 12 3Pdxz      0.00301   0.00000      0.000  -0.000  -0.000
   11 13 3Pdx2-y2   0.00028   0.00000     -0.000   0.000  -0.000
   11     Total     5.52122   0.00000     -0.000  -0.000   0.000

----------------------------------------------------------------
Total              11.08601   0.00000     -0.000  -0.000   0.000


Species: Si                  

Atom      Orb        Charge      Spin       Svec
----------------------------------------------------------------
    2  1 3s         0.73379   0.00000     -0.000   0.000   0.000
    2  2 3s         0.35704   0.00000     -0.000  -0.000  -0.000
    2  3 3py        0.14988   0.00000     -0.000   0.000  -0.000
    2  4 3pz        0.62296   0.00000     -0.000  -0.000  -0.000
    2  5 3px        0.28228   0.00000      0.000  -0.000   0.000
    2  6 3py        0.51051   0.00000      0.000  -0.000   0.000
    2  7 3pz        0.15202   0.00000     -0.000   0.000  -0.000
    2  8 3px        0.28619   0.00000     -0.000   0.000   0.000
    2  9 3Pdxy      0.11151   0.00000     -0.000  -0.000  -0.000
    2 10 3Pdyz      0.04551   0.00000     -0.000  -0.000   0.000
    2 11 3Pdz2      0.00887   0.00000      0.000  -0.000   0.000
    2 12 3Pdxz      0.10433   0.00000     -0.000   0.000   0.000
    2 13 3Pdx2-y2   0.16020   0.00000      0.000   0.000   0.000
    2     Total     3.52508   0.00000     -0.000  -0.000   0.000

    4  1 3s         0.87883   0.00000      0.000   0.000  -0.000
    4  2 3s         0.30686   0.00000     -0.000  -0.000   0.000
    4  3 3py        0.44472   0.00000     -0.000   0.000  -0.000
    4  4 3pz        0.66541   0.00000      0.000   0.000   0.000
    4  5 3px        0.37799   0.00000      0.000   0.000  -0.000
    4  6 3py        0.29250   0.00000      0.000   0.000   0.000
    4  7 3pz        0.26441   0.00000      0.000  -0.000  -0.000
    4  8 3px        0.36616   0.00000     -0.000  -0.000  -0.000
    4  9 3Pdxy      0.13440   0.00000     -0.000   0.000   0.000
    4 10 3Pdyz      0.03198   0.00000     -0.000  -0.000  -0.000
    4 11 3Pdz2      0.01486   0.00000      0.000  -0.000  -0.000
    4 12 3Pdxz      0.05244   0.00000     -0.000   0.000   0.000
    4 13 3Pdx2-y2   0.08978   0.00000      0.000   0.000  -0.000
    4     Total     3.92034   0.00000      0.000   0.000  -0.000

    5  1 3s         0.53855   0.00000     -0.000   0.000   0.000
    5  2 3s         0.44517   0.00000      0.000  -0.000  -0.000
    5  3 3py        0.29336   0.00000     -0.000  -0.000  -0.000
    5  4 3pz        0.25250   0.00000      0.000   0.000  -0.000
    5  5 3px        0.46714   0.00000     -0.000  -0.000  -0.000
    5  6 3py        0.39634   0.00000      0.000   0.000   0.000
    5  7 3pz        0.42759   0.00000      0.000  -0.000  -0.000
    5  8 3px        0.26712   0.00000      0.000   0.000   0.000
    5  9 3Pdxy      0.04429   0.00000     -0.000  -0.000  -0.000
    5 10 3Pdyz      0.04352   0.00000     -0.000  -0.000  -0.000
    5 11 3Pdz2      0.05708   0.00000     -0.000   0.000  -0.000
    5 12 3Pdxz      0.10545   0.00000      0.000   0.000   0.000
    5 13 3Pdx2-y2   0.07054   0.00000      0.000   0.000   0.000
    5     Total     3.40865   0.00000     -0.000  -0.000  -0.000

    9  1 3s         0.63505   0.00000      0.000  -0.000   0.000
    9  2 3s         0.35703   0.00000     -0.000   0.000  -0.000
    9  3 3py        0.08401   0.00000      0.000   0.000   0.000
    9  4 3pz        0.41336   0.00000     -0.000   0.000  -0.000
    9  5 3px        0.36926   0.00000      0.000  -0.000   0.000
    9  6 3py        0.47763   0.00000      0.000  -0.000  -0.000
    9  7 3pz        0.18893   0.00000     -0.000   0.000  -0.000
    9  8 3px        0.26986   0.00000     -0.000   0.000  -0.000
    9  9 3Pdxy      0.34316   0.00000     -0.000  -0.000   0.000
    9 10 3Pdyz      0.18628   0.00000     -0.000  -0.000   0.000
    9 11 3Pdz2      0.01596   0.00000     -0.000   0.000  -0.000
    9 12 3Pdxz      0.07658   0.00000      0.000  -0.000  -0.000
    9 13 3Pdx2-y2   0.13821   0.00000     -0.000   0.000  -0.000
    9     Total     3.55531   0.00000      0.000  -0.000   0.000

   13  1 3s         0.44638   0.00000      0.000  -0.000   0.000
   13  2 3s         0.37314   0.00000     -0.000   0.000  -0.000
   13  3 3py        0.27696   0.00000      0.000   0.000   0.000
   13  4 3pz        0.40324   0.00000      0.000  -0.000   0.000
   13  5 3px        0.06392   0.00000      0.000  -0.000   0.000
   13  6 3py        0.27909   0.00000     -0.000  -0.000  -0.000
   13  7 3pz        0.20206   0.00000      0.000  -0.000   0.000
   13  8 3px        0.46730   0.00000      0.000   0.000  -0.000
   13  9 3Pdxy      0.36050   0.00000      0.000  -0.000  -0.000
   13 10 3Pdyz      0.09415   0.00000      0.000   0.000  -0.000
   13 11 3Pdz2      0.01621   0.00000     -0.000  -0.000  -0.000
   13 12 3Pdxz      0.18740   0.00000      0.000  -0.000   0.000
   13 13 3Pdx2-y2   0.13193   0.00000      0.000  -0.000  -0.000
   13     Total     3.30230   0.00000      0.000  -0.000   0.000

----------------------------------------------------------------
Total              28.79769   0.00000      0.000  -0.000   0.000


Species: H                   

Atom      Orb        Charge      Spin       Svec
----------------------------------------------------------------
    3  1 1s         1.04773   0.00000      0.000  -0.000  -0.000
    3  2 1s         0.08219   0.00000     -0.000   0.000   0.000
    3  3 2Ppy       0.03669   0.00000      0.000  -0.000  -0.000
    3  4 2Ppz       0.01847   0.00000     -0.000   0.000  -0.000
    3  5 2Ppx       0.00940   0.00000     -0.000   0.000   0.000
    3     Total     1.19449   0.00000      0.000  -0.000  -0.000

    6  1 1s         1.07072   0.00000      0.000   0.000   0.000
    6  2 1s         0.08020   0.00000     -0.000  -0.000  -0.000
    6  3 2Ppy       0.01945   0.00000      0.000   0.000   0.000
    6  4 2Ppz       0.02106   0.00000      0.000   0.000  -0.000
    6  5 2Ppx       0.01600   0.00000      0.000   0.000   0.000
    6     Total     1.20743   0.00000      0.000   0.000   0.000

    7  1 1s         1.05075   0.00000      0.000  -0.000  -0.000
    7  2 1s         0.08429   0.00000     -0.000   0.000   0.000
    7  3 2Ppy       0.02717   0.00000      0.000  -0.000  -0.000
    7  4 2Ppz       0.01801   0.00000      0.000   0.000  -0.000
    7  5 2Ppx       0.00975   0.00000      0.000   0.000  -0.000
    7     Total     1.18997   0.00000      0.000  -0.000  -0.000

    8  1 1s         1.05888   0.00000     -0.000  -0.000   0.000
    8  2 1s         0.08392   0.00000      0.000   0.000  -0.000
    8  3 2Ppy       0.01604   0.00000      0.000   0.000   0.000
    8  4 2Ppz       0.02531   0.00000     -0.000  -0.000   0.000
    8  5 2Ppx       0.01350   0.00000      0.000   0.000   0.000
    8     Total     1.19763   0.00000     -0.000  -0.000   0.000

   12  1 1s         0.46484   0.00000      0.000  -0.000   0.000
   12  2 1s         0.18988   0.00000     -0.000   0.000  -0.000
   12  3 2Ppy       0.02486   0.00000     -0.000   0.000  -0.000
   12  4 2Ppz       0.02546   0.00000      0.000  -0.000  -0.000
   12  5 2Ppx       0.02517   0.00000      0.000   0.000  -0.000
   12     Total     0.73021   0.00000      0.000  -0.000  -0.000

   15  1 1s         0.48368   0.00000      0.000   0.000  -0.000
   15  2 1s         0.18975   0.00000      0.000  -0.000  -0.000
   15  3 2Ppy       0.02397   0.00000      0.000   0.000   0.000
   15  4 2Ppz       0.03486   0.00000      0.000   0.000   0.000
   15  5 2Ppx       0.02502   0.00000      0.000   0.000  -0.000
   15     Total     0.75729   0.00000      0.000   0.000  -0.000

----------------------------------------------------------------
Total              35.07471   0.00000      0.000  -0.000   0.000


Species: O                   

Atom      Orb        Charge      Spin       Svec
----------------------------------------------------------------
   10  1 2s         1.73871   0.00000      0.000  -0.000   0.000
   10  2 2s         0.07129   0.00000     -0.000   0.000  -0.000
   10  3 2py        1.43866   0.00000     -0.000   0.000   0.000
   10  4 2pz        1.51507   0.00000      0.000   0.000  -0.000
   10  5 2px        1.61987   0.00000     -0.000   0.000  -0.000
   10  6 2py        0.04516   0.00000      0.000  -0.000  -0.000
   10  7 2pz        0.00016   0.00000     -0.000  -0.000  -0.000
   10  8 2px        0.00802   0.00000      0.000   0.000   0.000
   10  9 3Pdxy      0.00727   0.00000      0.000  -0.000   0.000
   10 10 3Pdyz      0.01046   0.00000     -0.000   0.000   0.000
   10 11 3Pdz2      0.00128   0.00000     -0.000  -0.000   0.000
   10 12 3Pdxz     -0.00007   0.00000      0.000   0.000  -0.000
   10 13 3Pdx2-y2   0.00724   0.00000      0.000   0.000  -0.000
   10     Total     6.46311   0.00000      0.000   0.000  -0.000

   14  1 2s         1.73414   0.00000     -0.000   0.000  -0.000
   14  2 2s         0.07430   0.00000      0.000  -0.000   0.000
   14  3 2py        1.58775   0.00000     -0.000   0.000   0.000
   14  4 2pz        1.53396   0.00000     -0.000   0.000  -0.000
   14  5 2px        1.42330   0.00000     -0.000  -0.000  -0.000
   14  6 2py        0.02603   0.00000      0.000  -0.000  -0.000
   14  7 2pz        0.00469   0.00000      0.000   0.000   0.000
   14  8 2px        0.05004   0.00000      0.000   0.000   0.000
   14  9 3Pdxy      0.00803   0.00000     -0.000   0.000  -0.000
   14 10 3Pdyz     -0.00008   0.00000     -0.000   0.000   0.000
   14 11 3Pdz2      0.00133   0.00000     -0.000   0.000   0.000
   14 12 3Pdxz      0.01094   0.00000     -0.000  -0.000   0.000
   14 13 3Pdx2-y2   0.00775   0.00000     -0.000   0.000   0.000
   14     Total     6.46219   0.00000     -0.000   0.000  -0.000

----------------------------------------------------------------
Total              48.00000   0.00000      0.000   0.000   0.000


                     ====================================
                        Begin CG opt. move =     60
                     ====================================

outcoor: Atomic coordinates (Ang):                          
   -0.81957741    4.58036289    0.00000000   1       1  N
   -2.62103842    4.62900519    0.00000000   2       2  Si
   -3.03252831    6.08233517    0.00000000   3       3  H
   -3.76736087    2.76154193    0.00000000   2       4  Si
   -6.05089721    2.31071611    0.00000000   2       5  Si
   -6.81687664    3.22886897    0.92032712   3       6  H
   -6.04996958    0.88817041    0.50928557   3       7  H
   -6.59186798    2.39966691   -1.40253255   3       8  H
   -2.23985038    1.04750373    0.00000000   2       9  Si
   -2.10574058   -0.53393277    0.00000000   4      10  O
   -0.59366502    1.68916737    0.00000000   1      11  N
    0.08016727    0.87622077    0.00000000   3      12  H
    0.28130301    3.18017028    0.00000000   2      13  Si
    1.84491713    3.02969128    0.00000000   4      14  O
   -0.34758697    5.52098365    0.00000000   3      15  H

outcell: Unit cell vectors (Ang):
       16.818328    0.000000    0.000000
        0.000000   14.230200    0.000000
        0.000000    0.000000   10.224979

outcell: Cell vector modules (Ang)   :   16.818328   14.230200   10.224979
outcell: Cell angles (23,13,12) (deg):     90.0000     90.0000     90.0000
outcell: Cell volume (Ang**3)        :   2447.1255
<dSpData1D:S at geom step 60
  <sparsity:sparsity for geom step 60
    nrows_g=147 nrows=27 sparsity=.1811 nnzs=3914, refcount: 8>
  <dData1D:(new from dSpData1D) n=3914, refcount: 1>
refcount: 1>
new_DM -- step:    61
Re-using DM from previous geometries...
Number of DMs in history: 1
 DM extrapolation coefficients: 
1   1.00000
New DM after history re-use:
<dSpData2D:SpM extrapolated using coords
  <sparsity:sparsity for geom step 60
    nrows_g=147 nrows=27 sparsity=.1811 nnzs=3914, refcount: 10>
  <dData2D:(temp array for extrapolation) n=3914 m=8, refcount: 1>
refcount: 1>
     spin moment: S , {S} =    0.00000  -0.00000  -0.00000  -0.00000
No. of atoms with KB's overlaping orbs in proc 0. Max # of overlaps:      15     132
New grid distribution:   1
           1       1:   96    1:   40    1:   20
           2       1:   96    1:   40   21:   40
           3       1:   96    1:   40   41:   60
           4       1:   96   41:   80    1:   20
           5       1:   96   41:   80   21:   40
           6       1:   96   41:   80   41:   60

InitMesh: MESH =   192 x   160 x   120 =     3686400
InitMesh: (bp) =    96 x    80 x    60 =      460800
InitMesh: Mesh cutoff (required, used) =   340.000   349.397 Ry
ExtMesh (bp) on 0 =   200 x   144 x   128 =     3686400
New grid distribution:   2
           1       1:   77    1:   13    1:   60
           2      78:   96   15:   80    1:   20
           3      78:   96    1:   14    1:   60
           4       1:   77   14:   80    1:   21
           5      78:   96   15:   80   21:   60
           6       1:   77   14:   80   22:   60
New grid distribution:   3
           1       1:   64    1:   15    1:   60
           2      65:   96   21:   80    1:   25
           3      65:   96    1:   20    1:   60
           4       1:   64   16:   80    1:   23
           5      65:   96   21:   80   26:   60
           6       1:   64   16:   80   24:   60
Setting up quadratic distribution...
ExtMesh (bp) on 0 =   181 x   117 x   168 =     3557736
PhiOnMesh: Number of (b)points on node 0 =                60060
PhiOnMesh: nlist on node 0 =               924468

        iscf     Eharris(eV)        E_KS(eV)     FreeEng(eV)     dDmax    Ef(eV) dHmax(eV)
   scf:    1    -2039.131093    -2039.124997    -2039.124997  0.002725 -4.324587  0.096037
     spin moment: S , {S} =    0.00000   0.00000   0.00000   0.00000
   scf:    2    -2039.119817    -2039.123647    -2039.123647  0.002714 -4.363706  0.194045
     spin moment: S , {S} =    0.00000  -0.00000   0.00000   0.00000
   scf:    3    -2039.125819    -2039.125389    -2039.125389  0.001837 -4.335029  0.017818
     spin moment: S , {S} =    0.00000  -0.00000   0.00000   0.00000
   scf:    4    -2039.125407    -2039.125400    -2039.125400  0.000138 -4.335599  0.005091
     spin moment: S , {S} =    0.00000  -0.00000   0.00000   0.00000
   scf:    5    -2039.125401    -2039.125400    -2039.125400  0.000043 -4.335705  0.001073
     spin moment: S , {S} =    0.00000  -0.00000   0.00000   0.00000
   scf:    6    -2039.125401    -2039.125401    -2039.125401  0.000009 -4.335807  0.000600
     spin moment: S , {S} =    0.00000  -0.00000   0.00000   0.00000
