Siesta Version  : v4.1.5-1-g384057250
Architecture    : gcc
Compiler version: GNU Fortran (Ubuntu 11.3.0-1ubuntu1~22.04) 11.3.0
Compiler flags  : mpifort -O2 -fPIC -ftree-vectorize -fallow-argument-mismatch
PP flags        : -DFC_HAVE_ABORT -DMPI -DSIESTA__FLOOK -DSIESTA__METIS -DSIESTA__MUMPS -DCDF -DNCDF -DNCDF_4 -DNCDF_PARALLEL -DSIESTA__MRRR -DSIESTA__ELPA
Libraries       : libncdf.a libfdict.a  -lflookall -ldl -lnetcdff -lnetcdf -lhdf5_hl -lhdf5 -lhdf5_fortran -lz -lscalapack-openmpi -lopenblas -lmetis -lzmumps -lcmumps -ldmumps -lmumps_common -lpord -lsmumps -lesmumps -lscotch -lscotcherr -fopenmp -lelpa
PARALLEL version
NetCDF support
NetCDF-4 support
NetCDF-4 MPI-IO support
METIS ordering support
Lua support

* Running on 4 nodes in parallel
>> Start of run:  22-MAY-2023  16:41:45

                           ***********************       
                           *  WELCOME TO SIESTA  *       
                           ***********************       

reinit: Reading from standard input
reinit: Dumped input in INPUT_TMP.57807
************************** Dump of input data file ****************************
SystemLabel      GC
NumberOfAtoms    29
NumberOfSpecies  4
%block ChemicalSpeciesLabel
    1    8  O
    2    7  N
    3   14  Si
    4    1  H
%endblock ChemicalSpeciesLabel
# Single point calculation
MD.TypeOfRun                CG
MD.Steps                    0
SCF.MustConverge            F # In case it does not. There can be 2 very close atoms
AtomicCoordinatesFormat NotScaledCartesianAng
%block AtomicCoordinatesAndAtomicSpecies
0.854927710    3.902811360    0.000000000       1
-3.151486600   0.823854130    0.000000000       2
1.928518680    1.174000900    0.000000000       2
0.979899500    -1.830275890   0.000000000       2
-2.159258930   -2.028004800   0.000000000       2
3.785319770    -1.112700660   0.000000000       2
-1.345933810   0.976250250    0.000000000       3
-0.599439880   -1.096077170   0.000000000       3
0.453182890    2.350510230    0.000000000       3
2.133302030    -0.576510800   0.000000000       3
-3.516065660   -0.842056510   0.000000000       3
2.824527830    1.754723110    0.000000000       4
-4.877551690   -1.469214660   0.000000000       4
3.994952020    -2.143204000   0.000000000       4
4.620903610    -0.483666060   0.000000000       4
-2.279085180   -3.081514090   0.000000000       4
4.518216168    4.799049985    -0.000000000      3
6.387175658    6.058693615    -0.000000000      3
5.928243278    2.057311765    -0.000000000      3
7.995835998    4.563902985    -0.000000000      3
4.577746118    3.114097525    -0.000000000      2
2.888216968    5.429110215    -0.000000000      2
7.572132148    2.848402175    -0.000000000      2
6.667539358    7.528916135    -0.000000000      4
9.491247378    4.782755525    -0.000000000      4
2.643757978    6.447576165    -0.000000000      4
2.061475788    4.772262085    -0.000000000      4
5.987519038    0.474869735    -0.000000000      1
8.343787738    2.121434815    -0.000000000      4
%endblock AtomicCoordinatesAndAtomicSpecies
%include ../../../Defaults.fdf
************************** End of input data file *****************************

reinit: -----------------------------------------------------------------------
reinit: System Name: 
reinit: -----------------------------------------------------------------------
reinit: System Label: GC
reinit: -----------------------------------------------------------------------

initatom: Reading input for the pseudopotentials and atomic orbitals ----------
Species number:   1 Atomic number:    8 Label: O
Species number:   2 Atomic number:    7 Label: N
Species number:   3 Atomic number:   14 Label: Si
Species number:   4 Atomic number:    1 Label: H

Ground state valence configuration:   2s02  2p04
Reading pseudopotential information in formatted form from O.psf

Pseudopotential generated from a relativistic atomic calculation

Valence configuration for pseudopotential generation:
2s( 2.00) rc: 0.45
2p( 4.00) rc: 0.92
3d( 0.00) rc: 2.24
4f( 0.00) rc: 0.25
Ground state valence configuration:   2s02  2p03
Reading pseudopotential information in formatted form from N.psf

Pseudopotential generated from a relativistic atomic calculation

Valence configuration for pseudopotential generation:
2s( 2.00) rc: 0.94
2p( 3.00) rc: 0.59
3d( 0.00) rc: 3.46
4f( 0.00) rc: 2.47
Ground state valence configuration:   3s02  3p02
Reading pseudopotential information in formatted form from Si.psf

Pseudopotential generated from a relativistic atomic calculation

Valence configuration for pseudopotential generation:
3s( 2.00) rc: 1.67
3p( 2.00) rc: 2.04
3d( 0.00) rc: 2.89
4f( 0.00) rc: 2.49
Ground state valence configuration:   1s01
Reading pseudopotential information in formatted form from H.psf

Pseudopotential generated from a relativistic atomic calculation

Valence configuration for pseudopotential generation:
1s( 1.00) rc: 0.01
2p( 0.00) rc: 0.60
3d( 0.00) rc: 1.99
4f( 0.00) rc: 2.49
For O, standard SIESTA heuristics set lmxkb to 3
 (one more than the basis l, including polarization orbitals).
Use PS.lmax or PS.KBprojectors blocks to override.
For N, standard SIESTA heuristics set lmxkb to 3
 (one more than the basis l, including polarization orbitals).
Use PS.lmax or PS.KBprojectors blocks to override.
For Si, standard SIESTA heuristics set lmxkb to 3
 (one more than the basis l, including polarization orbitals).
Use PS.lmax or PS.KBprojectors blocks to override.
For H, standard SIESTA heuristics set lmxkb to 2
 (one more than the basis l, including polarization orbitals).
Use PS.lmax or PS.KBprojectors blocks to override.

<basis_specs>
===============================================================================
O                    Z=   8    Mass=  16.000        Charge= 0.17977+309
Lmxo=1 Lmxkb= 3    BasisType=split      Semic=F
L=0  Nsemic=0  Cnfigmx=2
          i=1  nzeta=2  polorb=0  (2s)
            splnorm:   0.28000    
               vcte:    0.0000    
               rinn:    0.0000    
               qcoe:    0.0000    
               qyuk:    0.0000    
               qwid:   0.10000E-01
                rcs:    0.0000      0.0000    
            lambdas:    1.0000      1.0000    
L=1  Nsemic=0  Cnfigmx=2
          i=1  nzeta=2  polorb=1  (2p)
            splnorm:   0.28000    
               vcte:    0.0000    
               rinn:    0.0000    
               qcoe:    0.0000    
               qyuk:    0.0000    
               qwid:   0.10000E-01
                rcs:    0.0000      0.0000    
            lambdas:    1.0000      1.0000    
-------------------------------------------------------------------------------
L=0  Nkbl=1  erefs: 0.17977+309
L=1  Nkbl=1  erefs: 0.17977+309
L=2  Nkbl=1  erefs: 0.17977+309
L=3  Nkbl=1  erefs: 0.17977+309
===============================================================================
</basis_specs>

atom: Called for O                     (Z =   8)

read_vps: Pseudopotential generation method:
read_vps: ATM4.2.7  Troullier-Martins                       
Valence charge for ps generation:    6.00000

xc_check: Exchange-correlation functional:
xc_check: GGA Perdew, Burke & Ernzerhof 1996
V l=0 = -2*Zval/r beyond r=  1.1000
V l=1 = -2*Zval/r beyond r=  1.1000
V l=2 = -2*Zval/r beyond r=  2.2154
V l=3 = -2*Zval/r beyond r=  1.1000
All V_l potentials equal beyond r=  2.2154
This should be close to max(r_c) in ps generation
All pots = -2*Zval/r beyond r=  2.2154

VLOCAL1: 99.0% of the norm of Vloc inside      8.845 Ry
VLOCAL1: 99.9% of the norm of Vloc inside     20.157 Ry
atom: Maximum radius for 4*pi*r*r*local-pseudopot. charge    2.67231
atom: Maximum radius for r*vlocal+2*Zval:    2.32897
GHOST: No ghost state for L =  0
GHOST: No ghost state for L =  1
GHOST: No ghost state for L =  2
GHOST: No ghost state for L =  3

KBgen: Kleinman-Bylander projectors: 
   l= 0   rc=  2.243238   el= -1.759686   Ekb=**********   kbcos= -0.171774
   l= 1   rc=  2.328968   el= -0.663873   Ekb=-14.506792   kbcos= -0.519897
   l= 2   rc=  2.573941   el=  0.002031   Ekb= -1.137373   kbcos= -0.019581
   l= 3   rc=  2.606321   el=  0.003153   Ekb= -1.013546   kbcos= -0.003122

KBgen: Total number of Kleinman-Bylander projectors:   16
atom: -------------------------------------------------------------------------

atom: SANKEY-TYPE ORBITALS:
atom: Selected multiple-zeta basis: split     

SPLIT: Orbitals with angular momentum L= 0

SPLIT: Basis orbitals for state 2s

SPLIT: PAO cut-off radius determined from an
SPLIT: energy shift=  0.002000 Ry

   izeta = 1
                 lambda =    1.000000
                     rc =    4.243912
                 energy =   -1.758270
                kinetic =    3.286084
    potential(screened) =   -5.044353
       potential(ionic) =  -12.921184

   izeta = 2
                 rmatch =    2.187845
              splitnorm =    0.280000
                 energy =   -0.885018
                kinetic =    8.134434
    potential(screened) =   -9.019452
       potential(ionic) =  -17.710645

SPLIT: Orbitals with angular momentum L= 1

SPLIT: Basis orbitals for state 2p

SPLIT: PAO cut-off radius determined from an
SPLIT: energy shift=  0.002000 Ry

   izeta = 1
                 lambda =    1.000000
                     rc =    5.314825
                 energy =   -0.661986
                kinetic =    4.917472
    potential(screened) =   -5.579458
       potential(ionic) =  -13.236259

   izeta = 2
                 rmatch =    2.160663
              splitnorm =    0.280000
                 energy =   -0.068760
                kinetic =    9.183374
    potential(screened) =   -9.252135
       potential(ionic) =  -18.274251

POLgen: Perturbative polarization orbital with L=  2

POLgen: Polarization orbital for state 2p

   izeta = 1
                     rc =    5.314825
                 energy =    1.970580
                kinetic =    3.886128
    potential(screened) =   -1.915547
       potential(ionic) =   -7.749584
atom: Total number of Sankey-type orbitals: 13

atm_pop: Valence configuration (for local Pseudopot. screening):
 2s( 2.00)                                                            
 2p( 4.00)                                                            
Vna: chval, zval:    6.00000   6.00000

Vna:  Cut-off radius for the neutral-atom potential:   5.314825

atom: _________________________________________________________________________

<basis_specs>
===============================================================================
N                    Z=   7    Mass=  14.010        Charge= 0.17977+309
Lmxo=1 Lmxkb= 3    BasisType=split      Semic=F
L=0  Nsemic=0  Cnfigmx=2
          i=1  nzeta=2  polorb=0  (2s)
            splnorm:   0.28000    
               vcte:    0.0000    
               rinn:    0.0000    
               qcoe:    0.0000    
               qyuk:    0.0000    
               qwid:   0.10000E-01
                rcs:    0.0000      0.0000    
            lambdas:    1.0000      1.0000    
L=1  Nsemic=0  Cnfigmx=2
          i=1  nzeta=2  polorb=1  (2p)
            splnorm:   0.28000    
               vcte:    0.0000    
               rinn:    0.0000    
               qcoe:    0.0000    
               qyuk:    0.0000    
               qwid:   0.10000E-01
                rcs:    0.0000      0.0000    
            lambdas:    1.0000      1.0000    
-------------------------------------------------------------------------------
L=0  Nkbl=1  erefs: 0.17977+309
L=1  Nkbl=1  erefs: 0.17977+309
L=2  Nkbl=1  erefs: 0.17977+309
L=3  Nkbl=1  erefs: 0.17977+309
===============================================================================
</basis_specs>

atom: Called for N                     (Z =   7)

read_vps: Pseudopotential generation method:
read_vps: ATM4.2.7  Troullier-Martins                       
Valence charge for ps generation:    5.00000

xc_check: Exchange-correlation functional:
xc_check: GGA Perdew, Burke & Ernzerhof 1996
V l=0 = -2*Zval/r beyond r=  1.2889
V l=1 = -2*Zval/r beyond r=  1.2889
V l=2 = -2*Zval/r beyond r=  3.4178
V l=3 = -2*Zval/r beyond r=  2.4084
All V_l potentials equal beyond r=  3.3753
This should be close to max(r_c) in ps generation
All pots = -2*Zval/r beyond r=  3.4178

VLOCAL1: 99.0% of the norm of Vloc inside      3.810 Ry
VLOCAL1: 99.9% of the norm of Vloc inside      8.683 Ry
atom: Maximum radius for 4*pi*r*r*local-pseudopot. charge    4.02088
atom: Maximum radius for r*vlocal+2*Zval:    3.54838
GHOST: No ghost state for L =  0
GHOST: No ghost state for L =  1
GHOST: No ghost state for L =  2
GHOST: No ghost state for L =  3

KBgen: Kleinman-Bylander projectors: 
   l= 0   rc=  3.417763   el= -1.365098   Ekb= -4.433130   kbcos= -0.707855
   l= 1   rc=  3.375302   el= -0.521201   Ekb=-13.264039   kbcos= -0.535594
   l= 2   rc=  3.872880   el=  0.001991   Ekb= -0.641094   kbcos= -0.062456
   l= 3   rc=  3.970931   el=  0.003093   Ekb= -0.474517   kbcos= -0.018236

KBgen: Total number of Kleinman-Bylander projectors:   16
atom: -------------------------------------------------------------------------

atom: SANKEY-TYPE ORBITALS:
atom: Selected multiple-zeta basis: split     

SPLIT: Orbitals with angular momentum L= 0

SPLIT: Basis orbitals for state 2s

SPLIT: PAO cut-off radius determined from an
SPLIT: energy shift=  0.002000 Ry

   izeta = 1
                 lambda =    1.000000
                     rc =    4.730425
                 energy =   -1.363399
                kinetic =    1.245246
    potential(screened) =   -2.608645
       potential(ionic) =   -8.121105

   izeta = 2
                 rmatch =    2.531849
              splitnorm =    0.280000
                 energy =   -0.959908
                kinetic =    2.409435
    potential(screened) =   -3.369343
       potential(ionic) =   -9.427975

SPLIT: Orbitals with angular momentum L= 1

SPLIT: Basis orbitals for state 2p

SPLIT: PAO cut-off radius determined from an
SPLIT: energy shift=  0.002000 Ry

   izeta = 1
                 lambda =    1.000000
                     rc =    5.924108
                 energy =   -0.519262
                kinetic =    3.672940
    potential(screened) =   -4.192202
       potential(ionic) =   -9.518354

   izeta = 2
                 rmatch =    2.531849
              splitnorm =    0.280000
                 energy =   -0.104258
                kinetic =    6.807538
    potential(screened) =   -6.911796
       potential(ionic) =  -13.149920

POLgen: Perturbative polarization orbital with L=  2

POLgen: Polarization orbital for state 2p

   izeta = 1
                     rc =    5.924108
                 energy =    1.427508
                kinetic =    2.872379
    potential(screened) =   -1.444871
       potential(ionic) =   -5.563644
atom: Total number of Sankey-type orbitals: 13

atm_pop: Valence configuration (for local Pseudopot. screening):
 2s( 2.00)                                                            
 2p( 3.00)                                                            
Vna: chval, zval:    5.00000   5.00000

Vna:  Cut-off radius for the neutral-atom potential:   5.924108

atom: _________________________________________________________________________

<basis_specs>
===============================================================================
Si                   Z=  14    Mass=  28.090        Charge= 0.17977+309
Lmxo=1 Lmxkb= 3    BasisType=split      Semic=F
L=0  Nsemic=0  Cnfigmx=3
          i=1  nzeta=2  polorb=0  (3s)
            splnorm:   0.28000    
               vcte:    0.0000    
               rinn:    0.0000    
               qcoe:    0.0000    
               qyuk:    0.0000    
               qwid:   0.10000E-01
                rcs:    0.0000      0.0000    
            lambdas:    1.0000      1.0000    
L=1  Nsemic=0  Cnfigmx=3
          i=1  nzeta=2  polorb=1  (3p)
            splnorm:   0.28000    
               vcte:    0.0000    
               rinn:    0.0000    
               qcoe:    0.0000    
               qyuk:    0.0000    
               qwid:   0.10000E-01
                rcs:    0.0000      0.0000    
            lambdas:    1.0000      1.0000    
-------------------------------------------------------------------------------
L=0  Nkbl=1  erefs: 0.17977+309
L=1  Nkbl=1  erefs: 0.17977+309
L=2  Nkbl=1  erefs: 0.17977+309
L=3  Nkbl=1  erefs: 0.17977+309
===============================================================================
</basis_specs>

atom: Called for Si                    (Z =  14)

read_vps: Pseudopotential generation method:
read_vps: ATM4.2.7  Troullier-Martins                       
Valence charge for ps generation:    4.00000

xc_check: Exchange-correlation functional:
xc_check: GGA Perdew, Burke & Ernzerhof 1996
V l=0 = -2*Zval/r beyond r=  2.7826
V l=1 = -2*Zval/r beyond r=  2.7826
V l=2 = -2*Zval/r beyond r=  2.9253
V l=3 = -2*Zval/r beyond r=  2.7826
All V_l potentials equal beyond r=  2.8530
This should be close to max(r_c) in ps generation
All pots = -2*Zval/r beyond r=  2.9253

VLOCAL1: 99.0% of the norm of Vloc inside      5.333 Ry
VLOCAL1: 99.9% of the norm of Vloc inside     12.154 Ry
atom: Maximum radius for 4*pi*r*r*local-pseudopot. charge    3.39869
atom: Maximum radius for r*vlocal+2*Zval:    2.96205
GHOST: No ghost state for L =  0
GHOST: No ghost state for L =  1
GHOST: No ghost state for L =  2
GHOST: No ghost state for L =  3

KBgen: Kleinman-Bylander projectors: 
   l= 0   rc=  3.075247   el= -0.794092   Ekb=  5.879390   kbcos=  0.167461
   l= 1   rc=  3.153101   el= -0.300068   Ekb=  2.642817   kbcos=  0.058301
   l= 2   rc=  3.273594   el=  0.001958   Ekb= -1.185135   kbcos= -0.104411
   l= 3   rc=  3.232927   el=  0.003046   Ekb= -0.497174   kbcos= -0.015889

KBgen: Total number of Kleinman-Bylander projectors:   16
atom: -------------------------------------------------------------------------

atom: SANKEY-TYPE ORBITALS:
atom: Selected multiple-zeta basis: split     

SPLIT: Orbitals with angular momentum L= 0

SPLIT: Basis orbitals for state 3s

SPLIT: PAO cut-off radius determined from an
SPLIT: energy shift=  0.002000 Ry

   izeta = 1
                 lambda =    1.000000
                     rc =    6.429618
                 energy =   -0.792283
                kinetic =    0.525293
    potential(screened) =   -1.317576
       potential(ionic) =   -3.744923

   izeta = 2
                 rmatch =    3.998416
              splitnorm =    0.280000
                 energy =   -0.583081
                kinetic =    1.069570
    potential(screened) =   -1.652651
       potential(ionic) =   -4.235185

SPLIT: Orbitals with angular momentum L= 1

SPLIT: Basis orbitals for state 3p

SPLIT: PAO cut-off radius determined from an
SPLIT: energy shift=  0.002000 Ry

   izeta = 1
                 lambda =    1.000000
                     rc =    8.464845
                 energy =   -0.298236
                kinetic =    0.785360
    potential(screened) =   -1.083596
       potential(ionic) =   -3.273779

   izeta = 2
                 rmatch =    4.587816
              splitnorm =    0.280000
                 energy =   -0.131871
                kinetic =    1.403687
    potential(screened) =   -1.535557
       potential(ionic) =   -4.015310

POLgen: Perturbative polarization orbital with L=  2

POLgen: Polarization orbital for state 3p

   izeta = 1
                     rc =    8.464845
                 energy =    0.321949
                kinetic =    1.055677
    potential(screened) =   -0.733728
       potential(ionic) =   -2.672950
atom: Total number of Sankey-type orbitals: 13

atm_pop: Valence configuration (for local Pseudopot. screening):
 3s( 2.00)                                                            
 3p( 2.00)                                                            
Vna: chval, zval:    4.00000   4.00000

Vna:  Cut-off radius for the neutral-atom potential:   8.464845

atom: _________________________________________________________________________

<basis_specs>
===============================================================================
H                    Z=   1    Mass=  1.0100        Charge= 0.17977+309
Lmxo=0 Lmxkb= 2    BasisType=split      Semic=F
L=0  Nsemic=0  Cnfigmx=1
          i=1  nzeta=2  polorb=1  (1s)
            splnorm:   0.62000    
               vcte:    0.0000    
               rinn:    0.0000    
               qcoe:    0.0000    
               qyuk:    0.0000    
               qwid:   0.10000E-01
                rcs:    0.0000      0.0000    
            lambdas:    1.0000      1.0000    
-------------------------------------------------------------------------------
L=0  Nkbl=1  erefs: 0.17977+309
L=1  Nkbl=1  erefs: 0.17977+309
L=2  Nkbl=1  erefs: 0.17977+309
===============================================================================
</basis_specs>

atom: Called for H                     (Z =   1)

read_vps: Pseudopotential generation method:
read_vps: ATM4.2.7  Troullier-Martins                       
Valence charge for ps generation:    1.00000

xc_check: Exchange-correlation functional:
xc_check: GGA Perdew, Burke & Ernzerhof 1996
V l=0 = -2*Zval/r beyond r=  0.0098
V l=1 = -2*Zval/r beyond r=  0.5817
V l=2 = -2*Zval/r beyond r=  1.9372
All V_l potentials equal beyond r=  1.9372
This should be close to max(r_c) in ps generation
All pots = -2*Zval/r beyond r=  1.9372

VLOCAL1: 99.0% of the norm of Vloc inside     11.567 Ry
VLOCAL1: 99.9% of the norm of Vloc inside     26.362 Ry
atom: Maximum radius for 4*pi*r*r*local-pseudopot. charge    2.25106
atom: Maximum radius for r*vlocal+2*Zval:    1.91306
GHOST: No ghost state for L =  0
GHOST: No ghost state for L =  1
GHOST: No ghost state for L =  2

KBgen: Kleinman-Bylander projectors: 
   l= 0   rc=  2.036604   el= -0.477180   Ekb= -6.081590   kbcos= -0.277285
   l= 1   rc=  2.195416   el=  0.001076   Ekb= -0.926943   kbcos= -0.034643
   l= 2   rc=  2.251056   el=  0.002010   Ekb= -0.130941   kbcos= -0.009788

KBgen: Total number of Kleinman-Bylander projectors:    9
atom: -------------------------------------------------------------------------

atom: SANKEY-TYPE ORBITALS:
atom: Selected multiple-zeta basis: split     

SPLIT: Orbitals with angular momentum L= 0

SPLIT: Basis orbitals for state 1s

SPLIT: PAO cut-off radius determined from an
SPLIT: energy shift=  0.002000 Ry

   izeta = 1
                 lambda =    1.000000
                     rc =    6.518340
                 energy =   -0.475305
                kinetic =    0.912139
    potential(screened) =   -1.387444
       potential(ionic) =   -1.907295

   izeta = 2
                 rmatch =    2.141150
              splitnorm =    0.620000
                 energy =    0.566467
                kinetic =    3.772856
    potential(screened) =   -3.206389
       potential(ionic) =   -3.759093

POLgen: Perturbative polarization orbital with L=  1

POLgen: Polarization orbital for state 1s

   izeta = 1
                     rc =    6.518340
                 energy =    0.533861
                kinetic =    1.121086
    potential(screened) =   -0.587225
       potential(ionic) =   -1.053027
atom: Total number of Sankey-type orbitals:  5

atm_pop: Valence configuration (for local Pseudopot. screening):
 1s( 1.00)                                                            
Vna: chval, zval:    1.00000   1.00000

Vna:  Cut-off radius for the neutral-atom potential:   6.518340

atom: _________________________________________________________________________

prinput: Basis input ----------------------------------------------------------

PAO.BasisType split     

%block ChemicalSpeciesLabel
    1    8 O                       # Species index, atomic number, species label
    2    7 N                       # Species index, atomic number, species label
    3   14 Si                      # Species index, atomic number, species label
    4    1 H                       # Species index, atomic number, species label
%endblock ChemicalSpeciesLabel

%block PAO.Basis                 # Define Basis set
O                     2                    # Species label, number of l-shells
 n=2   0   2                         # n, l, Nzeta 
   4.244      2.188   
   1.000      1.000   
 n=2   1   2 P   1                   # n, l, Nzeta, Polarization, NzetaPol
   5.315      2.161   
   1.000      1.000   
N                     2                    # Species label, number of l-shells
 n=2   0   2                         # n, l, Nzeta 
   4.730      2.532   
   1.000      1.000   
 n=2   1   2 P   1                   # n, l, Nzeta, Polarization, NzetaPol
   5.924      2.532   
   1.000      1.000   
Si                    2                    # Species label, number of l-shells
 n=3   0   2                         # n, l, Nzeta 
   6.430      3.998   
   1.000      1.000   
 n=3   1   2 P   1                   # n, l, Nzeta, Polarization, NzetaPol
   8.465      4.588   
   1.000      1.000   
H                     1                    # Species label, number of l-shells
 n=1   0   2 P   1                   # n, l, Nzeta, Polarization, NzetaPol
   6.518      2.141   
   1.000      1.000   
%endblock PAO.Basis

prinput: ----------------------------------------------------------------------

Dumping basis to NetCDF file O.ion.nc
Dumping basis to NetCDF file N.ion.nc
Dumping basis to NetCDF file Si.ion.nc
Dumping basis to NetCDF file H.ion.nc
coor:   Atomic-coordinates input format  =     Cartesian coordinates
coor:                                          (in Angstroms)

siesta: Atomic coordinates (Bohr) and species
siesta:      1.61558   7.37525   0.00000  1        1
siesta:     -5.95545   1.55686   0.00000  2        2
siesta:      3.64437   2.21854   0.00000  2        3
siesta:      1.85174  -3.45872   0.00000  2        4
siesta:     -4.08041  -3.83238   0.00000  2        5
siesta:      7.15322  -2.10270   0.00000  2        6
siesta:     -2.54345   1.84485   0.00000  3        7
siesta:     -1.13278  -2.07129   0.00000  3        8
siesta:      0.85639   4.44182   0.00000  3        9
siesta:      4.03136  -1.08945   0.00000  3       10
siesta:     -6.64440  -1.59126   0.00000  3       11
siesta:      5.33759   3.31595   0.00000  4       12
siesta:     -9.21724  -2.77641   0.00000  4       13
siesta:      7.54937  -4.05007   0.00000  4       14
siesta:      8.73225  -0.91400   0.00000  4       15
siesta:     -4.30685  -5.82322   0.00000  4       16
siesta:      8.53819   9.06889  -0.00000  3       17
siesta:     12.07002  11.44928  -0.00000  3       18
siesta:     11.20276   3.88776  -0.00000  3       19
siesta:     15.10995   8.62453  -0.00000  3       20
siesta:      8.65069   5.88479  -0.00000  2       21
siesta:      5.45794  10.25954  -0.00000  2       22
siesta:     14.30926   5.38270  -0.00000  2       23
siesta:     12.59983  14.22760  -0.00000  4       24
siesta:     17.93587   9.03810  -0.00000  4       25
siesta:      4.99598  12.18416  -0.00000  4       26
siesta:      3.89563   9.01827  -0.00000  4       27
siesta:     11.31478   0.89737  -0.00000  1       28
siesta:     15.76748   4.00893  -0.00000  4       29

siesta: Automatic unit cell vectors (Ang):
siesta:   23.394262    0.000000    0.000000
siesta:    0.000000   19.260056    0.000000
siesta:    0.000000    0.000000    9.854683

siesta: System type = molecule  

initatomlists: Number of atoms, orbitals, and projectors:     29   297   394

siesta: ******************** Simulation parameters ****************************
siesta:
siesta: The following are some of the parameters of the simulation.
siesta: A complete list of the parameters used, including default values,
siesta: can be found in file out.fdf
siesta:
redata: Spin configuration                          = spin-orbit
redata: Number of spin components                   = 8
redata: Time-Reversal Symmetry                      = F
redata: Spin spiral                                 = F
############################################################
This spin-orbit implementation uses a local approximation.
From 4.2 and onwards the full non-local approximation is implemented
You are strongly advised to use >=4.2 versions!
############################################################
redata: Long output                                 =   F
redata: Number of Atomic Species                    =        4
redata: Charge density info will appear in .RHO file
redata: Write Mulliken Pop.                         = Atomic and Orbital charges
redata: Matel table size (NRTAB)                    =     1024
redata: Mesh Cutoff                                 =   340.0000 Ry
redata: Net charge of the system                    =     0.0000 |e|
redata: Min. number of SCF Iter                     =        1
redata: Max. number of SCF Iter                     =      200
redata: SCF mix quantity                            = Hamiltonian
redata: Mix DM or H after convergence               =   F
redata: Recompute H after scf cycle                 =   F
redata: Mix DM in first SCF step                    =   T
redata: Write Pulay info on disk                    =   F
redata: New DM Occupancy tolerance                  = 0.000000000001
redata: No kicks to SCF
redata: DM Mixing Weight for Kicks                  =     0.5000
redata: Require Harris convergence for SCF          =   F
redata: Harris energy tolerance for SCF             =     0.000100 eV
redata: Require DM convergence for SCF              =   T
redata: DM tolerance for SCF                        =     0.000008
redata: Require EDM convergence for SCF             =   F
redata: EDM tolerance for SCF                       =     0.001000 eV
redata: Require H convergence for SCF               =   T
redata: Hamiltonian tolerance for SCF               =     0.000001 eV
redata: Require (free) Energy convergence for SCF   =   F
redata: (free) Energy tolerance for SCF             =     0.000100 eV
redata: Using Saved Data (generic)                  =   F
redata: Use continuation files for DM               =   F
redata: Neglect nonoverlap interactions             =   F
redata: Method of Calculation                       = Diagonalization
redata: Electronic Temperature                      =   299.9978 K
redata: Fix the spin of the system                  =   F
redata: Dynamics option                             = Single-point calculation
mix.SCF: Pulay mixing                            = Pulay
mix.SCF:    Variant                              = stable
mix.SCF:    History steps                        = 6
mix.SCF:    Linear mixing weight                 =     0.250000
mix.SCF:    Mixing weight                        =     0.250000
mix.SCF:    SVD condition                        = 0.1000E-07
mix.SCF:    Restart steps                        = 24
mix.SCF:    Restart save steps                   = 3
mix.SCF: Spin-component mixing                   all
redata: Save all siesta data in one NC              =   F
redata: ***********************************************************************

%block SCF.Mixers
  Pulay
%endblock SCF.Mixers

%block SCF.Mixer.Pulay
  # Mixing method
  method pulay
  variant stable

  # Mixing options
  weight 0.2500
  weight.linear 0.2500
  history 6
  restart 24
  restart.save 3
%endblock SCF.Mixer.Pulay

DM_history_depth set to one: no extrapolation allowed by default for geometry relaxation
Size of DM history Fstack: 1
Total number of electrons:    98.000000
Total ionic charge:    98.000000

* ProcessorY, Blocksize:    2  24


* Orbital distribution balance (max,min):    81    72


Time-reversal symmetry not used.

siesta: k-grid: Number of k-points =     1
siesta: k-grid: Cutoff (effective) =     4.927 Ang
siesta: k-grid: Supercell and displacements
siesta: k-grid:    1   0   0      0.000
siesta: k-grid:    0   1   0      0.000
siesta: k-grid:    0   0   1      0.000

diag: Algorithm                                     = ELPA-1stage
diag: Parallel over k                               =   F
diag: Use parallel 2D distribution                  =   T
diag: Parallel block-size                           = 24
diag: Parallel distribution                         =     2 x     2
diag: Used triangular part                          = Lower
diag: Absolute tolerance                            =  0.100E-15
diag: Orthogonalization factor                      =  0.100E-05
diag: Memory factor                                 =  1.0000


ts: **************************************************************
ts: Save H and S matrices                           =    F
ts: Save DM and EDM matrices                        =    F
ts: Only save the overlap matrix S                  =    F
ts: **************************************************************

************************ Begin: TS CHECKS AND WARNINGS ************************
************************ End: TS CHECKS AND WARNINGS **************************


                     ====================================
                        Single-point calculation
                     ====================================

outcoor: Atomic coordinates (Ang):                          
    0.85492771    3.90281136    0.00000000   1       1  O
   -3.15148660    0.82385413    0.00000000   2       2  N
    1.92851868    1.17400090    0.00000000   2       3  N
    0.97989950   -1.83027589    0.00000000   2       4  N
   -2.15925893   -2.02800480    0.00000000   2       5  N
    3.78531977   -1.11270066    0.00000000   2       6  N
   -1.34593381    0.97625025    0.00000000   3       7  Si
   -0.59943988   -1.09607717    0.00000000   3       8  Si
    0.45318289    2.35051023    0.00000000   3       9  Si
    2.13330203   -0.57651080    0.00000000   3      10  Si
   -3.51606566   -0.84205651    0.00000000   3      11  Si
    2.82452783    1.75472311    0.00000000   4      12  H
   -4.87755169   -1.46921466    0.00000000   4      13  H
    3.99495202   -2.14320400    0.00000000   4      14  H
    4.62090361   -0.48366606    0.00000000   4      15  H
   -2.27908518   -3.08151409    0.00000000   4      16  H
    4.51821617    4.79904998    0.00000000   3      17  Si
    6.38717566    6.05869361    0.00000000   3      18  Si
    5.92824328    2.05731177    0.00000000   3      19  Si
    7.99583600    4.56390299    0.00000000   3      20  Si
    4.57774612    3.11409753    0.00000000   2      21  N
    2.88821697    5.42911021    0.00000000   2      22  N
    7.57213215    2.84840217    0.00000000   2      23  N
    6.66753936    7.52891614    0.00000000   4      24  H
    9.49124738    4.78275552    0.00000000   4      25  H
    2.64375798    6.44757617    0.00000000   4      26  H
    2.06147579    4.77226209    0.00000000   4      27  H
    5.98751904    0.47486974    0.00000000   1      28  O
    8.34378774    2.12143482    0.00000000   4      29  H

outcell: Unit cell vectors (Ang):
       23.394262    0.000000    0.000000
        0.000000   19.260056    0.000000
        0.000000    0.000000    9.854683

outcell: Cell vector modules (Ang)   :   23.394262   19.260056    9.854683
outcell: Cell angles (23,13,12) (deg):     90.0000     90.0000     90.0000
outcell: Cell volume (Ang**3)        :   4440.2719
<dSpData1D:S at geom step 0
  <sparsity:sparsity for geom step 0
    nrows_g=297 nrows=81 sparsity=.2326 nnzs=20518, refcount: 8>
  <dData1D:(new from dSpData1D) n=20518, refcount: 1>
refcount: 1>
new_DM -- step:     1
Initializing Density Matrix...
DM filled with atomic data:
<dSpData2D:DM initialized from atoms
  <sparsity:sparsity for geom step 0
    nrows_g=297 nrows=81 sparsity=.2326 nnzs=20518, refcount: 9>
  <dData2D:DM n=20518 m=8, refcount: 1>
refcount: 1>
     spin moment: S , {S} =   56.00000   0.00000   0.00000  56.00000
No. of atoms with KB's overlaping orbs in proc 0. Max # of overlaps:      29     206

Initializing spin-orbit part of the Hamiltonian
  Adding spin-orbit effects for O 
  Adding spin-orbit effects for N 
  Adding spin-orbit effects for Si
  Adding spin-orbit effects for H 


New grid distribution:   1
           1       1:  135    1:   54    1:   30
           2       1:  135    1:   54   31:   60
           3       1:  135   55:  108    1:   30
           4       1:  135   55:  108   31:   60

InitMesh: MESH =   270 x   216 x   120 =     6998400
InitMesh: (bp) =   135 x   108 x    60 =      874800
InitMesh: Mesh cutoff (required, used) =   340.000   347.611 Ry
ExtMesh (bp) on 0 =   239 x   158 x   142 =     5362204
New grid distribution:   2
           1      32:  135    1:   25    1:   60
           2       1:   31    1:   22    1:   60
           3      32:  135   26:  108    1:   60
           4       1:   31   23:  108    1:   60
New grid distribution:   3
           1      44:  135    1:   33    1:   60
           2       1:   43    1:   37    1:   60
           3      44:  135   34:  108    1:   60
           4       1:   43   38:  108    1:   60
Setting up quadratic distribution...
ExtMesh (bp) on 0 =   208 x   129 x   172 =     4615104
PhiOnMesh: Number of (b)points on node 0 =               156000
PhiOnMesh: nlist on node 0 =              2604173

stepf: Fermi-Dirac step function

siesta: Program's energy decomposition (eV):
siesta: Ebs     =      -604.715828
siesta: Eions   =      3585.165840
siesta: Ena     =       384.608927
siesta: Ekin    =      3372.702251
siesta: Enl     =     -3305.343450
siesta: Eso     =        -0.003419
siesta: Edftu   =         0.000000
siesta: DEna    =       155.928884
siesta: DUscf   =        79.226068
siesta: DUext   =         0.000000
siesta: Exc     =     -1205.384266
siesta: eta*DQ  =         0.000000
siesta: Emadel  =         0.000000
siesta: Emeta   =         0.000000
siesta: Emolmec =         0.000000
siesta: Ekinion =         0.000000
siesta: Eharris =     -4025.245772
siesta: Etot    =     -4103.430844
siesta: FreeEng =     -4103.432343

        iscf     Eharris(eV)        E_KS(eV)     FreeEng(eV)     dDmax    Ef(eV) dHmax(eV)
   scf:    1    -4025.245772    -4103.430844    -4103.432343  0.953174 -4.891849 19.978421
     spin moment: S , {S} =    2.00781   0.00000  -0.00000   2.00781
timer: Routine,Calls,Time,% = IterSCF        1      11.597  15.64
   scf:    2    -4151.274535    -4138.658901    -4138.664605  0.471454 -4.195484 11.220469
     spin moment: S , {S} =    1.95555  -0.00000  -0.00000   1.95555
   scf:    3    -4114.067481    -4136.325793    -4136.355927  0.437741 -4.275238 11.008872
     spin moment: S , {S} =    2.00297   0.00000   0.00000   2.00297
   scf:    4    -4150.980267    -4146.380665    -4146.380667  0.271699 -3.920979  5.720781
     spin moment: S , {S} =    0.00010  -0.00000   0.00000   0.00010
   scf:    5    -4147.593162    -4147.084051    -4147.084051  0.038222 -3.728636  4.345146
     spin moment: S , {S} =    0.00006  -0.00000   0.00000   0.00006
   scf:    6    -4147.874869    -4147.482347    -4147.482347  0.026898 -3.649388  2.135272
     spin moment: S , {S} =    0.00003   0.00000   0.00000   0.00003
   scf:    7    -4147.842861    -4147.664596    -4147.664596  0.021872 -3.706797  0.834037
     spin moment: S , {S} =    0.00001   0.00000  -0.00000   0.00001
   scf:    8    -4147.781313    -4147.721655    -4147.721655  0.012684 -3.717566  0.434928
     spin moment: S , {S} =    0.00000  -0.00000  -0.00000   0.00000
   scf:    9    -4147.760334    -4147.740453    -4147.740453  0.007187 -3.744693  0.276888
     spin moment: S , {S} =    0.00000  -0.00000  -0.00000   0.00000
   scf:   10    -4147.785109    -4147.759844    -4147.759844  0.014828 -3.799940  0.141022
     spin moment: S , {S} =    0.00000  -0.00000   0.00000  -0.00000
   scf:   11    -4147.764428    -4147.761968    -4147.761968  0.005429 -3.796582  0.055992
     spin moment: S , {S} =    0.00000  -0.00000   0.00000   0.00000
   scf:   12    -4147.763072    -4147.762506    -4147.762506  0.002357 -3.796538  0.034654
     spin moment: S , {S} =    0.00000   0.00000   0.00000   0.00000
   scf:   13    -4147.763306    -4147.762880    -4147.762880  0.002266 -3.794209  0.029212
     spin moment: S , {S} =    0.00000   0.00000   0.00000   0.00000
   scf:   14    -4147.763682    -4147.763229    -4147.763229  0.003273 -3.791807  0.018006
     spin moment: S , {S} =    0.00000  -0.00000   0.00000   0.00000
   scf:   15    -4147.763582    -4147.763374    -4147.763374  0.002576 -3.790902  0.010491
     spin moment: S , {S} =    0.00000  -0.00000   0.00000   0.00000
   scf:   16    -4147.763470    -4147.763412    -4147.763412  0.001489 -3.791020  0.005447
     spin moment: S , {S} =    0.00000   0.00000   0.00000   0.00000
   scf:   17    -4147.763429    -4147.763419    -4147.763419  0.000571 -3.791271  0.003120
     spin moment: S , {S} =    0.00000   0.00000   0.00000  -0.00000
   scf:   18    -4147.763427    -4147.763423    -4147.763423  0.000369 -3.791347  0.001407
     spin moment: S , {S} =    0.00000   0.00000   0.00000  -0.00000
   scf:   19    -4147.763426    -4147.763424    -4147.763424  0.000201 -3.791325  0.000721
     spin moment: S , {S} =    0.00000   0.00000   0.00000  -0.00000
   scf:   20    -4147.763425    -4147.763424    -4147.763424  0.000083 -3.791272  0.000429
     spin moment: S , {S} =    0.00000   0.00000   0.00000  -0.00000
   scf:   21    -4147.763425    -4147.763425    -4147.763425  0.000083 -3.791226  0.000174
     spin moment: S , {S} =    0.00000   0.00000   0.00000  -0.00000
   scf:   22    -4147.763425    -4147.763425    -4147.763425  0.000014 -3.791212  0.000083
     spin moment: S , {S} =    0.00000   0.00000   0.00000  -0.00000
   scf:   23    -4147.763425    -4147.763425    -4147.763425  0.000004 -3.791208  0.000057
     spin moment: S , {S} =    0.00000   0.00000   0.00000  -0.00000
   scf:   24    -4147.763425    -4147.763425    -4147.763425  0.000004 -3.791202  0.000043
     spin moment: S , {S} =    0.00000   0.00000   0.00000  -0.00000
mix: Pulay -- resetting history
   scf:   25    -4147.763425    -4147.763425    -4147.763425  0.000002 -3.791199  0.000032
     spin moment: S , {S} =    0.00000   0.00000   0.00000  -0.00000
   scf:   26    -4147.763425    -4147.763425    -4147.763425  0.000001 -3.791197  0.000023
     spin moment: S , {S} =    0.00000   0.00000   0.00000  -0.00000
   scf:   27    -4147.763425    -4147.763425    -4147.763425  0.000002 -3.791196  0.000014
     spin moment: S , {S} =    0.00000   0.00000   0.00000  -0.00000
   scf:   28    -4147.763425    -4147.763425    -4147.763425  0.000001 -3.791197  0.000008
     spin moment: S , {S} =    0.00000   0.00000   0.00000  -0.00000
   scf:   29    -4147.763425    -4147.763425    -4147.763425  0.000001 -3.791197  0.000005
     spin moment: S , {S} =    0.00000   0.00000   0.00000   0.00000
   scf:   30    -4147.763425    -4147.763425    -4147.763425  0.000001 -3.791197  0.000002
     spin moment: S , {S} =    0.00000   0.00000   0.00000   0.00000
   scf:   31    -4147.763425    -4147.763425    -4147.763425  0.000000 -3.791197  0.000001
     spin moment: S , {S} =    0.00000   0.00000   0.00000   0.00000
   scf:   32    -4147.763425    -4147.763425    -4147.763425  0.000000 -3.791197  0.000001
     spin moment: S , {S} =    0.00000   0.00000   0.00000  -0.00000

SCF Convergence by DM+H criterion
max |DM_out - DM_in|         :     0.0000001562
max |H_out - H_in|      (eV) :     0.0000006248
SCF cycle converged after 32 iterations

Using DM_out to compute the final energy and forces
No. of atoms with KB's overlaping orbs in proc 0. Max # of overlaps:      29     206

siesta: E_KS(eV) =            -4147.7634

siesta: E_KS - E_eggbox =     -4147.7634
     spin moment: S , {S} =    0.00000   0.00000   0.00000  -0.00000

siesta: Atomic forces (eV/Ang):
     1    1.344320    2.846030   -0.000000
     2   -0.047661   -0.009308    0.000000
     3   -0.732224    0.352828    0.000000
     4   -0.702760   -0.054697   -0.000000
     5   -0.048411    0.085979    0.000000
     6   -1.470444   -0.536155   -0.000000
     7   -0.056196    0.240782    0.000000
     8    0.418386   -0.226181   -0.000000
     9    0.237286   -1.189622   -0.000000
    10    1.057235   -0.207374    0.000000
    11   -0.008883    0.044795    0.000000
    12    0.302205    0.161583   -0.000000
    13    0.037118    0.106707   -0.000000
    14   -0.284011    0.005538    0.000000
    15    1.040735    0.751640    0.000000
    16    0.085762    0.140175   -0.000000
    17   -1.086584    1.014875   -0.000000
    18    0.221288   -0.189724   -0.000000
    19    0.212407    1.168043    0.000000
    20   -0.007674    0.387446    0.000000
    21    0.272698   -1.071726    0.000000
    22    2.360761    0.967035   -0.000000
    23   -0.251329   -0.531546   -0.000000
    24   -0.042974    0.049342    0.000000
    25   -0.081001   -0.039781   -0.000000
    26    0.139118    0.232910    0.000000
    27   -1.136051   -0.915444    0.000000
    28   -1.870829   -3.307848   -0.000000
    29    0.039292    0.099973   -0.000000
----------------------------------------
   Tot   -0.058421    0.376275   -0.000000
----------------------------------------
   Max    3.307848
   Res    0.734490    sqrt( Sum f_i^2 / 3N )
----------------------------------------
   Max    3.307848    constrained

Stress tensor Voigt[x,y,z,yz,xz,xy] (kbar):       -0.60       -1.01       -0.10       -0.00        0.00       -1.14
(Free)E + p*V (eV/cell)    -4146.1812
Target enthalpy (eV/cell)    -4147.7634

mulliken: Atomic and Orbital Populations:

Species: O                   

Atom      Orb        Charge      Spin       Svec
----------------------------------------------------------------
    1  1 2s         1.72591   0.00000      0.000  -0.000   0.000
    1  2 2s         0.06370   0.00000     -0.000  -0.000  -0.000
    1  3 2py        1.36936   0.00000     -0.000   0.000  -0.000
    1  4 2pz        1.61490   0.00000     -0.000  -0.000  -0.000
    1  5 2px        1.62667   0.00000      0.000   0.000   0.000
    1  6 2py        0.08198   0.00000      0.000   0.000  -0.000
    1  7 2pz       -0.01555   0.00000     -0.000  -0.000  -0.000
    1  8 2px        0.00301   0.00000     -0.000  -0.000  -0.000
    1  9 3Pdxy      0.01019   0.00000      0.000   0.000   0.000
    1 10 3Pdyz      0.00778   0.00000     -0.000   0.000  -0.000
    1 11 3Pdz2      0.00252   0.00000     -0.000  -0.000  -0.000
    1 12 3Pdxz      0.00016   0.00000      0.000   0.000   0.000
    1 13 3Pdx2-y2   0.00603   0.00000     -0.000   0.000   0.000
    1     Total     6.49664   0.00000      0.000   0.000  -0.000

   28  1 2s         1.73702   0.00000     -0.000  -0.000   0.000
   28  2 2s         0.06268   0.00000      0.000   0.000   0.000
   28  3 2py        1.37344   0.00000      0.000   0.000   0.000
   28  4 2pz        1.59392   0.00000      0.000   0.000   0.000
   28  5 2px        1.65274   0.00000      0.000  -0.000   0.000
   28  6 2py        0.07481   0.00000     -0.000  -0.000   0.000
   28  7 2pz       -0.01178   0.00000      0.000  -0.000   0.000
   28  8 2px       -0.00050   0.00000     -0.000  -0.000   0.000
   28  9 3Pdxy      0.00929   0.00000      0.000  -0.000  -0.000
   28 10 3Pdyz      0.00918   0.00000      0.000  -0.000   0.000
   28 11 3Pdz2      0.00181   0.00000     -0.000   0.000  -0.000
   28 12 3Pdxz     -0.00000   0.00000     -0.000   0.000  -0.000
   28 13 3Pdx2-y2   0.00723   0.00000     -0.000   0.000  -0.000
   28     Total     6.50985   0.00000      0.000   0.000   0.000

----------------------------------------------------------------
Total              13.00649   0.00000      0.000   0.000   0.000


Species: N                   

Atom      Orb        Charge      Spin       Svec
----------------------------------------------------------------
    2  1 2s         1.54714   0.00000      0.000   0.000  -0.000
    2  2 2s         0.08512   0.00000      0.000  -0.000   0.000
    2  3 2py        1.03090   0.00000      0.000  -0.000  -0.000
    2  4 2pz        1.22443   0.00000      0.000   0.000  -0.000
    2  5 2px        1.00860   0.00000      0.000  -0.000  -0.000
    2  6 2py        0.19266   0.00000      0.000  -0.000   0.000
    2  7 2pz        0.05447   0.00000     -0.000   0.000   0.000
    2  8 2px        0.19062   0.00000      0.000   0.000   0.000
    2  9 3Pdxy      0.00839   0.00000     -0.000   0.000  -0.000
    2 10 3Pdyz      0.01078   0.00000     -0.000  -0.000   0.000
    2 11 3Pdz2      0.00191   0.00000     -0.000  -0.000   0.000
    2 12 3Pdxz      0.00751   0.00000     -0.000   0.000   0.000
    2 13 3Pdx2-y2   0.00892   0.00000     -0.000   0.000  -0.000
    2     Total     5.37145   0.00000      0.000   0.000  -0.000

    3  1 2s         1.39162   0.00000     -0.000  -0.000   0.000
    3  2 2s         0.12084   0.00000      0.000   0.000  -0.000
    3  3 2py        0.93291   0.00000      0.000   0.000   0.000
    3  4 2pz        1.53327   0.00000     -0.000  -0.000   0.000
    3  5 2px        1.08752   0.00000      0.000  -0.000   0.000
    3  6 2py        0.25473   0.00000     -0.000  -0.000   0.000
    3  7 2pz        0.00679   0.00000      0.000   0.000  -0.000
    3  8 2px        0.17791   0.00000     -0.000   0.000  -0.000
    3  9 3Pdxy      0.00430   0.00000     -0.000   0.000   0.000
    3 10 3Pdyz      0.00395   0.00000      0.000   0.000  -0.000
    3 11 3Pdz2      0.00058   0.00000     -0.000   0.000  -0.000
    3 12 3Pdxz      0.00261   0.00000      0.000  -0.000  -0.000
    3 13 3Pdx2-y2   0.00270   0.00000     -0.000   0.000   0.000
    3     Total     5.51973   0.00000      0.000  -0.000   0.000

    4  1 2s         1.47076   0.00000      0.000   0.000   0.000
    4  2 2s         0.11703   0.00000     -0.000  -0.000   0.000
    4  3 2py        1.10191   0.00000      0.000   0.000   0.000
    4  4 2pz        1.28848   0.00000      0.000   0.000   0.000
    4  5 2px        0.84035   0.00000      0.000  -0.000   0.000
    4  6 2py        0.15735   0.00000     -0.000   0.000  -0.000
    4  7 2pz        0.05332   0.00000     -0.000   0.000   0.000
    4  8 2px        0.28694   0.00000     -0.000   0.000   0.000
    4  9 3Pdxy      0.00856   0.00000     -0.000  -0.000   0.000
    4 10 3Pdyz      0.01077   0.00000      0.000  -0.000  -0.000
    4 11 3Pdz2      0.00133   0.00000     -0.000   0.000   0.000
    4 12 3Pdxz      0.00484   0.00000     -0.000   0.000   0.000
    4 13 3Pdx2-y2   0.00851   0.00000     -0.000  -0.000  -0.000
    4     Total     5.35015   0.00000      0.000   0.000   0.000

    5  1 2s         1.37311   0.00000      0.000  -0.000  -0.000
    5  2 2s         0.12923   0.00000     -0.000   0.000   0.000
    5  3 2py        1.02741   0.00000     -0.000   0.000  -0.000
    5  4 2pz        1.50139   0.00000      0.000  -0.000  -0.000
    5  5 2px        1.05876   0.00000     -0.000  -0.000  -0.000
    5  6 2py        0.20314   0.00000     -0.000   0.000   0.000
    5  7 2pz        0.01336   0.00000     -0.000   0.000   0.000
    5  8 2px        0.20307   0.00000     -0.000   0.000   0.000
    5  9 3Pdxy      0.00365   0.00000      0.000   0.000   0.000
    5 10 3Pdyz      0.00253   0.00000     -0.000  -0.000   0.000
    5 11 3Pdz2      0.00139   0.00000     -0.000   0.000   0.000
    5 12 3Pdxz      0.00657   0.00000      0.000  -0.000   0.000
    5 13 3Pdx2-y2   0.00575   0.00000     -0.000  -0.000   0.000
    5     Total     5.52937   0.00000     -0.000  -0.000  -0.000

    6  1 2s         1.26414   0.00000     -0.000   0.000  -0.000
    6  2 2s         0.18086   0.00000      0.000  -0.000   0.000
    6  3 2py        1.06319   0.00000     -0.000   0.000  -0.000
    6  4 2pz        1.52366   0.00000      0.000  -0.000  -0.000
    6  5 2px        0.97618   0.00000     -0.000   0.000  -0.000
    6  6 2py        0.19979   0.00000      0.000  -0.000   0.000
    6  7 2pz        0.03336   0.00000     -0.000  -0.000   0.000
    6  8 2px        0.25817   0.00000      0.000  -0.000   0.000
    6  9 3Pdxy      0.00223   0.00000      0.000   0.000  -0.000
    6 10 3Pdyz      0.00002   0.00000      0.000  -0.000  -0.000
    6 11 3Pdz2      0.00144   0.00000      0.000   0.000   0.000
    6 12 3Pdxz      0.00345   0.00000     -0.000   0.000  -0.000
    6 13 3Pdx2-y2   0.00341   0.00000      0.000   0.000   0.000
    6     Total     5.50991   0.00000     -0.000   0.000  -0.000

   21  1 2s         1.40265   0.00000      0.000   0.000  -0.000
   21  2 2s         0.13283   0.00000     -0.000  -0.000   0.000
   21  3 2py        0.88412   0.00000      0.000   0.000  -0.000
   21  4 2pz        1.32592   0.00000     -0.000  -0.000  -0.000
   21  5 2px        1.16884   0.00000      0.000   0.000  -0.000
   21  6 2py        0.27781   0.00000     -0.000  -0.000  -0.000
   21  7 2pz        0.04282   0.00000     -0.000   0.000   0.000
   21  8 2px        0.15836   0.00000     -0.000  -0.000   0.000
   21  9 3Pdxy      0.00645   0.00000     -0.000   0.000   0.000
   21 10 3Pdyz      0.00466   0.00000      0.000  -0.000  -0.000
   21 11 3Pdz2     -0.00017   0.00000      0.000  -0.000   0.000
   21 12 3Pdxz      0.00573   0.00000     -0.000  -0.000   0.000
   21 13 3Pdx2-y2   0.00565   0.00000     -0.000  -0.000   0.000
   21     Total     5.41567   0.00000      0.000   0.000  -0.000

   22  1 2s         1.28963   0.00000      0.000   0.000   0.000
   22  2 2s         0.17148   0.00000     -0.000  -0.000  -0.000
   22  3 2py        1.06899   0.00000      0.000   0.000   0.000
   22  4 2pz        1.47852   0.00000     -0.000  -0.000  -0.000
   22  5 2px        1.01296   0.00000      0.000  -0.000  -0.000
   22  6 2py        0.20172   0.00000     -0.000   0.000  -0.000
   22  7 2pz        0.03303   0.00000      0.000   0.000  -0.000
   22  8 2px        0.23552   0.00000     -0.000  -0.000  -0.000
   22  9 3Pdxy      0.00395   0.00000     -0.000  -0.000  -0.000
   22 10 3Pdyz      0.00000   0.00000      0.000   0.000   0.000
   22 11 3Pdz2      0.00235   0.00000     -0.000  -0.000  -0.000
   22 12 3Pdxz      0.00373   0.00000      0.000  -0.000   0.000
   22 13 3Pdx2-y2   0.00371   0.00000      0.000  -0.000  -0.000
   22     Total     5.50560   0.00000      0.000  -0.000  -0.000

   23  1 2s         1.37390   0.00000     -0.000  -0.000  -0.000
   23  2 2s         0.12915   0.00000      0.000   0.000  -0.000
   23  3 2py        0.99551   0.00000     -0.000   0.000  -0.000
   23  4 2pz        1.53161   0.00000      0.000   0.000  -0.000
   23  5 2px        1.06287   0.00000     -0.000   0.000  -0.000
   23  6 2py        0.22436   0.00000     -0.000  -0.000   0.000
   23  7 2pz        0.00472   0.00000      0.000  -0.000  -0.000
   23  8 2px        0.19601   0.00000      0.000  -0.000  -0.000
   23  9 3Pdxy      0.00536   0.00000      0.000  -0.000  -0.000
   23 10 3Pdyz      0.00460   0.00000      0.000   0.000  -0.000
   23 11 3Pdz2      0.00072   0.00000      0.000   0.000   0.000
   23 12 3Pdxz      0.00228   0.00000      0.000  -0.000   0.000
   23 13 3Pdx2-y2   0.00125   0.00000     -0.000  -0.000  -0.000
   23     Total     5.53233   0.00000     -0.000   0.000  -0.000

----------------------------------------------------------------
Total              56.74070   0.00000      0.000  -0.000  -0.000


Species: Si                  

Atom      Orb        Charge      Spin       Svec
----------------------------------------------------------------
    7  1 3s         0.68476   0.00000     -0.000  -0.000   0.000
    7  2 3s         0.35989   0.00000      0.000   0.000   0.000
    7  3 3py        0.44965   0.00000     -0.000   0.000   0.000
    7  4 3pz        0.70662   0.00000     -0.000  -0.000   0.000
    7  5 3px        0.13287   0.00000     -0.000  -0.000   0.000
    7  6 3py        0.28642   0.00000     -0.000   0.000   0.000
    7  7 3pz        0.25976   0.00000      0.000   0.000   0.000
    7  8 3px        0.42368   0.00000      0.000   0.000   0.000
    7  9 3Pdxy      0.24324   0.00000      0.000  -0.000   0.000
    7 10 3Pdyz      0.02980   0.00000     -0.000   0.000  -0.000
    7 11 3Pdz2      0.01180   0.00000     -0.000  -0.000   0.000
    7 12 3Pdxz      0.13952   0.00000      0.000  -0.000  -0.000
    7 13 3Pdx2-y2   0.11452   0.00000      0.000  -0.000  -0.000
    7     Total     3.84255   0.00000     -0.000  -0.000   0.000

    8  1 3s         0.64670   0.00000     -0.000  -0.000   0.000
    8  2 3s         0.37157   0.00000      0.000  -0.000   0.000
    8  3 3py        0.39170   0.00000      0.000  -0.000   0.000
    8  4 3pz        0.50393   0.00000      0.000  -0.000   0.000
    8  5 3px       -0.02303   0.00000      0.000  -0.000   0.000
    8  6 3py        0.30165   0.00000     -0.000   0.000   0.000
    8  7 3pz        0.20583   0.00000      0.000   0.000   0.000
    8  8 3px        0.51972   0.00000     -0.000  -0.000  -0.000
    8  9 3Pdxy      0.26229   0.00000      0.000   0.000  -0.000
    8 10 3Pdyz      0.10959   0.00000      0.000   0.000   0.000
    8 11 3Pdz2      0.01266   0.00000      0.000   0.000   0.000
    8 12 3Pdxz      0.15935   0.00000      0.000   0.000   0.000
    8 13 3Pdx2-y2   0.19023   0.00000     -0.000   0.000   0.000
    8     Total     3.65219   0.00000      0.000  -0.000   0.000

    9  1 3s         0.62775   0.00000      0.000  -0.000  -0.000
    9  2 3s         0.35828   0.00000     -0.000   0.000  -0.000
    9  3 3py        0.12193   0.00000      0.000   0.000  -0.000
    9  4 3pz        0.47338   0.00000      0.000   0.000  -0.000
    9  5 3px        0.33579   0.00000     -0.000   0.000  -0.000
    9  6 3py        0.39663   0.00000     -0.000  -0.000  -0.000
    9  7 3pz        0.18732   0.00000     -0.000  -0.000  -0.000
    9  8 3px        0.28506   0.00000      0.000  -0.000  -0.000
    9  9 3Pdxy      0.27874   0.00000     -0.000  -0.000  -0.000
    9 10 3Pdyz      0.18833   0.00000      0.000  -0.000  -0.000
    9 11 3Pdz2      0.00991   0.00000      0.000   0.000  -0.000
    9 12 3Pdxz      0.09710   0.00000     -0.000   0.000  -0.000
    9 13 3Pdx2-y2   0.16070   0.00000     -0.000  -0.000  -0.000
    9     Total     3.52094   0.00000      0.000   0.000  -0.000

   10  1 3s         0.48705   0.00000      0.000   0.000  -0.000
   10  2 3s         0.37826   0.00000     -0.000  -0.000   0.000
   10  3 3py        0.23715   0.00000     -0.000  -0.000  -0.000
   10  4 3pz        0.41973   0.00000     -0.000  -0.000  -0.000
   10  5 3px        0.10515   0.00000     -0.000   0.000  -0.000
   10  6 3py        0.33271   0.00000      0.000   0.000   0.000
   10  7 3pz        0.21606   0.00000      0.000   0.000  -0.000
   10  8 3px        0.43203   0.00000      0.000  -0.000   0.000
   10  9 3Pdxy      0.17091   0.00000      0.000  -0.000  -0.000
   10 10 3Pdyz      0.14132   0.00000      0.000   0.000   0.000
   10 11 3Pdz2      0.01062   0.00000     -0.000   0.000  -0.000
   10 12 3Pdxz      0.17708   0.00000      0.000   0.000  -0.000
   10 13 3Pdx2-y2   0.31925   0.00000      0.000   0.000  -0.000
   10     Total     3.42732   0.00000     -0.000   0.000  -0.000

   11  1 3s         0.55946   0.00000      0.000   0.000   0.000
   11  2 3s         0.38185   0.00000     -0.000  -0.000   0.000
   11  3 3py        0.30622   0.00000      0.000  -0.000   0.000
   11  4 3pz        0.54095   0.00000     -0.000   0.000   0.000
   11  5 3px        0.14024   0.00000     -0.000   0.000   0.000
   11  6 3py        0.30244   0.00000      0.000   0.000   0.000
   11  7 3pz        0.17690   0.00000      0.000  -0.000   0.000
   11  8 3px        0.43169   0.00000      0.000  -0.000  -0.000
   11  9 3Pdxy      0.24455   0.00000     -0.000  -0.000   0.000
   11 10 3Pdyz      0.12534   0.00000     -0.000   0.000   0.000
   11 11 3Pdz2      0.00939   0.00000      0.000   0.000  -0.000
   11 12 3Pdxz      0.05293   0.00000      0.000   0.000   0.000
   11 13 3Pdx2-y2   0.18440   0.00000      0.000  -0.000   0.000
   11     Total     3.45638   0.00000     -0.000   0.000   0.000

   17  1 3s         0.64764   0.00000      0.000  -0.000   0.000
   17  2 3s         0.35647   0.00000     -0.000   0.000  -0.000
   17  3 3py        0.24170   0.00000     -0.000  -0.000  -0.000
   17  4 3pz        0.43180   0.00000      0.000   0.000  -0.000
   17  5 3px        0.22741   0.00000     -0.000  -0.000  -0.000
   17  6 3py        0.36279   0.00000      0.000   0.000   0.000
   17  7 3pz        0.21252   0.00000      0.000  -0.000  -0.000
   17  8 3px        0.38896   0.00000      0.000  -0.000   0.000
   17  9 3Pdxy      0.28389   0.00000     -0.000  -0.000  -0.000
   17 10 3Pdyz      0.13482   0.00000      0.000   0.000  -0.000
   17 11 3Pdz2      0.00855   0.00000      0.000  -0.000   0.000
   17 12 3Pdxz      0.15006   0.00000      0.000  -0.000   0.000
   17 13 3Pdx2-y2   0.17621   0.00000     -0.000  -0.000  -0.000
   17     Total     3.62281   0.00000      0.000  -0.000  -0.000

   18  1 3s         0.74482   0.00000     -0.000  -0.000   0.000
   18  2 3s         0.34125   0.00000      0.000   0.000   0.000
   18  3 3py        0.07472   0.00000      0.000   0.000   0.000
   18  4 3pz        0.81365   0.00000     -0.000   0.000   0.000
   18  5 3px        0.54910   0.00000     -0.000  -0.000   0.000
   18  6 3py        0.52197   0.00000     -0.000  -0.000   0.000
   18  7 3pz        0.19604   0.00000     -0.000   0.000   0.000
   18  8 3px        0.25412   0.00000      0.000   0.000   0.000
   18  9 3Pdxy      0.10698   0.00000      0.000   0.000  -0.000
   18 10 3Pdyz      0.02789   0.00000     -0.000  -0.000  -0.000
   18 11 3Pdz2      0.00900   0.00000     -0.000  -0.000  -0.000
   18 12 3Pdxz      0.03142   0.00000      0.000  -0.000   0.000
   18 13 3Pdx2-y2   0.10291   0.00000     -0.000  -0.000  -0.000
   18     Total     3.77386   0.00000     -0.000  -0.000   0.000

   19  1 3s         0.45939   0.00000     -0.000   0.000  -0.000
   19  2 3s         0.36246   0.00000      0.000  -0.000  -0.000
   19  3 3py        0.06724   0.00000     -0.000  -0.000   0.000
   19  4 3pz        0.40064   0.00000     -0.000  -0.000  -0.000
   19  5 3px        0.26250   0.00000      0.000   0.000  -0.000
   19  6 3py        0.46147   0.00000      0.000   0.000  -0.000
   19  7 3pz        0.19384   0.00000     -0.000   0.000  -0.000
   19  8 3px        0.29327   0.00000     -0.000  -0.000  -0.000
   19  9 3Pdxy      0.32978   0.00000     -0.000   0.000  -0.000
   19 10 3Pdyz      0.18708   0.00000     -0.000   0.000  -0.000
   19 11 3Pdz2      0.01151   0.00000     -0.000  -0.000  -0.000
   19 12 3Pdxz      0.09581   0.00000     -0.000   0.000   0.000
   19 13 3Pdx2-y2   0.22921   0.00000      0.000  -0.000   0.000
   19     Total     3.35420   0.00000     -0.000   0.000  -0.000

   20  1 3s         0.67772   0.00000     -0.000   0.000   0.000
   20  2 3s         0.37784   0.00000      0.000  -0.000   0.000
   20  3 3py        0.34418   0.00000     -0.000   0.000  -0.000
   20  4 3pz        0.59823   0.00000      0.000  -0.000  -0.000
   20  5 3px        0.14326   0.00000      0.000  -0.000   0.000
   20  6 3py        0.28371   0.00000      0.000  -0.000   0.000
   20  7 3pz        0.16134   0.00000      0.000   0.000   0.000
   20  8 3px        0.49774   0.00000     -0.000   0.000  -0.000
   20  9 3Pdxy      0.10219   0.00000     -0.000   0.000  -0.000
   20 10 3Pdyz      0.13189   0.00000      0.000  -0.000   0.000
   20 11 3Pdz2      0.00785   0.00000     -0.000   0.000  -0.000
   20 12 3Pdxz      0.02640   0.00000     -0.000  -0.000  -0.000
   20 13 3Pdx2-y2   0.17534   0.00000      0.000   0.000   0.000
   20     Total     3.52769   0.00000      0.000   0.000   0.000

----------------------------------------------------------------
Total              88.91864   0.00000      0.000  -0.000   0.000


Species: H                   

Atom      Orb        Charge      Spin       Svec
----------------------------------------------------------------
   12  1 1s         0.47703   0.00000     -0.000   0.000   0.000
   12  2 1s         0.18259   0.00000     -0.000  -0.000  -0.000
   12  3 2Ppy       0.04155   0.00000      0.000   0.000  -0.000
   12  4 2Ppz       0.03260   0.00000      0.000   0.000  -0.000
   12  5 2Ppx       0.04673   0.00000     -0.000  -0.000  -0.000
   12     Total     0.78050   0.00000     -0.000   0.000  -0.000

   13  1 1s         1.02131   0.00000     -0.000  -0.000  -0.000
   13  2 1s         0.09449   0.00000      0.000  -0.000   0.000
   13  3 2Ppy       0.01981   0.00000     -0.000  -0.000  -0.000
   13  4 2Ppz       0.02008   0.00000      0.000  -0.000   0.000
   13  5 2Ppx       0.03316   0.00000      0.000  -0.000   0.000
   13     Total     1.18884   0.00000     -0.000  -0.000  -0.000

   14  1 1s         0.48956   0.00000      0.000  -0.000  -0.000
   14  2 1s         0.19590   0.00000     -0.000   0.000   0.000
   14  3 2Ppy       0.02026   0.00000      0.000   0.000   0.000
   14  4 2Ppz       0.04923   0.00000     -0.000  -0.000   0.000
   14  5 2Ppx       0.02027   0.00000      0.000   0.000  -0.000
   14     Total     0.77522   0.00000      0.000  -0.000   0.000

   15  1 1s         0.42814   0.00000     -0.000  -0.000   0.000
   15  2 1s         0.19431   0.00000      0.000   0.000  -0.000
   15  3 2Ppy       0.03855   0.00000      0.000   0.000  -0.000
   15  4 2Ppz       0.04796   0.00000     -0.000   0.000   0.000
   15  5 2Ppx       0.08100   0.00000     -0.000  -0.000  -0.000
   15     Total     0.78995   0.00000     -0.000  -0.000   0.000

   16  1 1s         0.50621   0.00000      0.000  -0.000   0.000
   16  2 1s         0.18770   0.00000      0.000   0.000   0.000
   16  3 2Ppy       0.02999   0.00000     -0.000  -0.000   0.000
   16  4 2Ppz       0.03914   0.00000     -0.000   0.000  -0.000
   16  5 2Ppx       0.02305   0.00000     -0.000   0.000   0.000
   16     Total     0.78609   0.00000      0.000  -0.000   0.000

   24  1 1s         1.05728   0.00000     -0.000   0.000  -0.000
   24  2 1s         0.07570   0.00000      0.000  -0.000   0.000
   24  3 2Ppy       0.03166   0.00000      0.000   0.000   0.000
   24  4 2Ppz       0.03077   0.00000     -0.000   0.000  -0.000
   24  5 2Ppx       0.01778   0.00000      0.000   0.000  -0.000
   24     Total     1.21318   0.00000     -0.000   0.000  -0.000

   25  1 1s         1.04747   0.00000      0.000   0.000  -0.000
   25  2 1s         0.08410   0.00000      0.000   0.000  -0.000
   25  3 2Ppy       0.01168   0.00000     -0.000  -0.000  -0.000
   25  4 2Ppz       0.01840   0.00000      0.000  -0.000  -0.000
   25  5 2Ppx       0.03629   0.00000      0.000  -0.000   0.000
   25     Total     1.19795   0.00000      0.000   0.000  -0.000

   26  1 1s         0.49630   0.00000     -0.000   0.000   0.000
   26  2 1s         0.19550   0.00000      0.000  -0.000   0.000
   26  3 2Ppy       0.02181   0.00000      0.000  -0.000   0.000
   26  4 2Ppz       0.05095   0.00000      0.000   0.000  -0.000
   26  5 2Ppx       0.02009   0.00000     -0.000  -0.000  -0.000
   26     Total     0.78465   0.00000      0.000   0.000   0.000

   27  1 1s         0.39885   0.00000     -0.000  -0.000   0.000
   27  2 1s         0.19835   0.00000      0.000   0.000   0.000
   27  3 2Ppy       0.05321   0.00000     -0.000   0.000   0.000
   27  4 2Ppz       0.04971   0.00000      0.000   0.000   0.000
   27  5 2Ppx       0.09983   0.00000      0.000   0.000  -0.000
   27     Total     0.79996   0.00000     -0.000   0.000   0.000

   29  1 1s         0.48992   0.00000     -0.000   0.000   0.000
   29  2 1s         0.18789   0.00000      0.000   0.000  -0.000
   29  3 2Ppy       0.02514   0.00000      0.000   0.000   0.000
   29  4 2Ppz       0.03508   0.00000      0.000   0.000  -0.000
   29  5 2Ppx       0.02699   0.00000      0.000  -0.000   0.000
   29     Total     0.76502   0.00000     -0.000   0.000   0.000

----------------------------------------------------------------
Total              98.00000   0.00000      0.000   0.000  -0.000


siesta: Eigenvalues (eV):
ik =     1
  -22.9199  -22.9199  -22.6741  -22.6741  -21.3770  -21.3770  -21.3032  -21.3032  -20.9335  -20.9335
  -20.6497  -20.6497  -20.2287  -20.2287  -19.6608  -19.6608  -19.5534  -19.5534  -19.3761  -19.3761
  -14.7381  -14.7381  -13.8377  -13.8377  -13.2400  -13.2400  -13.1546  -13.1546  -12.8863  -12.8863
  -12.6579  -12.6579  -12.5910  -12.5910  -11.9902  -11.9902  -11.8921  -11.8921  -11.7366  -11.7366
  -11.0278  -11.0278  -10.7917  -10.7917  -10.6075  -10.6075  -10.3467  -10.3467  -10.1346  -10.1346
   -9.6969   -9.6969   -9.0348   -9.0348   -8.9763   -8.9763   -8.8783   -8.8783   -8.6456   -8.6456
   -8.5036   -8.5036   -8.4538   -8.4538   -8.3963   -8.3963   -7.9714   -7.9714   -7.9602   -7.9602
   -7.5504   -7.5504   -7.4267   -7.4267   -7.3474   -7.3474   -7.1669   -7.1669   -6.9350   -6.9350
   -6.7621   -6.7621   -6.6756   -6.6756   -6.5159   -6.5159   -6.4172   -6.4172   -6.1991   -6.1991
   -6.0467   -6.0467   -6.0001   -6.0001   -5.4931   -5.4931   -4.3786   -4.3786   -3.2032   -3.2032
   -2.4477   -2.4477   -2.2943   -2.2943   -2.2220   -2.2220   -1.9907   -1.9907   -1.8873   -1.8873
   -1.8397   -1.8397   -1.7156   -1.7156   -1.6561   -1.6561   -1.2703   -1.2703   -1.1407   -1.1407
   -1.1364   -1.1364   -0.5478   -0.5478   -0.4422   -0.4422   -0.4096   -0.4096    0.3460    0.3460
    0.3626    0.3626    0.5515    0.5515    0.7639    0.7639    0.8527    0.8527    1.2291    1.2291
    1.3604    1.3604    1.4395    1.4395    1.4576    1.4576    1.5308    1.5308    1.9695    1.9695
    2.1963    2.1963    2.5877    2.5877    2.6936    2.6936    2.7673    2.7673    2.9669    2.9669
    2.9846    2.9846    3.1855    3.1855    3.3398    3.3398    3.3507    3.3507    3.7401    3.7401
    3.7947    3.7947    4.0900    4.0900    4.1034    4.1034    4.1476    4.1476    4.3321    4.3321
    4.6072    4.6072    4.6152    4.6152    4.7318    4.7318    5.0856    5.0856    5.2680    5.2680
    5.2875    5.2875    5.5064    5.5064    5.5898    5.5898    5.6621    5.6621    5.8813    5.8813
    5.9919    5.9919    6.4064    6.4064    6.4513    6.4513    6.5765    6.5765    6.6640    6.6640
    6.7504    6.7504    6.9015    6.9015    6.9855    6.9855    7.1480    7.1480    7.1888    7.1888
    7.4447    7.4447    7.6174    7.6174    7.7815    7.7815    8.0256    8.0256    8.0672    8.0672
    8.1798    8.1798    8.4407    8.4407    8.5992    8.5992    8.6905    8.6905    8.7009    8.7009
    8.7751    8.7751    9.0697    9.0697    9.0766    9.0766    9.3281    9.3281    9.4201    9.4201
    9.6198    9.6198    9.8201    9.8201    9.8831    9.8831    9.9595    9.9595   10.1686   10.1686
   10.4313   10.4313   10.6564   10.6564   10.8150   10.8150   11.1726   11.1726   11.1895   11.1895
   11.4020   11.4020   11.6434   11.6434   12.3175   12.3175   12.3927   12.3927   12.4243   12.4243
   12.4499   12.4499   12.5636   12.5636   13.1653   13.1653   13.2565   13.2565   13.3739   13.3739
   13.6971   13.6971   13.7482   13.7482   14.0052   14.0052   14.1559   14.1559   14.2117   14.2117
   14.4258   14.4258   14.5336   14.5336   14.6574   14.6574   14.8236   14.8236   14.9881   14.9881
   15.4746   15.4746   16.2481   16.2481   16.6196   16.6196   16.7380   16.7380   16.7612   16.7612
   17.2760   17.2760   17.8424   17.8424   18.2115   18.2115   18.4752   18.4752   18.9765   18.9765
   19.6783   19.6783   20.1326   20.1326   20.2198   20.2198   20.6114   20.6114   20.9998   20.9998
   21.3447   21.3447   21.9917   21.9917   22.2006   22.2006   22.8116   22.8116   22.9236   22.9236
   23.6995   23.6995   23.8147   23.8147   24.1277   24.1277   24.5627   24.5627   25.0274   25.0274
   25.6297   25.6297   26.0936   26.0936   26.7759   26.7759   27.7723   27.7723   28.7170   28.7170
   29.2462   29.2462   29.7722   29.7722   29.9964   29.9964   30.2646   30.2646   30.6799   30.6799
   30.8577   30.8577   30.9518   30.9518   31.2866   31.2866   31.6658   31.6658   31.8468   31.8468
   32.6043   32.6043   33.5232   33.5232   33.7968   33.7968   33.9655   33.9655   34.2344   34.2344
   34.7348   34.7348   35.3797   35.3797   36.0038   36.0038   36.3049   36.3049   36.6662   36.6662
   37.0128   37.0128   37.0341   37.0341   37.1068   37.1068   37.3164   37.3164   38.4361   38.4361
   38.8475   38.8475   39.2005   39.2005   39.5764   39.5764   39.6134   39.6134   40.2149   40.2149
   40.4767   40.4767   40.8239   40.8239   41.7402   41.7402   41.7626   41.7626   41.9821   41.9821
   42.1298   42.1298   42.7042   42.7042   42.8090   42.8090   43.2189   43.2189   43.7661   43.7661
   44.1228   44.1228   44.3742   44.3742   44.5332   44.5332   44.7918   44.7918   45.1379   45.1379
   45.2135   45.2135   45.6382   45.6382   46.2336   46.2336   46.3551   46.3551   46.6949   46.6949
   46.9688   46.9688   47.8772   47.8772   48.4694   48.4694   49.4050   49.4050   49.7236   49.7236
   50.1164   50.1164   50.4118   50.4118   50.7999   50.7999   50.8752   50.8752   51.3909   51.3909
   51.7826   51.7826   52.4138   52.4138   52.5975   52.5975   54.2753   54.2753   54.3620   54.3620
   54.4804   54.4804   54.7912   54.7912   55.7812   55.7812   55.8957   55.8957   56.1198   56.1198
   56.2288   56.2288   57.2548   57.2548   58.1591   58.1591   58.4092   58.4092   59.2964   59.2964
   59.9875   59.9875   60.3997   60.3997   60.7716   60.7716   61.3439   61.3439   62.1437   62.1437
   62.3578   62.3578   62.9691   62.9691   63.8508   63.8508   64.3309   64.3309   66.3258   66.3258
   66.9835   66.9835   68.3209   68.3209   69.0042   69.0042   69.2880   69.2880   70.6392   70.6392
   71.2899   71.2899   71.4800   71.4800   74.2625   74.2625   75.5425   75.5425   87.6746   87.6746
   89.7651   89.7651   90.6225   90.6225   94.6027   94.6027   96.1215   96.1215   97.7104   97.7104
  101.0960  101.0960  102.3815  102.3815  103.5566  103.5566  104.2969  104.2969  106.8823  106.8823
  115.3906  115.3906  118.1101  118.1101  124.8880  124.8880  128.0125  128.0125  139.2053  139.2053
  149.6742  149.6742  149.8516  149.8516
siesta: Fermi energy =      -3.791197 eV

siesta: Program's energy decomposition (eV):
siesta: Ebs     =     -1135.481729
siesta: Eions   =      3585.165840
siesta: Ena     =       384.608927
siesta: Ekin    =      2915.296500
siesta: Enl     =     -2801.362017
siesta: Eso     =        -0.004310
siesta: Edftu   =         0.000000
siesta: DEna    =        48.389221
siesta: DUscf   =        13.779610
siesta: DUext   =         0.000000
siesta: Exc     =     -1123.305515
siesta: eta*DQ  =         0.000000
siesta: Emadel  =         0.000000
siesta: Emeta   =         0.000000
siesta: Emolmec =         0.000000
siesta: Ekinion =         0.000000
siesta: Eharris =     -4147.763425
siesta: Etot    =     -4147.763425
siesta: FreeEng =     -4147.763425

siesta: Final energy (eV):
siesta:  Band Struct. =   -1135.481729
siesta:       Kinetic =    2915.296500
siesta:       Hartree =    9094.477562
siesta:       Edftu   =       0.000000
siesta:       Eso     =      -0.004310
siesta:    Ext. field =       0.000000
siesta:   Exch.-corr. =   -1123.305515
siesta:  Ion-electron =  -20781.356782
siesta:       Ion-ion =    5747.129121
siesta:       Ekinion =       0.000000
siesta:         Total =   -4147.763425
siesta:         Fermi =      -3.791197

siesta: Atomic forces (eV/Ang):
siesta:      1    1.344320    2.846030   -0.000000
siesta:      2   -0.047661   -0.009308    0.000000
siesta:      3   -0.732224    0.352828    0.000000
siesta:      4   -0.702760   -0.054697   -0.000000
siesta:      5   -0.048411    0.085979    0.000000
siesta:      6   -1.470444   -0.536155   -0.000000
siesta:      7   -0.056196    0.240782    0.000000
siesta:      8    0.418386   -0.226181   -0.000000
siesta:      9    0.237286   -1.189622   -0.000000
siesta:     10    1.057235   -0.207374    0.000000
siesta:     11   -0.008883    0.044795    0.000000
siesta:     12    0.302205    0.161583   -0.000000
siesta:     13    0.037118    0.106707   -0.000000
siesta:     14   -0.284011    0.005538    0.000000
siesta:     15    1.040735    0.751640    0.000000
siesta:     16    0.085762    0.140175   -0.000000
siesta:     17   -1.086584    1.014875   -0.000000
siesta:     18    0.221288   -0.189724   -0.000000
siesta:     19    0.212407    1.168043    0.000000
siesta:     20   -0.007674    0.387446    0.000000
siesta:     21    0.272698   -1.071726    0.000000
siesta:     22    2.360761    0.967035   -0.000000
siesta:     23   -0.251329   -0.531546   -0.000000
siesta:     24   -0.042974    0.049342    0.000000
siesta:     25   -0.081001   -0.039781   -0.000000
siesta:     26    0.139118    0.232910    0.000000
siesta:     27   -1.136051   -0.915444    0.000000
siesta:     28   -1.870829   -3.307848   -0.000000
siesta:     29    0.039292    0.099973   -0.000000
siesta: ----------------------------------------
siesta:    Tot   -0.058421    0.376275   -0.000000

siesta: Stress tensor (static) (eV/Ang**3):
siesta:    -0.000374   -0.000714   -0.000000
siesta:    -0.000714   -0.000629   -0.000000
siesta:     0.000000   -0.000000   -0.000065

siesta: Cell volume =       4440.271876 Ang**3

siesta: Pressure (static):
siesta:                Solid            Molecule  Units
siesta:           0.00000388          0.00000148  Ry/Bohr**3
siesta:           0.00035634          0.00013613  eV/Ang**3
siesta:           0.57092735          0.21809939  kBar
(Free)E+ p_basis*V_orbitals  =       -4127.913007
(Free)Eharris+ p_basis*V_orbitals  =       -4127.913007
     spin moment: S , {S} =    0.00000   0.00000   0.00000  -0.00000

siesta: Electric dipole (a.u.)  =    1.398584    0.076647   -0.000000
siesta: Electric dipole (Debye) =    3.554848    0.194819   -0.000000

cite: Please see "GC.bib" for an exhaustive BiBTeX file.
cite: Please clearly indicate Siesta version in published work: v4.1.5-1-g384057250
cite: This calculation has made use of the following articles
cite: which are encouraged to be cited in a published work.
        Primary SIESTA paper
          DOI: www.doi.org/10.1088/0953-8984/14/11/302
        Spin-orbit coupling (on-site approximation)
          DOI: www.doi.org/10.1088/0953-8984/19/19/489001


WARNING: alloc-realloc-dealloc name mismatch
         Name: atomlist isa
         Size:              -116. Bytes
         Node:     0
         Subsequent mismatches will not be reported
>> End of run:  22-MAY-2023  16:46:18
Job completed
