Siesta Version  : v4.1.5-1-g384057250
Architecture    : gcc
Compiler version: GNU Fortran (Debian 10.2.1-6) 10.2.1 20210110
Compiler flags  : mpifort -O2 -fPIC -ftree-vectorize -fallow-argument-mismatch
PP flags        : -DFC_HAVE_ABORT -DMPI -DSIESTA__FLOOK -DSIESTA__METIS -DSIESTA__MUMPS -DCDF -DNCDF -DNCDF_4 -DNCDF_PARALLEL -DSIESTA__MRRR -DSIESTA__ELPA
Libraries       : libncdf.a libfdict.a  -lflookall -ldl -lnetcdff -lnetcdf -lhdf5_hl -lhdf5 -lhdf5_fortran -lz -lscalapack-openmpi -lopenblas -lmetis -lzmumps -lcmumps -ldmumps -lmumps_common -lpord -lsmumps -lesmumps -lscotch -lscotcherr -fopenmp -lelpa
PARALLEL version
NetCDF support
NetCDF-4 support
NetCDF-4 MPI-IO support
METIS ordering support
Lua support

* Running on 6 nodes in parallel
>> Start of run:  22-MAY-2023   9:34:11

                           ***********************       
                           *  WELCOME TO SIESTA  *       
                           ***********************       

reinit: Reading from standard input
reinit: Dumped input in INPUT_TMP.54264
************************** Dump of input data file ****************************
SystemLabel      AT
NumberOfAtoms    30
NumberOfSpecies  4
%block ChemicalSpeciesLabel
    1    1  H
    2    7  N
    3   14  Si
    4    8  O
%endblock ChemicalSpeciesLabel
# Single point calculation
MD.TypeOfRun                CG
MD.Steps                    0
SCF.MustConverge            F # In case it does not. There can be 2 very close atoms
AtomicCoordinatesFormat NotScaledCartesianAng
%block AtomicCoordinatesAndAtomicSpecies
2.582377650    -5.776830440   0.000000000       1
1.654759240    -5.269361980   0.000000000       2
0.063128840    -6.101704590   0.000000000       3
0.119223240    -7.596849500   0.000000000       1
-1.376892050   -5.182603740   0.000000000       2
-0.824371900   -3.460866440   0.000000000       3
-1.170571480   -1.270002100   0.000000000       3
-2.706933680   -0.417515780   0.000000000       2
-2.754569660   0.634858620    0.000000000       1
-3.637675640   -0.909967860   0.000000000       1
0.218091790    -0.234193970   0.000000000       2
1.872004100    -0.697162300   0.000000000       3
2.828001130    0.461464770    0.000000000       1
2.648150080    -2.255024470   0.000000000       2
1.391921380    -3.454727220   0.000000000       3
1.907635921    4.260478273    0.000000000       2
0.580264401    5.470682573    0.000000000       3
1.220265671    6.832000813    0.000000000       1
-1.505481539   4.800151223    0.000000000       3
-3.535044139   5.930267413    0.000000000       3
-3.380808369   7.090497623    0.940305280       1
-4.520978859   4.908346793    0.512613700       1
-3.951259099   6.406493263    -1.366678340      1
-1.438986119   2.526174603    0.000000000       3
-2.478034849   1.333115103    0.000000000       4
0.218005461    1.892199413    0.000000000       2
0.199988091    0.829754583    0.000000000       1
1.841608531    2.489269623    0.000000000       3
3.036624701    1.474844423    0.000000000       4
2.907673291    4.605985373    0.000000000       1
%endblock AtomicCoordinatesAndAtomicSpecies
%include ../../../Defaults.fdf
************************** End of input data file *****************************

reinit: -----------------------------------------------------------------------
reinit: System Name: 
reinit: -----------------------------------------------------------------------
reinit: System Label: AT
reinit: -----------------------------------------------------------------------

initatom: Reading input for the pseudopotentials and atomic orbitals ----------
Species number:   1 Atomic number:    1 Label: H
Species number:   2 Atomic number:    7 Label: N
Species number:   3 Atomic number:   14 Label: Si
Species number:   4 Atomic number:    8 Label: O

Ground state valence configuration:   1s01
Reading pseudopotential information in formatted form from H.psf

Pseudopotential generated from a relativistic atomic calculation

Valence configuration for pseudopotential generation:
1s( 1.00) rc: 0.01
2p( 0.00) rc: 0.60
3d( 0.00) rc: 1.99
4f( 0.00) rc: 2.49
Ground state valence configuration:   2s02  2p03
Reading pseudopotential information in formatted form from N.psf

Pseudopotential generated from a relativistic atomic calculation

Valence configuration for pseudopotential generation:
2s( 2.00) rc: 0.94
2p( 3.00) rc: 0.59
3d( 0.00) rc: 3.46
4f( 0.00) rc: 2.47
Ground state valence configuration:   3s02  3p02
Reading pseudopotential information in formatted form from Si.psf

Pseudopotential generated from a relativistic atomic calculation

Valence configuration for pseudopotential generation:
3s( 2.00) rc: 1.67
3p( 2.00) rc: 2.04
3d( 0.00) rc: 2.89
4f( 0.00) rc: 2.49
Ground state valence configuration:   2s02  2p04
Reading pseudopotential information in formatted form from O.psf

Pseudopotential generated from a relativistic atomic calculation

Valence configuration for pseudopotential generation:
2s( 2.00) rc: 0.45
2p( 4.00) rc: 0.92
3d( 0.00) rc: 2.24
4f( 0.00) rc: 0.25
For H, standard SIESTA heuristics set lmxkb to 2
 (one more than the basis l, including polarization orbitals).
Use PS.lmax or PS.KBprojectors blocks to override.
For N, standard SIESTA heuristics set lmxkb to 3
 (one more than the basis l, including polarization orbitals).
Use PS.lmax or PS.KBprojectors blocks to override.
For Si, standard SIESTA heuristics set lmxkb to 3
 (one more than the basis l, including polarization orbitals).
Use PS.lmax or PS.KBprojectors blocks to override.
For O, standard SIESTA heuristics set lmxkb to 3
 (one more than the basis l, including polarization orbitals).
Use PS.lmax or PS.KBprojectors blocks to override.

<basis_specs>
===============================================================================
H                    Z=   1    Mass=  1.0100        Charge= 0.17977+309
Lmxo=0 Lmxkb= 2    BasisType=split      Semic=F
L=0  Nsemic=0  Cnfigmx=1
          i=1  nzeta=2  polorb=1  (1s)
            splnorm:   0.62000    
               vcte:    0.0000    
               rinn:    0.0000    
               qcoe:    0.0000    
               qyuk:    0.0000    
               qwid:   0.10000E-01
                rcs:    0.0000      0.0000    
            lambdas:    1.0000      1.0000    
-------------------------------------------------------------------------------
L=0  Nkbl=1  erefs: 0.17977+309
L=1  Nkbl=1  erefs: 0.17977+309
L=2  Nkbl=1  erefs: 0.17977+309
===============================================================================
</basis_specs>

atom: Called for H                     (Z =   1)

read_vps: Pseudopotential generation method:
read_vps: ATM4.2.7  Troullier-Martins                       
Valence charge for ps generation:    1.00000

xc_check: Exchange-correlation functional:
xc_check: GGA Perdew, Burke & Ernzerhof 1996
V l=0 = -2*Zval/r beyond r=  0.0098
V l=1 = -2*Zval/r beyond r=  0.5817
V l=2 = -2*Zval/r beyond r=  1.9372
All V_l potentials equal beyond r=  1.9372
This should be close to max(r_c) in ps generation
All pots = -2*Zval/r beyond r=  1.9372

VLOCAL1: 99.0% of the norm of Vloc inside     11.567 Ry
VLOCAL1: 99.9% of the norm of Vloc inside     26.362 Ry
atom: Maximum radius for 4*pi*r*r*local-pseudopot. charge    2.25106
atom: Maximum radius for r*vlocal+2*Zval:    1.91306
GHOST: No ghost state for L =  0
GHOST: No ghost state for L =  1
GHOST: No ghost state for L =  2

KBgen: Kleinman-Bylander projectors: 
   l= 0   rc=  2.036604   el= -0.477180   Ekb= -6.081590   kbcos= -0.277285
   l= 1   rc=  2.195416   el=  0.001076   Ekb= -0.926943   kbcos= -0.034643
   l= 2   rc=  2.251056   el=  0.002010   Ekb= -0.130941   kbcos= -0.009788

KBgen: Total number of Kleinman-Bylander projectors:    9
atom: -------------------------------------------------------------------------

atom: SANKEY-TYPE ORBITALS:
atom: Selected multiple-zeta basis: split     

SPLIT: Orbitals with angular momentum L= 0

SPLIT: Basis orbitals for state 1s

SPLIT: PAO cut-off radius determined from an
SPLIT: energy shift=  0.002000 Ry

   izeta = 1
                 lambda =    1.000000
                     rc =    6.518340
                 energy =   -0.475305
                kinetic =    0.912139
    potential(screened) =   -1.387444
       potential(ionic) =   -1.907295

   izeta = 2
                 rmatch =    2.141150
              splitnorm =    0.620000
                 energy =    0.566467
                kinetic =    3.772856
    potential(screened) =   -3.206389
       potential(ionic) =   -3.759093

POLgen: Perturbative polarization orbital with L=  1

POLgen: Polarization orbital for state 1s

   izeta = 1
                     rc =    6.518340
                 energy =    0.533861
                kinetic =    1.121086
    potential(screened) =   -0.587225
       potential(ionic) =   -1.053027
atom: Total number of Sankey-type orbitals:  5

atm_pop: Valence configuration (for local Pseudopot. screening):
 1s( 1.00)                                                            
Vna: chval, zval:    1.00000   1.00000

Vna:  Cut-off radius for the neutral-atom potential:   6.518340

atom: _________________________________________________________________________

<basis_specs>
===============================================================================
N                    Z=   7    Mass=  14.010        Charge= 0.17977+309
Lmxo=1 Lmxkb= 3    BasisType=split      Semic=F
L=0  Nsemic=0  Cnfigmx=2
          i=1  nzeta=2  polorb=0  (2s)
            splnorm:   0.28000    
               vcte:    0.0000    
               rinn:    0.0000    
               qcoe:    0.0000    
               qyuk:    0.0000    
               qwid:   0.10000E-01
                rcs:    0.0000      0.0000    
            lambdas:    1.0000      1.0000    
L=1  Nsemic=0  Cnfigmx=2
          i=1  nzeta=2  polorb=1  (2p)
            splnorm:   0.28000    
               vcte:    0.0000    
               rinn:    0.0000    
               qcoe:    0.0000    
               qyuk:    0.0000    
               qwid:   0.10000E-01
                rcs:    0.0000      0.0000    
            lambdas:    1.0000      1.0000    
-------------------------------------------------------------------------------
L=0  Nkbl=1  erefs: 0.17977+309
L=1  Nkbl=1  erefs: 0.17977+309
L=2  Nkbl=1  erefs: 0.17977+309
L=3  Nkbl=1  erefs: 0.17977+309
===============================================================================
</basis_specs>

atom: Called for N                     (Z =   7)

read_vps: Pseudopotential generation method:
read_vps: ATM4.2.7  Troullier-Martins                       
Valence charge for ps generation:    5.00000

xc_check: Exchange-correlation functional:
xc_check: GGA Perdew, Burke & Ernzerhof 1996
V l=0 = -2*Zval/r beyond r=  1.2889
V l=1 = -2*Zval/r beyond r=  1.2889
V l=2 = -2*Zval/r beyond r=  3.4178
V l=3 = -2*Zval/r beyond r=  2.4084
All V_l potentials equal beyond r=  3.3753
This should be close to max(r_c) in ps generation
All pots = -2*Zval/r beyond r=  3.4178

VLOCAL1: 99.0% of the norm of Vloc inside      3.810 Ry
VLOCAL1: 99.9% of the norm of Vloc inside      8.683 Ry
atom: Maximum radius for 4*pi*r*r*local-pseudopot. charge    4.02088
atom: Maximum radius for r*vlocal+2*Zval:    3.54838
GHOST: No ghost state for L =  0
GHOST: No ghost state for L =  1
GHOST: No ghost state for L =  2
GHOST: No ghost state for L =  3

KBgen: Kleinman-Bylander projectors: 
   l= 0   rc=  3.417763   el= -1.365098   Ekb= -4.433130   kbcos= -0.707855
   l= 1   rc=  3.375302   el= -0.521201   Ekb=-13.264039   kbcos= -0.535594
   l= 2   rc=  3.872880   el=  0.001991   Ekb= -0.641094   kbcos= -0.062456
   l= 3   rc=  3.970931   el=  0.003093   Ekb= -0.474517   kbcos= -0.018236

KBgen: Total number of Kleinman-Bylander projectors:   16
atom: -------------------------------------------------------------------------

atom: SANKEY-TYPE ORBITALS:
atom: Selected multiple-zeta basis: split     

SPLIT: Orbitals with angular momentum L= 0

SPLIT: Basis orbitals for state 2s

SPLIT: PAO cut-off radius determined from an
SPLIT: energy shift=  0.002000 Ry

   izeta = 1
                 lambda =    1.000000
                     rc =    4.730425
                 energy =   -1.363399
                kinetic =    1.245246
    potential(screened) =   -2.608645
       potential(ionic) =   -8.121105

   izeta = 2
                 rmatch =    2.531849
              splitnorm =    0.280000
                 energy =   -0.959908
                kinetic =    2.409435
    potential(screened) =   -3.369343
       potential(ionic) =   -9.427975

SPLIT: Orbitals with angular momentum L= 1

SPLIT: Basis orbitals for state 2p

SPLIT: PAO cut-off radius determined from an
SPLIT: energy shift=  0.002000 Ry

   izeta = 1
                 lambda =    1.000000
                     rc =    5.924108
                 energy =   -0.519262
                kinetic =    3.672940
    potential(screened) =   -4.192202
       potential(ionic) =   -9.518354

   izeta = 2
                 rmatch =    2.531849
              splitnorm =    0.280000
                 energy =   -0.104258
                kinetic =    6.807538
    potential(screened) =   -6.911796
       potential(ionic) =  -13.149920

POLgen: Perturbative polarization orbital with L=  2

POLgen: Polarization orbital for state 2p

   izeta = 1
                     rc =    5.924108
                 energy =    1.427508
                kinetic =    2.872379
    potential(screened) =   -1.444871
       potential(ionic) =   -5.563644
atom: Total number of Sankey-type orbitals: 13

atm_pop: Valence configuration (for local Pseudopot. screening):
 2s( 2.00)                                                            
 2p( 3.00)                                                            
Vna: chval, zval:    5.00000   5.00000

Vna:  Cut-off radius for the neutral-atom potential:   5.924108

atom: _________________________________________________________________________

<basis_specs>
===============================================================================
Si                   Z=  14    Mass=  28.090        Charge= 0.17977+309
Lmxo=1 Lmxkb= 3    BasisType=split      Semic=F
L=0  Nsemic=0  Cnfigmx=3
          i=1  nzeta=2  polorb=0  (3s)
            splnorm:   0.28000    
               vcte:    0.0000    
               rinn:    0.0000    
               qcoe:    0.0000    
               qyuk:    0.0000    
               qwid:   0.10000E-01
                rcs:    0.0000      0.0000    
            lambdas:    1.0000      1.0000    
L=1  Nsemic=0  Cnfigmx=3
          i=1  nzeta=2  polorb=1  (3p)
            splnorm:   0.28000    
               vcte:    0.0000    
               rinn:    0.0000    
               qcoe:    0.0000    
               qyuk:    0.0000    
               qwid:   0.10000E-01
                rcs:    0.0000      0.0000    
            lambdas:    1.0000      1.0000    
-------------------------------------------------------------------------------
L=0  Nkbl=1  erefs: 0.17977+309
L=1  Nkbl=1  erefs: 0.17977+309
L=2  Nkbl=1  erefs: 0.17977+309
L=3  Nkbl=1  erefs: 0.17977+309
===============================================================================
</basis_specs>

atom: Called for Si                    (Z =  14)

read_vps: Pseudopotential generation method:
read_vps: ATM4.2.7  Troullier-Martins                       
Valence charge for ps generation:    4.00000

xc_check: Exchange-correlation functional:
xc_check: GGA Perdew, Burke & Ernzerhof 1996
V l=0 = -2*Zval/r beyond r=  2.7826
V l=1 = -2*Zval/r beyond r=  2.7826
V l=2 = -2*Zval/r beyond r=  2.9253
V l=3 = -2*Zval/r beyond r=  2.7826
All V_l potentials equal beyond r=  2.8530
This should be close to max(r_c) in ps generation
All pots = -2*Zval/r beyond r=  2.9253

VLOCAL1: 99.0% of the norm of Vloc inside      5.333 Ry
VLOCAL1: 99.9% of the norm of Vloc inside     12.154 Ry
atom: Maximum radius for 4*pi*r*r*local-pseudopot. charge    3.39869
atom: Maximum radius for r*vlocal+2*Zval:    2.96205
GHOST: No ghost state for L =  0
GHOST: No ghost state for L =  1
GHOST: No ghost state for L =  2
GHOST: No ghost state for L =  3

KBgen: Kleinman-Bylander projectors: 
   l= 0   rc=  3.075247   el= -0.794092   Ekb=  5.879390   kbcos=  0.167461
   l= 1   rc=  3.153101   el= -0.300068   Ekb=  2.642817   kbcos=  0.058301
   l= 2   rc=  3.273594   el=  0.001958   Ekb= -1.185135   kbcos= -0.104411
   l= 3   rc=  3.232927   el=  0.003046   Ekb= -0.497174   kbcos= -0.015889

KBgen: Total number of Kleinman-Bylander projectors:   16
atom: -------------------------------------------------------------------------

atom: SANKEY-TYPE ORBITALS:
atom: Selected multiple-zeta basis: split     

SPLIT: Orbitals with angular momentum L= 0

SPLIT: Basis orbitals for state 3s

SPLIT: PAO cut-off radius determined from an
SPLIT: energy shift=  0.002000 Ry

   izeta = 1
                 lambda =    1.000000
                     rc =    6.429618
                 energy =   -0.792283
                kinetic =    0.525293
    potential(screened) =   -1.317576
       potential(ionic) =   -3.744923

   izeta = 2
                 rmatch =    3.998416
              splitnorm =    0.280000
                 energy =   -0.583081
                kinetic =    1.069570
    potential(screened) =   -1.652651
       potential(ionic) =   -4.235185

SPLIT: Orbitals with angular momentum L= 1

SPLIT: Basis orbitals for state 3p

SPLIT: PAO cut-off radius determined from an
SPLIT: energy shift=  0.002000 Ry

   izeta = 1
                 lambda =    1.000000
                     rc =    8.464845
                 energy =   -0.298236
                kinetic =    0.785360
    potential(screened) =   -1.083596
       potential(ionic) =   -3.273779

   izeta = 2
                 rmatch =    4.587816
              splitnorm =    0.280000
                 energy =   -0.131871
                kinetic =    1.403687
    potential(screened) =   -1.535557
       potential(ionic) =   -4.015310

POLgen: Perturbative polarization orbital with L=  2

POLgen: Polarization orbital for state 3p

   izeta = 1
                     rc =    8.464845
                 energy =    0.321949
                kinetic =    1.055677
    potential(screened) =   -0.733728
       potential(ionic) =   -2.672950
atom: Total number of Sankey-type orbitals: 13

atm_pop: Valence configuration (for local Pseudopot. screening):
 3s( 2.00)                                                            
 3p( 2.00)                                                            
Vna: chval, zval:    4.00000   4.00000

Vna:  Cut-off radius for the neutral-atom potential:   8.464845

atom: _________________________________________________________________________

<basis_specs>
===============================================================================
O                    Z=   8    Mass=  16.000        Charge= 0.17977+309
Lmxo=1 Lmxkb= 3    BasisType=split      Semic=F
L=0  Nsemic=0  Cnfigmx=2
          i=1  nzeta=2  polorb=0  (2s)
            splnorm:   0.28000    
               vcte:    0.0000    
               rinn:    0.0000    
               qcoe:    0.0000    
               qyuk:    0.0000    
               qwid:   0.10000E-01
                rcs:    0.0000      0.0000    
            lambdas:    1.0000      1.0000    
L=1  Nsemic=0  Cnfigmx=2
          i=1  nzeta=2  polorb=1  (2p)
            splnorm:   0.28000    
               vcte:    0.0000    
               rinn:    0.0000    
               qcoe:    0.0000    
               qyuk:    0.0000    
               qwid:   0.10000E-01
                rcs:    0.0000      0.0000    
            lambdas:    1.0000      1.0000    
-------------------------------------------------------------------------------
L=0  Nkbl=1  erefs: 0.17977+309
L=1  Nkbl=1  erefs: 0.17977+309
L=2  Nkbl=1  erefs: 0.17977+309
L=3  Nkbl=1  erefs: 0.17977+309
===============================================================================
</basis_specs>

atom: Called for O                     (Z =   8)

read_vps: Pseudopotential generation method:
read_vps: ATM4.2.7  Troullier-Martins                       
Valence charge for ps generation:    6.00000

xc_check: Exchange-correlation functional:
xc_check: GGA Perdew, Burke & Ernzerhof 1996
V l=0 = -2*Zval/r beyond r=  1.1000
V l=1 = -2*Zval/r beyond r=  1.1000
V l=2 = -2*Zval/r beyond r=  2.2154
V l=3 = -2*Zval/r beyond r=  1.1000
All V_l potentials equal beyond r=  2.2154
This should be close to max(r_c) in ps generation
All pots = -2*Zval/r beyond r=  2.2154

VLOCAL1: 99.0% of the norm of Vloc inside      8.845 Ry
VLOCAL1: 99.9% of the norm of Vloc inside     20.157 Ry
atom: Maximum radius for 4*pi*r*r*local-pseudopot. charge    2.67231
atom: Maximum radius for r*vlocal+2*Zval:    2.32897
GHOST: No ghost state for L =  0
GHOST: No ghost state for L =  1
GHOST: No ghost state for L =  2
GHOST: No ghost state for L =  3

KBgen: Kleinman-Bylander projectors: 
   l= 0   rc=  2.243238   el= -1.759686   Ekb=**********   kbcos= -0.171774
   l= 1   rc=  2.328968   el= -0.663873   Ekb=-14.506792   kbcos= -0.519897
   l= 2   rc=  2.573941   el=  0.002031   Ekb= -1.137373   kbcos= -0.019581
   l= 3   rc=  2.606321   el=  0.003153   Ekb= -1.013546   kbcos= -0.003122

KBgen: Total number of Kleinman-Bylander projectors:   16
atom: -------------------------------------------------------------------------

atom: SANKEY-TYPE ORBITALS:
atom: Selected multiple-zeta basis: split     

SPLIT: Orbitals with angular momentum L= 0

SPLIT: Basis orbitals for state 2s

SPLIT: PAO cut-off radius determined from an
SPLIT: energy shift=  0.002000 Ry

   izeta = 1
                 lambda =    1.000000
                     rc =    4.243912
                 energy =   -1.758270
                kinetic =    3.286084
    potential(screened) =   -5.044353
       potential(ionic) =  -12.921184

   izeta = 2
                 rmatch =    2.187845
              splitnorm =    0.280000
                 energy =   -0.885018
                kinetic =    8.134434
    potential(screened) =   -9.019452
       potential(ionic) =  -17.710645

SPLIT: Orbitals with angular momentum L= 1

SPLIT: Basis orbitals for state 2p

SPLIT: PAO cut-off radius determined from an
SPLIT: energy shift=  0.002000 Ry

   izeta = 1
                 lambda =    1.000000
                     rc =    5.314825
                 energy =   -0.661986
                kinetic =    4.917472
    potential(screened) =   -5.579458
       potential(ionic) =  -13.236259

   izeta = 2
                 rmatch =    2.160663
              splitnorm =    0.280000
                 energy =   -0.068760
                kinetic =    9.183374
    potential(screened) =   -9.252135
       potential(ionic) =  -18.274251

POLgen: Perturbative polarization orbital with L=  2

POLgen: Polarization orbital for state 2p

   izeta = 1
                     rc =    5.314825
                 energy =    1.970580
                kinetic =    3.886128
    potential(screened) =   -1.915547
       potential(ionic) =   -7.749584
atom: Total number of Sankey-type orbitals: 13

atm_pop: Valence configuration (for local Pseudopot. screening):
 2s( 2.00)                                                            
 2p( 4.00)                                                            
Vna: chval, zval:    6.00000   6.00000

Vna:  Cut-off radius for the neutral-atom potential:   5.314825

atom: _________________________________________________________________________

prinput: Basis input ----------------------------------------------------------

PAO.BasisType split     

%block ChemicalSpeciesLabel
    1    1 H                       # Species index, atomic number, species label
    2    7 N                       # Species index, atomic number, species label
    3   14 Si                      # Species index, atomic number, species label
    4    8 O                       # Species index, atomic number, species label
%endblock ChemicalSpeciesLabel

%block PAO.Basis                 # Define Basis set
H                     1                    # Species label, number of l-shells
 n=1   0   2 P   1                   # n, l, Nzeta, Polarization, NzetaPol
   6.518      2.141   
   1.000      1.000   
N                     2                    # Species label, number of l-shells
 n=2   0   2                         # n, l, Nzeta 
   4.730      2.532   
   1.000      1.000   
 n=2   1   2 P   1                   # n, l, Nzeta, Polarization, NzetaPol
   5.924      2.532   
   1.000      1.000   
Si                    2                    # Species label, number of l-shells
 n=3   0   2                         # n, l, Nzeta 
   6.430      3.998   
   1.000      1.000   
 n=3   1   2 P   1                   # n, l, Nzeta, Polarization, NzetaPol
   8.465      4.588   
   1.000      1.000   
O                     2                    # Species label, number of l-shells
 n=2   0   2                         # n, l, Nzeta 
   4.244      2.188   
   1.000      1.000   
 n=2   1   2 P   1                   # n, l, Nzeta, Polarization, NzetaPol
   5.315      2.161   
   1.000      1.000   
%endblock PAO.Basis

prinput: ----------------------------------------------------------------------

Dumping basis to NetCDF file H.ion.nc
Dumping basis to NetCDF file N.ion.nc
Dumping basis to NetCDF file Si.ion.nc
Dumping basis to NetCDF file O.ion.nc
coor:   Atomic-coordinates input format  =     Cartesian coordinates
coor:                                          (in Angstroms)

siesta: Atomic coordinates (Bohr) and species
siesta:      4.87999 -10.91663   0.00000  1        1
siesta:      3.12704  -9.95765   0.00000  2        2
siesta:      0.11930 -11.53056   0.00000  3        3
siesta:      0.22530 -14.35597   0.00000  1        4
siesta:     -2.60195  -9.79371   0.00000  2        5
siesta:     -1.55784  -6.54009   0.00000  3        6
siesta:     -2.21206  -2.39996   0.00000  3        7
siesta:     -5.11537  -0.78899   0.00000  2        8
siesta:     -5.20538   1.19971   0.00000  1        9
siesta:     -6.87421  -1.71959   0.00000  1       10
siesta:      0.41213  -0.44256   0.00000  2       11
siesta:      3.53758  -1.31745   0.00000  3       12
siesta:      5.34415   0.87204   0.00000  1       13
siesta:      5.00428  -4.26138   0.00000  2       14
siesta:      2.63035  -6.52849   0.00000  3       15
siesta:      3.60491   8.05114   0.00000  2       16
siesta:      1.09654  10.33810   0.00000  3       17
siesta:      2.30597  12.91062   0.00000  1       18
siesta:     -2.84495   9.07097   0.00000  3       19
siesta:     -6.68027  11.20659   0.00000  3       20
siesta:     -6.38880  13.39910   1.77692  1       21
siesta:     -8.54342   9.27543   0.96870  1       22
siesta:     -7.46680  12.10652  -2.58265  1       23
siesta:     -2.71929   4.77378   0.00000  3       24
siesta:     -4.68281   2.51922   0.00000  4       25
siesta:      0.41197   3.57574   0.00000  2       26
siesta:      0.37792   1.56801   0.00000  1       27
siesta:      3.48014   4.70404   0.00000  3       28
siesta:      5.73839   2.78705   0.00000  4       29
siesta:      5.49471   8.70405   0.00000  1       30

siesta: Automatic unit cell vectors (Ang):
siesta:   15.808622    0.000000    0.000000
siesta:    0.000000   23.744665    0.000000
siesta:    0.000000    0.000000   10.224979

siesta: System type = molecule  

initatomlists: Number of atoms, orbitals, and projectors:     30   302   403

siesta: ******************** Simulation parameters ****************************
siesta:
siesta: The following are some of the parameters of the simulation.
siesta: A complete list of the parameters used, including default values,
siesta: can be found in file out.fdf
siesta:
redata: Spin configuration                          = spin-orbit
redata: Number of spin components                   = 8
redata: Time-Reversal Symmetry                      = F
redata: Spin spiral                                 = F
############################################################
This spin-orbit implementation uses a local approximation.
From 4.2 and onwards the full non-local approximation is implemented
You are strongly advised to use >=4.2 versions!
############################################################
redata: Long output                                 =   F
redata: Number of Atomic Species                    =        4
redata: Charge density info will appear in .RHO file
redata: Write Mulliken Pop.                         = Atomic and Orbital charges
redata: Matel table size (NRTAB)                    =     1024
redata: Mesh Cutoff                                 =   340.0000 Ry
redata: Net charge of the system                    =     0.0000 |e|
redata: Min. number of SCF Iter                     =        1
redata: Max. number of SCF Iter                     =      200
redata: SCF mix quantity                            = Hamiltonian
redata: Mix DM or H after convergence               =   F
redata: Recompute H after scf cycle                 =   F
redata: Mix DM in first SCF step                    =   T
redata: Write Pulay info on disk                    =   F
redata: New DM Occupancy tolerance                  = 0.000000000001
redata: No kicks to SCF
redata: DM Mixing Weight for Kicks                  =     0.5000
redata: Require Harris convergence for SCF          =   F
redata: Harris energy tolerance for SCF             =     0.000100 eV
redata: Require DM convergence for SCF              =   T
redata: DM tolerance for SCF                        =     0.000008
redata: Require EDM convergence for SCF             =   F
redata: EDM tolerance for SCF                       =     0.001000 eV
redata: Require H convergence for SCF               =   T
redata: Hamiltonian tolerance for SCF               =     0.000001 eV
redata: Require (free) Energy convergence for SCF   =   F
redata: (free) Energy tolerance for SCF             =     0.000100 eV
redata: Using Saved Data (generic)                  =   F
redata: Use continuation files for DM               =   F
redata: Neglect nonoverlap interactions             =   F
redata: Method of Calculation                       = Diagonalization
redata: Electronic Temperature                      =   299.9978 K
redata: Fix the spin of the system                  =   F
redata: Dynamics option                             = Single-point calculation
mix.SCF: Pulay mixing                            = Pulay
mix.SCF:    Variant                              = stable
mix.SCF:    History steps                        = 6
mix.SCF:    Linear mixing weight                 =     0.250000
mix.SCF:    Mixing weight                        =     0.250000
mix.SCF:    SVD condition                        = 0.1000E-07
mix.SCF:    Restart steps                        = 24
mix.SCF:    Restart save steps                   = 3
mix.SCF: Spin-component mixing                   all
redata: Save all siesta data in one NC              =   F
redata: ***********************************************************************

%block SCF.Mixers
  Pulay
%endblock SCF.Mixers

%block SCF.Mixer.Pulay
  # Mixing method
  method pulay
  variant stable

  # Mixing options
  weight 0.2500
  weight.linear 0.2500
  history 6
  restart 24
  restart.save 3
%endblock SCF.Mixer.Pulay

DM_history_depth set to one: no extrapolation allowed by default for geometry relaxation
Size of DM history Fstack: 1
Total number of electrons:    98.000000
Total ionic charge:    98.000000

* ProcessorY, Blocksize:    2  24


* Orbital distribution balance (max,min):    62    48


Time-reversal symmetry not used.

siesta: k-grid: Number of k-points =     1
siesta: k-grid: Cutoff (effective) =     5.112 Ang
siesta: k-grid: Supercell and displacements
siesta: k-grid:    1   0   0      0.000
siesta: k-grid:    0   1   0      0.000
siesta: k-grid:    0   0   1      0.000

diag: Algorithm                                     = ELPA-1stage
diag: Parallel over k                               =   F
diag: Use parallel 2D distribution                  =   T
diag: Parallel block-size                           = 24
diag: Parallel distribution                         =     2 x     3
diag: Used triangular part                          = Lower
diag: Absolute tolerance                            =  0.100E-15
diag: Orthogonalization factor                      =  0.100E-05
diag: Memory factor                                 =  1.0000


ts: **************************************************************
ts: Save H and S matrices                           =    F
ts: Save DM and EDM matrices                        =    F
ts: Only save the overlap matrix S                  =    F
ts: **************************************************************

************************ Begin: TS CHECKS AND WARNINGS ************************
************************ End: TS CHECKS AND WARNINGS **************************


                     ====================================
                        Single-point calculation
                     ====================================

outcoor: Atomic coordinates (Ang):                          
    2.58237765   -5.77683044    0.00000000   1       1  H
    1.65475924   -5.26936198    0.00000000   2       2  N
    0.06312884   -6.10170459    0.00000000   3       3  Si
    0.11922324   -7.59684950    0.00000000   1       4  H
   -1.37689205   -5.18260374    0.00000000   2       5  N
   -0.82437190   -3.46086644    0.00000000   3       6  Si
   -1.17057148   -1.27000210    0.00000000   3       7  Si
   -2.70693368   -0.41751578    0.00000000   2       8  N
   -2.75456966    0.63485862    0.00000000   1       9  H
   -3.63767564   -0.90996786    0.00000000   1      10  H
    0.21809179   -0.23419397    0.00000000   2      11  N
    1.87200410   -0.69716230    0.00000000   3      12  Si
    2.82800113    0.46146477    0.00000000   1      13  H
    2.64815008   -2.25502447    0.00000000   2      14  N
    1.39192138   -3.45472722    0.00000000   3      15  Si
    1.90763592    4.26047827    0.00000000   2      16  N
    0.58026440    5.47068257    0.00000000   3      17  Si
    1.22026567    6.83200081    0.00000000   1      18  H
   -1.50548154    4.80015122    0.00000000   3      19  Si
   -3.53504414    5.93026741    0.00000000   3      20  Si
   -3.38080837    7.09049762    0.94030528   1      21  H
   -4.52097886    4.90834679    0.51261370   1      22  H
   -3.95125910    6.40649326   -1.36667834   1      23  H
   -1.43898612    2.52617460    0.00000000   3      24  Si
   -2.47803485    1.33311510    0.00000000   4      25  O
    0.21800546    1.89219941    0.00000000   2      26  N
    0.19998809    0.82975458    0.00000000   1      27  H
    1.84160853    2.48926962    0.00000000   3      28  Si
    3.03662470    1.47484442    0.00000000   4      29  O
    2.90767329    4.60598537    0.00000000   1      30  H

outcell: Unit cell vectors (Ang):
       15.808622    0.000000    0.000000
        0.000000   23.744665    0.000000
        0.000000    0.000000   10.224979

outcell: Cell vector modules (Ang)   :   15.808622   23.744665   10.224979
outcell: Cell angles (23,13,12) (deg):     90.0000     90.0000     90.0000
outcell: Cell volume (Ang**3)        :   3838.1549
<dSpData1D:S at geom step 0
  <sparsity:sparsity for geom step 0
    nrows_g=302 nrows=62 sparsity=.1666 nnzs=15195, refcount: 8>
  <dData1D:(new from dSpData1D) n=15195, refcount: 1>
refcount: 1>
new_DM -- step:     1
Initializing Density Matrix...
DM filled with atomic data:
<dSpData2D:DM initialized from atoms
  <sparsity:sparsity for geom step 0
    nrows_g=302 nrows=62 sparsity=.1666 nnzs=15195, refcount: 9>
  <dData2D:DM n=15195 m=8, refcount: 1>
refcount: 1>
     spin moment: S , {S} =   56.00000   0.00000   0.00000  56.00000
No. of atoms with KB's overlaping orbs in proc 0. Max # of overlaps:      24     224

Initializing spin-orbit part of the Hamiltonian
  Adding spin-orbit effects for H 
  Adding spin-orbit effects for N 
  Adding spin-orbit effects for Si
  Adding spin-orbit effects for O 


New grid distribution:   1
           1       1:   90    1:   68    1:   20
           2       1:   90    1:   68   21:   40
           3       1:   90    1:   68   41:   60
           4       1:   90   69:  135    1:   20
           5       1:   90   69:  135   21:   40
           6       1:   90   69:  135   41:   60

InitMesh: MESH =   180 x   270 x   120 =     5832000
InitMesh: (bp) =    90 x   135 x    60 =      729000
InitMesh: Mesh cutoff (required, used) =   340.000   357.353 Ry
ExtMesh (bp) on 0 =   194 x   172 x   128 =     4271104
New grid distribution:   2
           1       1:   12   36:  135    1:   60
           2      14:   90    1:   14    1:   60
           3       1:   13    1:   35    1:   60
           4      13:   90   36:  117    1:   60
           5      14:   90   15:   35    1:   60
           6      13:   90  118:  135    1:   60
New grid distribution:   3
           1      24:   90    1:   25    1:   60
           2       1:   18   50:  135    1:   60
           3       1:   23    1:   49    1:   60
           4      19:   90   50:  111    1:   60
           5      19:   90  112:  135    1:   60
           6      24:   90   26:   49    1:   60
Setting up quadratic distribution...
ExtMesh (bp) on 0 =   116 x   204 x   168 =     3975552
PhiOnMesh: Number of (b)points on node 0 =                72000
PhiOnMesh: nlist on node 0 =              1625226

stepf: Fermi-Dirac step function

siesta: Program's energy decomposition (eV):
siesta: Ebs     =      -569.242857
siesta: Eions   =      3553.971015
siesta: Ena     =       401.474449
siesta: Ekin    =      3264.986141
siesta: Enl     =     -3079.219403
siesta: Eso     =        -0.004150
siesta: Edftu   =         0.000000
siesta: DEna    =       134.010538
siesta: DUscf   =        83.174938
siesta: DUext   =         0.000000
siesta: Exc     =     -1188.888833
siesta: eta*DQ  =         0.000000
siesta: Emadel  =         0.000000
siesta: Emeta   =         0.000000
siesta: Emolmec =         0.000000
siesta: Ekinion =         0.000000
siesta: Eharris =     -3830.578182
siesta: Etot    =     -3938.437335
siesta: FreeEng =     -3938.446705

        iscf     Eharris(eV)        E_KS(eV)     FreeEng(eV)     dDmax    Ef(eV) dHmax(eV)
   scf:    1    -3830.578182    -3938.437335    -3938.446705  0.930713 -4.998071 25.494679
     spin moment: S , {S} =    2.08869   0.00004  -0.00001   2.08869
timer: Routine,Calls,Time,% = IterSCF        1       5.533  20.45
   scf:    2    -3949.902214    -3967.829705    -3967.831565  0.595821 -4.026603 15.857117
     spin moment: S , {S} =    4.00449   0.00001   0.00000   4.00449
   scf:    3    -3964.671617    -3978.769179    -3978.772223  0.526259 -4.173697 14.157144
     spin moment: S , {S} =    0.02076   0.00001  -0.00001   0.02076
   scf:    4    -3985.664190    -3982.726657    -3982.726943  0.069734 -3.776447  7.364176
     spin moment: S , {S} =    0.00147   0.00000  -0.00001   0.00147
   scf:    5    -3981.175434    -3983.464576    -3983.496611  0.323386 -3.739533  4.400628
     spin moment: S , {S} =    1.37883   0.00000   0.00002   1.37883
   scf:    6    -3984.215730    -3984.567875    -3984.573081  0.288593 -3.686320  2.693675
     spin moment: S , {S} =    0.04144  -0.00000  -0.00001   0.04144
   scf:    7    -3985.395125    -3984.983471    -3984.984038  0.031333 -3.741374  0.943970
     spin moment: S , {S} =    0.00293  -0.00000  -0.00001   0.00293
   scf:    8    -3985.159107    -3985.076335    -3985.076650  0.013832 -3.788908  0.571301
     spin moment: S , {S} =    0.00138  -0.00000  -0.00001   0.00138
   scf:    9    -3985.133212    -3985.110545    -3985.110999  0.009577 -3.804670  0.281487
     spin moment: S , {S} =    0.00145  -0.00000  -0.00001   0.00145
   scf:   10    -3985.145172    -3985.127173    -3985.127591  0.007060 -3.823670  0.141217
     spin moment: S , {S} =    0.00061  -0.00000  -0.00000   0.00061
   scf:   11    -3985.144572    -3985.135402    -3985.135790  0.005528 -3.830079  0.077773
     spin moment: S , {S} =    0.00021  -0.00000  -0.00000   0.00021
   scf:   12    -3985.144120    -3985.139493    -3985.139864  0.004423 -3.830433  0.058664
     spin moment: S , {S} =    0.00002   0.00000  -0.00000  -0.00002
   scf:   13    -3985.147543    -3985.142773    -3985.143146  0.007248 -3.829538  0.027542
     spin moment: S , {S} =    0.00030   0.00000   0.00000  -0.00030
   scf:   14    -3985.143397    -3985.143056    -3985.143419  0.001940 -3.828312  0.019107
     spin moment: S , {S} =    0.00026   0.00000   0.00000  -0.00026
   scf:   15    -3985.143410    -3985.143213    -3985.143572  0.001948 -3.827224  0.011205
     spin moment: S , {S} =    0.00015   0.00000   0.00000  -0.00015
   scf:   16    -3985.143318    -3985.143261    -3985.143620  0.001022 -3.826782  0.008200
     spin moment: S , {S} =    0.00009   0.00000   0.00000  -0.00009
   scf:   17    -3985.143316    -3985.143285    -3985.143643  0.000806 -3.826728  0.005545
     spin moment: S , {S} =    0.00005   0.00000   0.00000  -0.00005
   scf:   18    -3985.143310    -3985.143296    -3985.143654  0.000572 -3.826778  0.003702
     spin moment: S , {S} =    0.00002   0.00000   0.00000  -0.00002
   scf:   19    -3985.143306    -3985.143300    -3985.143658  0.000426 -3.826793  0.001683
     spin moment: S , {S} =    0.00001   0.00000   0.00000  -0.00001
   scf:   20    -3985.143303    -3985.143301    -3985.143659  0.000154 -3.826824  0.000979
     spin moment: S , {S} =    0.00001   0.00000   0.00000  -0.00001
   scf:   21    -3985.143303    -3985.143302    -3985.143660  0.000116 -3.826813  0.000461
     spin moment: S , {S} =    0.00001   0.00000   0.00000  -0.00001
   scf:   22    -3985.143303    -3985.143302    -3985.143660  0.000081 -3.826817  0.000392
     spin moment: S , {S} =    0.00001   0.00000   0.00000  -0.00001
   scf:   23    -3985.143302    -3985.143302    -3985.143660  0.000075 -3.826830  0.000296
     spin moment: S , {S} =    0.00001   0.00000   0.00000  -0.00001
   scf:   24    -3985.143302    -3985.143302    -3985.143660  0.000032 -3.826838  0.000241
     spin moment: S , {S} =    0.00001   0.00000   0.00000  -0.00001
mix: Pulay -- resetting history
   scf:   25    -3985.143302    -3985.143302    -3985.143660  0.000028 -3.826839  0.000192
     spin moment: S , {S} =    0.00000   0.00000   0.00000  -0.00000
   scf:   26    -3985.143303    -3985.143302    -3985.143660  0.000033 -3.826838  0.000139
     spin moment: S , {S} =    0.00000   0.00000   0.00000  -0.00000
   scf:   27    -3985.143302    -3985.143302    -3985.143660  0.000033 -3.826836  0.000082
     spin moment: S , {S} =    0.00000   0.00000   0.00000  -0.00000
   scf:   28    -3985.143302    -3985.143302    -3985.143660  0.000014 -3.826834  0.000064
     spin moment: S , {S} =    0.00000   0.00000   0.00000  -0.00000
   scf:   29    -3985.143302    -3985.143302    -3985.143660  0.000022 -3.826834  0.000032
     spin moment: S , {S} =    0.00000   0.00000   0.00000  -0.00000
   scf:   30    -3985.143302    -3985.143302    -3985.143660  0.000015 -3.826835  0.000016
     spin moment: S , {S} =    0.00000   0.00000   0.00000  -0.00000
   scf:   31    -3985.143302    -3985.143302    -3985.143660  0.000007 -3.826835  0.000011
     spin moment: S , {S} =    0.00000   0.00000   0.00000   0.00000
   scf:   32    -3985.143302    -3985.143302    -3985.143660  0.000002 -3.826835  0.000007
     spin moment: S , {S} =    0.00000  -0.00000   0.00000   0.00000
   scf:   33    -3985.143302    -3985.143302    -3985.143660  0.000001 -3.826835  0.000005
     spin moment: S , {S} =    0.00000  -0.00000   0.00000   0.00000
   scf:   34    -3985.143302    -3985.143302    -3985.143660  0.000001 -3.826835  0.000003
     spin moment: S , {S} =    0.00000  -0.00000   0.00000   0.00000
   scf:   35    -3985.143302    -3985.143302    -3985.143660  0.000000 -3.826835  0.000002
     spin moment: S , {S} =    0.00000  -0.00000   0.00000   0.00000
   scf:   36    -3985.143302    -3985.143302    -3985.143660  0.000000 -3.826835  0.000001
     spin moment: S , {S} =    0.00000  -0.00000   0.00000   0.00000

SCF Convergence by DM+H criterion
max |DM_out - DM_in|         :     0.0000001801
max |H_out - H_in|      (eV) :     0.0000007553
SCF cycle converged after 36 iterations

Using DM_out to compute the final energy and forces
No. of atoms with KB's overlaping orbs in proc 0. Max # of overlaps:      24     224

siesta: E_KS(eV) =            -3985.1433

siesta: E_KS - E_eggbox =     -3985.1433
     spin moment: S , {S} =    0.00000  -0.00000   0.00000   0.00000

siesta: Atomic forces (eV/Ang):
     1   -0.010626   -0.030295    0.000026
     2   -0.131041   -0.248727   -0.000295
     3    0.142013    0.081932   -0.000212
     4   -0.051140   -0.011951    0.000136
     5   -0.065613   -0.020082    0.000250
     6    0.205692   -0.030975    0.000508
     7   -2.524385   -0.616958    0.000905
     8   -0.466736  -19.606652   -0.005878
     9  -12.502304  -24.403363    0.005413
    10   -0.023009   -0.960418   -0.000056
    11   -0.650089  -10.177162   -0.000925
    12   -0.133433   -4.556514   -0.001406
    13    0.334513   -2.724259   -0.000096
    14   -0.429110   -0.991006    0.001113
    15    0.364121   -0.089248   -0.000386
    16    0.744040   -0.355624    0.009378
    17   -0.195711    0.181395   -0.030784
    18    0.027151    0.151722    0.003210
    19   -0.176048   -0.226438   -0.053128
    20    0.143704    0.026121    0.011804
    21   -0.154116    0.176612    0.085241
    22   -0.030937    0.069273    0.030211
    23   -0.024425    0.173404   -0.027004
    24    2.234680    2.326865   -0.020962
    25   15.536993   40.585541    0.004693
    26    0.388956   10.610065    0.009634
    27   -0.687166   -0.488820    0.001863
    28   -3.313347    2.480753   -0.002294
    29    5.803287    9.987721   -0.000864
    30    0.065189    0.310488    0.005411
----------------------------------------
   Tot    4.421104    1.623398    0.025504
----------------------------------------
   Max   40.585541
   Res    6.184208    sqrt( Sum f_i^2 / 3N )
----------------------------------------
   Max   40.585541    constrained

Stress tensor Voigt[x,y,z,yz,xz,xy] (kbar):       -5.37      -43.02       -0.24       -0.05        0.06       -7.01
(Free)E + p*V (eV/cell)    -3946.3123
Target enthalpy (eV/cell)    -3985.1437

mulliken: Atomic and Orbital Populations:

Species: H                   

Atom      Orb        Charge      Spin       Svec
----------------------------------------------------------------
    1  1 1s         0.51464   0.00000      0.000  -0.000   0.000
    1  2 1s         0.18698   0.00000      0.000   0.000   0.000
    1  3 2Ppy       0.02868   0.00000      0.000   0.000  -0.000
    1  4 2Ppz       0.04014   0.00000      0.000   0.000   0.000
    1  5 2Ppx       0.02522   0.00000      0.000  -0.000   0.000
    1     Total     0.79565   0.00000      0.000   0.000   0.000

    4  1 1s         1.02435   0.00000      0.000   0.000   0.000
    4  2 1s         0.09523   0.00000     -0.000   0.000   0.000
    4  3 2Ppy       0.03906   0.00000     -0.000   0.000   0.000
    4  4 2Ppz       0.01951   0.00000      0.000  -0.000   0.000
    4  5 2Ppx       0.01368   0.00000      0.000  -0.000   0.000
    4     Total     1.19183   0.00000      0.000   0.000   0.000

    9  1 1s         0.05273   0.00000      0.000   0.000  -0.000
    9  2 1s         0.39100   0.00000     -0.000  -0.000   0.000
    9  3 2Ppy       0.17584   0.00000      0.000   0.000   0.000
    9  4 2Ppz       0.11295   0.00000     -0.000  -0.000  -0.000
    9  5 2Ppx       0.07415   0.00000     -0.000  -0.000  -0.000
    9     Total     0.80667   0.00000      0.000  -0.000  -0.000

   10  1 1s         0.53387   0.00000     -0.000  -0.000   0.000
   10  2 1s         0.18417   0.00000      0.000   0.000   0.000
   10  3 2Ppy       0.03746   0.00000      0.000   0.000   0.000
   10  4 2Ppz       0.05071   0.00000     -0.000   0.000  -0.000
   10  5 2Ppx       0.03362   0.00000     -0.000  -0.000  -0.000
   10     Total     0.83984   0.00000     -0.000   0.000   0.000

   13  1 1s         0.48183   0.00000     -0.000   0.000   0.000
   13  2 1s         0.22034   0.00000      0.000   0.000   0.000
   13  3 2Ppy       0.13916   0.00000      0.000  -0.000  -0.000
   13  4 2Ppz       0.05610   0.00000     -0.000   0.000   0.000
   13  5 2Ppx       0.08029   0.00000      0.000   0.000   0.000
   13     Total     0.97771   0.00000     -0.000   0.000   0.000

   18  1 1s         1.04483   0.00000     -0.000   0.000  -0.000
   18  2 1s         0.08514   0.00000      0.000  -0.000   0.000
   18  3 2Ppy       0.02790   0.00000      0.000   0.000  -0.000
   18  4 2Ppz       0.02037   0.00000     -0.000  -0.000   0.000
   18  5 2Ppx       0.01805   0.00000     -0.000  -0.000  -0.000
   18     Total     1.19629   0.00000     -0.000   0.000  -0.000

   21  1 1s         1.06683   0.00000     -0.000   0.000  -0.000
   21  2 1s         0.08249   0.00000     -0.000  -0.000   0.000
   21  3 2Ppy       0.02224   0.00000     -0.000  -0.000   0.000
   21  4 2Ppz       0.02087   0.00000      0.000  -0.000   0.000
   21  5 2Ppx       0.01209   0.00000     -0.000   0.000  -0.000
   21     Total     1.20451   0.00000     -0.000   0.000  -0.000

   22  1 1s         1.05944   0.00000     -0.000   0.000  -0.000
   22  2 1s         0.08268   0.00000      0.000  -0.000   0.000
   22  3 2Ppy       0.01969   0.00000      0.000  -0.000   0.000
   22  4 2Ppz       0.01776   0.00000     -0.000   0.000  -0.000
   22  5 2Ppx       0.01727   0.00000      0.000   0.000   0.000
   22     Total     1.19684   0.00000     -0.000   0.000  -0.000

   23  1 1s         1.06519   0.00000     -0.000  -0.000  -0.000
   23  2 1s         0.08251   0.00000      0.000  -0.000   0.000
   23  3 2Ppy       0.01684   0.00000      0.000  -0.000   0.000
   23  4 2Ppz       0.02439   0.00000      0.000   0.000   0.000
   23  5 2Ppx       0.01382   0.00000      0.000   0.000   0.000
   23     Total     1.20276   0.00000      0.000  -0.000  -0.000

   27  1 1s         0.29851   0.00000     -0.000   0.000  -0.000
   27  2 1s         0.24585   0.00000      0.000  -0.000   0.000
   27  3 2Ppy       0.17976   0.00000     -0.000   0.000   0.000
   27  4 2Ppz       0.07252   0.00000      0.000  -0.000   0.000
   27  5 2Ppx       0.07130   0.00000      0.000  -0.000   0.000
   27     Total     0.86795   0.00000     -0.000   0.000  -0.000

   30  1 1s         0.50487   0.00000      0.000   0.000   0.000
   30  2 1s         0.18542   0.00000     -0.000   0.000   0.000
   30  3 2Ppy       0.02994   0.00000      0.000   0.000   0.000
   30  4 2Ppz       0.03565   0.00000      0.000  -0.000   0.000
   30  5 2Ppx       0.02568   0.00000      0.000   0.000   0.000
   30     Total     0.78156   0.00000      0.000   0.000   0.000

----------------------------------------------------------------
Total              11.06162   0.00000     -0.000   0.000  -0.000


Species: N                   

Atom      Orb        Charge      Spin       Svec
----------------------------------------------------------------
    2  1 2s         1.38171   0.00000     -0.000   0.000   0.000
    2  2 2s         0.12613   0.00000      0.000  -0.000  -0.000
    2  3 2py        1.07404   0.00000      0.000   0.000   0.000
    2  4 2pz        1.48775   0.00000     -0.000  -0.000  -0.000
    2  5 2px        1.01075   0.00000     -0.000  -0.000  -0.000
    2  6 2py        0.19559   0.00000     -0.000  -0.000  -0.000
    2  7 2pz        0.01514   0.00000      0.000   0.000  -0.000
    2  8 2px        0.21180   0.00000      0.000   0.000  -0.000
    2  9 3Pdxy      0.00717   0.00000     -0.000  -0.000   0.000
    2 10 3Pdyz      0.00562   0.00000     -0.000   0.000  -0.000
    2 11 3Pdz2      0.00158   0.00000     -0.000   0.000   0.000
    2 12 3Pdxz      0.00303   0.00000      0.000   0.000   0.000
    2 13 3Pdx2-y2   0.00306   0.00000     -0.000   0.000   0.000
    2     Total     5.52339   0.00000     -0.000  -0.000  -0.000

    5  1 2s         1.55797   0.00000     -0.000  -0.000  -0.000
    5  2 2s         0.08162   0.00000      0.000   0.000   0.000
    5  3 2py        0.90199   0.00000     -0.000  -0.000  -0.000
    5  4 2pz        1.22200   0.00000     -0.000   0.000  -0.000
    5  5 2px        1.14514   0.00000     -0.000  -0.000  -0.000
    5  6 2py        0.22947   0.00000      0.000   0.000   0.000
    5  7 2pz        0.05535   0.00000     -0.000   0.000   0.000
    5  8 2px        0.14551   0.00000      0.000   0.000   0.000
    5  9 3Pdxy      0.00868   0.00000      0.000  -0.000  -0.000
    5 10 3Pdyz      0.00673   0.00000      0.000   0.000  -0.000
    5 11 3Pdz2      0.00193   0.00000      0.000   0.000  -0.000
    5 12 3Pdxz      0.01132   0.00000      0.000  -0.000   0.000
    5 13 3Pdx2-y2   0.00928   0.00000      0.000  -0.000  -0.000
    5     Total     5.37699   0.00000     -0.000  -0.000  -0.000

    8  1 2s         1.35369   0.00000     -0.000  -0.000   0.000
    8  2 2s         0.13682   0.00000      0.000   0.000  -0.000
    8  3 2py        1.15386   0.00000      0.000   0.000   0.000
    8  4 2pz        1.42647   0.00000      0.000   0.000  -0.000
    8  5 2px        0.97862   0.00000      0.000   0.000  -0.000
    8  6 2py        0.12704   0.00000     -0.000  -0.000  -0.000
    8  7 2pz        0.03362   0.00000     -0.000  -0.000   0.000
    8  8 2px        0.22414   0.00000     -0.000  -0.000  -0.000
    8  9 3Pdxy      0.00600   0.00000     -0.000   0.000  -0.000
    8 10 3Pdyz      0.00318   0.00000      0.000   0.000  -0.000
    8 11 3Pdz2      0.00401   0.00000      0.000   0.000  -0.000
    8 12 3Pdxz      0.00270   0.00000     -0.000  -0.000  -0.000
    8 13 3Pdx2-y2   0.00746   0.00000     -0.000  -0.000  -0.000
    8     Total     5.45760   0.00000      0.000   0.000  -0.000

   11  1 2s         1.37485   0.00000      0.000   0.000   0.000
   11  2 2s         0.12024   0.00000     -0.000  -0.000  -0.000
   11  3 2py        1.12884   0.00000      0.000  -0.000   0.000
   11  4 2pz        1.40978   0.00000     -0.000   0.000   0.000
   11  5 2px        0.88977   0.00000     -0.000   0.000  -0.000
   11  6 2py        0.17023   0.00000     -0.000  -0.000  -0.000
   11  7 2pz        0.02377   0.00000      0.000  -0.000  -0.000
   11  8 2px        0.29022   0.00000      0.000  -0.000  -0.000
   11  9 3Pdxy      0.00387   0.00000     -0.000   0.000  -0.000
   11 10 3Pdyz      0.00436   0.00000      0.000  -0.000   0.000
   11 11 3Pdz2      0.00242   0.00000      0.000   0.000  -0.000
   11 12 3Pdxz      0.00567   0.00000      0.000  -0.000  -0.000
   11 13 3Pdx2-y2   0.01208   0.00000     -0.000   0.000   0.000
   11     Total     5.43610   0.00000      0.000   0.000   0.000

   14  1 2s         1.50196   0.00000     -0.000  -0.000   0.000
   14  2 2s         0.10487   0.00000      0.000   0.000   0.000
   14  3 2py        0.84965   0.00000      0.000   0.000   0.000
   14  4 2pz        1.21772   0.00000     -0.000   0.000   0.000
   14  5 2px        1.12970   0.00000      0.000  -0.000   0.000
   14  6 2py        0.27814   0.00000      0.000  -0.000   0.000
   14  7 2pz        0.05769   0.00000     -0.000  -0.000  -0.000
   14  8 2px        0.14522   0.00000      0.000   0.000   0.000
   14  9 3Pdxy      0.00874   0.00000     -0.000   0.000  -0.000
   14 10 3Pdyz      0.00393   0.00000      0.000   0.000  -0.000
   14 11 3Pdz2      0.00194   0.00000     -0.000   0.000  -0.000
   14 12 3Pdxz      0.01055   0.00000     -0.000  -0.000  -0.000
   14 13 3Pdx2-y2   0.00990   0.00000      0.000  -0.000  -0.000
   14     Total     5.32002   0.00000     -0.000   0.000   0.000

   16  1 2s         1.34362   0.00000     -0.000  -0.000  -0.000
   16  2 2s         0.14415   0.00000      0.000   0.000   0.000
   16  3 2py        0.95786   0.00000     -0.000  -0.000  -0.000
   16  4 2pz        1.52365   0.00000      0.000  -0.000  -0.000
   16  5 2px        1.06823   0.00000      0.000  -0.000  -0.000
   16  6 2py        0.25260   0.00000      0.000  -0.000   0.000
   16  7 2pz        0.01133   0.00000     -0.000  -0.000   0.000
   16  8 2px        0.18693   0.00000     -0.000   0.000   0.000
   16  9 3Pdxy      0.00249   0.00000     -0.000   0.000   0.000
   16 10 3Pdyz      0.00511   0.00000      0.000   0.000   0.000
   16 11 3Pdz2      0.00194   0.00000     -0.000   0.000   0.000
   16 12 3Pdxz      0.00238   0.00000      0.000  -0.000   0.000
   16 13 3Pdx2-y2   0.00621   0.00000      0.000  -0.000   0.000
   16     Total     5.50650   0.00000     -0.000  -0.000  -0.000

   26  1 2s         1.39183   0.00000      0.000  -0.000  -0.000
   26  2 2s         0.11081   0.00000     -0.000   0.000  -0.000
   26  3 2py        1.19992   0.00000      0.000  -0.000  -0.000
   26  4 2pz        1.40663   0.00000     -0.000  -0.000  -0.000
   26  5 2px        0.83297   0.00000     -0.000  -0.000  -0.000
   26  6 2py        0.15114   0.00000     -0.000   0.000  -0.000
   26  7 2pz        0.01930   0.00000      0.000   0.000   0.000
   26  8 2px        0.29941   0.00000      0.000  -0.000   0.000
   26  9 3Pdxy      0.00294   0.00000     -0.000   0.000   0.000
   26 10 3Pdyz      0.00378   0.00000      0.000   0.000   0.000
   26 11 3Pdz2      0.00020   0.00000     -0.000  -0.000  -0.000
   26 12 3Pdxz      0.00409   0.00000      0.000  -0.000   0.000
   26 13 3Pdx2-y2   0.00971   0.00000      0.000  -0.000  -0.000
   26     Total     5.43272   0.00000      0.000  -0.000  -0.000

----------------------------------------------------------------
Total              49.11493   0.00000      0.000   0.000  -0.000


Species: Si                  

Atom      Orb        Charge      Spin       Svec
----------------------------------------------------------------
    3  1 3s         0.55296   0.00000     -0.000   0.000   0.000
    3  2 3s         0.38720   0.00000      0.000  -0.000   0.000
    3  3 3py        0.08350   0.00000     -0.000  -0.000  -0.000
    3  4 3pz        0.52682   0.00000      0.000  -0.000   0.000
    3  5 3px        0.37710   0.00000      0.000   0.000   0.000
    3  6 3py        0.49769   0.00000      0.000   0.000   0.000
    3  7 3pz        0.17356   0.00000      0.000  -0.000   0.000
    3  8 3px        0.23664   0.00000     -0.000  -0.000   0.000
    3  9 3Pdxy      0.11000   0.00000      0.000   0.000   0.000
    3 10 3Pdyz      0.05144   0.00000      0.000  -0.000  -0.000
    3 11 3Pdz2      0.01070   0.00000     -0.000   0.000   0.000
    3 12 3Pdxz      0.13515   0.00000      0.000  -0.000   0.000
    3 13 3Pdx2-y2   0.32646   0.00000     -0.000  -0.000  -0.000
    3     Total     3.46922   0.00000      0.000  -0.000   0.000

    6  1 3s         0.67012   0.00000      0.000   0.000  -0.000
    6  2 3s         0.37059   0.00000     -0.000  -0.000   0.000
    6  3 3py        0.13770   0.00000      0.000   0.000  -0.000
    6  4 3pz        0.67305   0.00000      0.000  -0.000   0.000
    6  5 3px        0.49135   0.00000      0.000   0.000   0.000
    6  6 3py        0.46600   0.00000     -0.000  -0.000   0.000
    6  7 3pz        0.23348   0.00000     -0.000   0.000   0.000
    6  8 3px        0.24659   0.00000      0.000  -0.000   0.000
    6  9 3Pdxy      0.18080   0.00000     -0.000   0.000   0.000
    6 10 3Pdyz      0.14593   0.00000      0.000   0.000   0.000
    6 11 3Pdz2      0.01362   0.00000      0.000  -0.000   0.000
    6 12 3Pdxz      0.03754   0.00000      0.000  -0.000  -0.000
    6 13 3Pdx2-y2   0.18588   0.00000     -0.000  -0.000  -0.000
    6     Total     3.85266   0.00000      0.000   0.000   0.000

    7  1 3s         0.65083   0.00000      0.000  -0.000  -0.000
    7  2 3s         0.35279   0.00000     -0.000   0.000  -0.000
    7  3 3py        0.32888   0.00000     -0.000  -0.000   0.000
    7  4 3pz        0.52135   0.00000     -0.000  -0.000  -0.000
    7  5 3px        0.09730   0.00000      0.000  -0.000   0.000
    7  6 3py        0.32657   0.00000     -0.000   0.000  -0.000
    7  7 3pz        0.19690   0.00000      0.000  -0.000   0.000
    7  8 3px        0.41911   0.00000     -0.000  -0.000   0.000
    7  9 3Pdxy      0.21425   0.00000     -0.000  -0.000   0.000
    7 10 3Pdyz      0.12949   0.00000     -0.000   0.000  -0.000
    7 11 3Pdz2      0.01086   0.00000     -0.000  -0.000   0.000
    7 12 3Pdxz      0.14895   0.00000      0.000   0.000  -0.000
    7 13 3Pdx2-y2   0.23327   0.00000     -0.000  -0.000  -0.000
    7     Total     3.63055   0.00000     -0.000  -0.000  -0.000

   12  1 3s         0.88696   0.00000      0.000  -0.000  -0.000
   12  2 3s         0.30689   0.00000     -0.000   0.000   0.000
   12  3 3py        0.27567   0.00000      0.000   0.000   0.000
   12  4 3pz        0.36857   0.00000      0.000  -0.000  -0.000
   12  5 3px        0.38318   0.00000      0.000   0.000  -0.000
   12  6 3py        0.40866   0.00000     -0.000  -0.000  -0.000
   12  7 3pz        0.15205   0.00000      0.000   0.000  -0.000
   12  8 3px        0.28092   0.00000      0.000  -0.000  -0.000
   12  9 3Pdxy      0.28959   0.00000     -0.000   0.000  -0.000
   12 10 3Pdyz      0.08825   0.00000     -0.000  -0.000  -0.000
   12 11 3Pdz2      0.03787   0.00000     -0.000   0.000  -0.000
   12 12 3Pdxz      0.08610   0.00000      0.000   0.000  -0.000
   12 13 3Pdx2-y2   0.17040   0.00000     -0.000   0.000  -0.000
   12     Total     3.73512   0.00000      0.000  -0.000  -0.000

   15  1 3s         0.69923   0.00000      0.000  -0.000  -0.000
   15  2 3s         0.35615   0.00000     -0.000   0.000  -0.000
   15  3 3py        0.00251   0.00000      0.000   0.000   0.000
   15  4 3pz        0.49166   0.00000     -0.000   0.000  -0.000
   15  5 3px        0.41471   0.00000     -0.000   0.000  -0.000
   15  6 3py        0.45366   0.00000     -0.000  -0.000  -0.000
   15  7 3pz        0.19104   0.00000      0.000  -0.000  -0.000
   15  8 3px        0.33685   0.00000     -0.000  -0.000  -0.000
   15  9 3Pdxy      0.14431   0.00000     -0.000  -0.000  -0.000
   15 10 3Pdyz      0.12927   0.00000      0.000   0.000  -0.000
   15 11 3Pdz2      0.01815   0.00000     -0.000   0.000  -0.000
   15 12 3Pdxz      0.12386   0.00000      0.000   0.000  -0.000
   15 13 3Pdx2-y2   0.31657   0.00000     -0.000   0.000  -0.000
   15     Total     3.67797   0.00000      0.000   0.000  -0.000

   17  1 3s         0.73370   0.00000      0.000   0.000   0.000
   17  2 3s         0.35372   0.00000     -0.000  -0.000   0.000
   17  3 3py        0.11067   0.00000      0.000  -0.000   0.000
   17  4 3pz        0.66100   0.00000     -0.000  -0.000   0.000
   17  5 3px        0.36856   0.00000     -0.000  -0.000   0.000
   17  6 3py        0.43929   0.00000     -0.000   0.000  -0.000
   17  7 3pz        0.14688   0.00000      0.000   0.000   0.000
   17  8 3px        0.32343   0.00000     -0.000   0.000  -0.000
   17  9 3Pdxy      0.16501   0.00000      0.000   0.000  -0.000
   17 10 3Pdyz      0.02423   0.00000      0.000   0.000   0.000
   17 11 3Pdz2      0.01098   0.00000      0.000  -0.000  -0.000
   17 12 3Pdxz      0.11589   0.00000      0.000  -0.000   0.000
   17 13 3Pdx2-y2   0.12385   0.00000     -0.000  -0.000   0.000
   17     Total     3.57721   0.00000      0.000  -0.000   0.000

   19  1 3s         0.87200   0.00000     -0.000   0.000  -0.000
   19  2 3s         0.31523   0.00000     -0.000  -0.000  -0.000
   19  3 3py        0.42740   0.00000      0.000   0.000  -0.000
   19  4 3pz        0.65064   0.00000     -0.000  -0.000  -0.000
   19  5 3px        0.34351   0.00000     -0.000   0.000  -0.000
   19  6 3py        0.32791   0.00000     -0.000  -0.000  -0.000
   19  7 3pz        0.25765   0.00000      0.000   0.000  -0.000
   19  8 3px        0.35653   0.00000      0.000  -0.000  -0.000
   19  9 3Pdxy      0.10669   0.00000     -0.000   0.000  -0.000
   19 10 3Pdyz      0.03496   0.00000     -0.000  -0.000   0.000
   19 11 3Pdz2      0.01648   0.00000     -0.000   0.000   0.000
   19 12 3Pdxz      0.05835   0.00000     -0.000  -0.000   0.000
   19 13 3Pdx2-y2   0.13278   0.00000      0.000  -0.000   0.000
   19     Total     3.90011   0.00000      0.000   0.000  -0.000

   20  1 3s         0.54321   0.00000     -0.000  -0.000   0.000
   20  2 3s         0.44214   0.00000      0.000   0.000   0.000
   20  3 3py        0.31584   0.00000     -0.000  -0.000   0.000
   20  4 3pz        0.25873   0.00000      0.000  -0.000   0.000
   20  5 3px        0.46621   0.00000      0.000  -0.000   0.000
   20  6 3py        0.38248   0.00000      0.000   0.000   0.000
   20  7 3pz        0.41906   0.00000      0.000   0.000   0.000
   20  8 3px        0.27699   0.00000     -0.000   0.000   0.000
   20  9 3Pdxy      0.07245   0.00000      0.000  -0.000   0.000
   20 10 3Pdyz      0.08466   0.00000      0.000  -0.000  -0.000
   20 11 3Pdz2      0.05091   0.00000     -0.000  -0.000  -0.000
   20 12 3Pdxz      0.07052   0.00000      0.000   0.000  -0.000
   20 13 3Pdx2-y2   0.04599   0.00000      0.000   0.000   0.000
   20     Total     3.42920   0.00000      0.000  -0.000   0.000

   24  1 3s         0.68516   0.00000     -0.000   0.000  -0.000
   24  2 3s         0.33628   0.00000      0.000  -0.000  -0.000
   24  3 3py        0.32908   0.00000      0.000   0.000   0.000
   24  4 3pz        0.38861   0.00000     -0.000  -0.000   0.000
   24  5 3px        0.29272   0.00000      0.000  -0.000   0.000
   24  6 3py        0.34362   0.00000     -0.000  -0.000  -0.000
   24  7 3pz        0.19994   0.00000     -0.000  -0.000  -0.000
   24  8 3px        0.28697   0.00000     -0.000   0.000  -0.000
   24  9 3Pdxy      0.18765   0.00000     -0.000  -0.000  -0.000
   24 10 3Pdyz      0.13128   0.00000     -0.000  -0.000  -0.000
   24 11 3Pdz2      0.01568   0.00000     -0.000  -0.000  -0.000
   24 12 3Pdxz      0.10433   0.00000      0.000   0.000  -0.000
   24 13 3Pdx2-y2   0.29243   0.00000      0.000  -0.000  -0.000
   24     Total     3.59376   0.00000     -0.000   0.000  -0.000

   28  1 3s         0.50740   0.00000     -0.000   0.000   0.000
   28  2 3s         0.35527   0.00000      0.000  -0.000   0.000
   28  3 3py        0.05013   0.00000     -0.000  -0.000  -0.000
   28  4 3pz        0.34644   0.00000     -0.000   0.000   0.000
   28  5 3px        0.25725   0.00000     -0.000   0.000   0.000
   28  6 3py        0.44325   0.00000     -0.000   0.000   0.000
   28  7 3pz        0.21403   0.00000     -0.000   0.000   0.000
   28  8 3px        0.32272   0.00000      0.000   0.000   0.000
   28  9 3Pdxy      0.17302   0.00000     -0.000  -0.000   0.000
   28 10 3Pdyz      0.13692   0.00000     -0.000   0.000   0.000
   28 11 3Pdz2      0.00927   0.00000     -0.000  -0.000   0.000
   28 12 3Pdxz      0.14219   0.00000     -0.000   0.000   0.000
   28 13 3Pdx2-y2   0.28546   0.00000     -0.000   0.000   0.000
   28     Total     3.24334   0.00000     -0.000   0.000   0.000

----------------------------------------------------------------
Total              85.22406   0.00000     -0.000  -0.000   0.000


Species: O                   

Atom      Orb        Charge      Spin       Svec
----------------------------------------------------------------
   25  1 2s         1.55199   0.00000     -0.000  -0.000   0.000
   25  2 2s         0.13292   0.00000      0.000   0.000  -0.000
   25  3 2py        1.17314   0.00000      0.000   0.000   0.000
   25  4 2pz        1.65086   0.00000      0.000   0.000   0.000
   25  5 2px        1.50196   0.00000     -0.000   0.000  -0.000
   25  6 2py        0.20425   0.00000     -0.000  -0.000   0.000
   25  7 2pz        0.00877   0.00000     -0.000   0.000   0.000
   25  8 2px        0.10267   0.00000      0.000  -0.000   0.000
   25  9 3Pdxy      0.00744   0.00000     -0.000   0.000  -0.000
   25 10 3Pdyz      0.00855   0.00000     -0.000  -0.000   0.000
   25 11 3Pdz2      0.00361   0.00000     -0.000   0.000  -0.000
   25 12 3Pdxz      0.00260   0.00000     -0.000  -0.000   0.000
   25 13 3Pdx2-y2   0.01521   0.00000      0.000   0.000  -0.000
   25     Total     6.36397   0.00000      0.000   0.000   0.000

   29  1 2s         1.68706   0.00000      0.000   0.000   0.000
   29  2 2s         0.05960   0.00000      0.000  -0.000  -0.000
   29  3 2py        1.23124   0.00000      0.000  -0.000  -0.000
   29  4 2pz        1.65662   0.00000      0.000   0.000  -0.000
   29  5 2px        1.56550   0.00000     -0.000   0.000  -0.000
   29  6 2py        0.13872   0.00000     -0.000  -0.000  -0.000
   29  7 2pz       -0.00631   0.00000     -0.000  -0.000   0.000
   29  8 2px        0.04382   0.00000     -0.000  -0.000   0.000
   29  9 3Pdxy      0.00936   0.00000     -0.000  -0.000   0.000
   29 10 3Pdyz      0.00177   0.00000     -0.000   0.000   0.000
   29 11 3Pdz2      0.00333   0.00000     -0.000   0.000  -0.000
   29 12 3Pdxz      0.00700   0.00000      0.000  -0.000   0.000
   29 13 3Pdx2-y2   0.01428   0.00000     -0.000   0.000   0.000
   29     Total     6.41198   0.00000      0.000   0.000  -0.000

----------------------------------------------------------------
Total              98.00000   0.00000     -0.000   0.000   0.000


siesta: Eigenvalues (eV):
ik =     1
  -27.6688  -27.6688  -25.8963  -25.8963  -22.3030  -22.3030  -21.9499  -21.9499  -20.8069  -20.8069
  -19.9782  -19.9782  -19.2876  -19.2876  -19.1180  -19.1180  -18.6393  -18.6393  -16.1371  -16.1371
  -15.1766  -15.1766  -14.8387  -14.8387  -14.1595  -14.1595  -13.6079  -13.6079  -13.3694  -13.3694
  -12.9640  -12.9640  -12.7294  -12.7294  -12.4614  -12.4614  -12.0438  -12.0438  -11.6481  -11.6481
  -11.0383  -11.0383  -10.6813  -10.6813  -10.5684  -10.5684  -10.1563  -10.1563   -9.8450   -9.8450
   -9.6754   -9.6754   -9.5399   -9.5399   -9.5194   -9.5194   -9.4214   -9.4214   -9.0345   -9.0345
   -8.9465   -8.9465   -8.6159   -8.6159   -8.5527   -8.5527   -8.5418   -8.5418   -8.2709   -8.2709
   -8.0010   -8.0010   -7.7894   -7.7894   -7.7056   -7.7056   -7.1643   -7.1643   -7.0889   -7.0889
   -6.4459   -6.4459   -6.0580   -6.0580   -5.9313   -5.9313   -5.8753   -5.8753   -5.5738   -5.5738
   -5.3425   -5.3425   -4.7977   -4.7977   -4.7415   -4.7415   -4.0297   -4.0297   -3.6240   -3.6240
   -2.7351   -2.7351   -2.6086   -2.6086   -2.5272   -2.5272   -2.0621   -2.0621   -2.0548   -2.0548
   -1.8883   -1.8883   -1.6253   -1.6253   -1.5332   -1.5332   -1.3829   -1.3829   -1.2424   -1.2424
   -0.9572   -0.9571   -0.4402   -0.4402   -0.3153   -0.3152   -0.1593   -0.1593   -0.1144   -0.1144
   -0.0184   -0.0184    0.2345    0.2345    0.3916    0.3916    0.4188    0.4188    0.6699    0.6699
    0.9406    0.9406    0.9464    0.9464    1.2287    1.2287    1.3207    1.3207    1.4661    1.4661
    1.8323    1.8323    1.8811    1.8811    2.0751    2.0751    2.5065    2.5065    2.5761    2.5761
    2.5942    2.5942    2.8052    2.8052    2.8411    2.8411    3.0487    3.0487    3.1460    3.1460
    3.2563    3.2563    3.3228    3.3228    3.6745    3.6745    3.9149    3.9149    3.9995    3.9995
    4.0680    4.0680    4.1599    4.1599    4.6027    4.6027    4.7092    4.7092    4.8822    4.8822
    4.9535    4.9535    5.1585    5.1585    5.2311    5.2311    5.2486    5.2486    5.4539    5.4539
    5.7248    5.7248    5.8405    5.8405    5.9515    5.9515    6.2979    6.2979    6.3674    6.3674
    6.4084    6.4084    6.5234    6.5234    6.8403    6.8403    6.9711    6.9711    7.0429    7.0429
    7.1810    7.1810    7.2902    7.2902    7.5243    7.5243    7.6354    7.6354    7.6870    7.6870
    7.8297    7.8297    8.0809    8.0809    8.2549    8.2549    8.4366    8.4366    8.5080    8.5080
    8.6947    8.6947    9.1429    9.1429    9.1807    9.1807    9.4334    9.4334    9.4823    9.4823
    9.6238    9.6238    9.7787    9.7787    9.8675    9.8675    9.9961    9.9961   10.0239   10.0239
   10.3893   10.3893   10.5535   10.5535   10.8720   10.8720   10.8851   10.8851   10.9768   10.9768
   11.2359   11.2359   11.5174   11.5174   11.6388   11.6388   11.6530   11.6530   11.8521   11.8521
   11.8797   11.8797   12.1750   12.1750   12.2039   12.2039   12.2924   12.2924   12.8442   12.8442
   13.0449   13.0449   13.3307   13.3307   13.4121   13.4121   13.4994   13.4994   13.8896   13.8896
   14.1949   14.1949   14.4073   14.4073   14.9037   14.9037   15.0043   15.0043   15.0996   15.0996
   15.4819   15.4819   15.7169   15.7169   15.9568   15.9568   16.3728   16.3728   16.7475   16.7475
   16.8584   16.8584   17.1283   17.1283   17.4956   17.4956   17.6941   17.6941   17.7577   17.7577
   18.1605   18.1605   18.1852   18.1852   18.4742   18.4742   18.5097   18.5097   18.9050   18.9050
   18.9182   18.9182   19.8940   19.8940   19.9998   19.9998   20.5792   20.5792   20.7933   20.7933
   21.1229   21.1229   21.3662   21.3662   21.8153   21.8153   21.8786   21.8786   22.1737   22.1737
   22.5500   22.5500   23.0174   23.0174   23.1503   23.1503   23.4313   23.4313   24.0597   24.0597
   24.3015   24.3015   24.8397   24.8397   25.0424   25.0424   25.4167   25.4167   25.7296   25.7296
   26.1041   26.1041   26.4252   26.4252   27.3234   27.3234   27.9270   27.9270   28.1156   28.1156
   28.4634   28.4634   28.7440   28.7440   29.5530   29.5530   29.6002   29.6002   30.7740   30.7740
   31.0328   31.0328   31.0812   31.0812   31.5736   31.5736   32.0220   32.0220   32.0560   32.0560
   32.3936   32.3936   33.1217   33.1217   33.2014   33.2014   33.7605   33.7605   34.7072   34.7072
   35.2942   35.2942   35.4359   35.4359   36.5606   36.5606   36.5724   36.5724   37.2000   37.2000
   37.4556   37.4556   38.0021   38.0021   38.3918   38.3918   39.5707   39.5707   39.5826   39.5826
   39.8075   39.8075   40.4001   40.4001   41.0768   41.0768   41.1179   41.1179   41.2207   41.2207
   41.6608   41.6608   42.5674   42.5674   42.5905   42.5905   43.1983   43.1983   43.8620   43.8620
   43.9485   43.9485   44.4488   44.4488   44.6642   44.6642   45.3767   45.3767   45.4595   45.4595
   45.7294   45.7294   46.1737   46.1737   46.3362   46.3362   46.5767   46.5767   47.1215   47.1215
   47.9227   47.9227   48.2027   48.2027   48.2953   48.2953   48.9289   48.9289   49.2561   49.2561
   49.4530   49.4530   49.5865   49.5865   49.8154   49.8154   50.2783   50.2783   51.1850   51.1850
   51.4827   51.4827   52.0415   52.0415   53.7907   53.7907   54.0516   54.0516   54.4062   54.4062
   54.8182   54.8182   55.6076   55.6076   55.7724   55.7724   56.9567   56.9567   57.3833   57.3833
   57.4821   57.4821   59.1629   59.1629   60.0000   60.0000   60.1491   60.1491   61.4542   61.4542
   61.6191   61.6191   62.2069   62.2069   62.3569   62.3569   64.9025   64.9025   65.9180   65.9180
   67.6477   67.6477   67.7123   67.7123   68.3591   68.3591   68.5534   68.5534   69.1120   69.1120
   69.3196   69.3196   70.2378   70.2378   70.9700   70.9700   73.1953   73.1953   75.2347   75.2347
   76.5330   76.5330   82.0138   82.0138   86.2068   86.2068   89.5714   89.5714   92.7484   92.7484
   93.6852   93.6852   93.8599   93.8599   96.6211   96.6211   98.8250   98.8250  100.2196  100.2196
  104.0734  104.0734  108.1426  108.1426  110.0092  110.0092  114.6568  114.6568  122.9251  122.9251
  123.9923  123.9923  127.3845  127.3845  130.4397  130.4397  140.6268  140.6268  151.3165  151.3165
  155.6194  155.6194  203.4171  203.4171
siesta: Fermi energy =      -3.826835 eV

siesta: Program's energy decomposition (eV):
siesta: Ebs     =     -1147.473227
siesta: Eions   =      3553.971015
siesta: Ena     =       401.474449
siesta: Ekin    =      2817.320802
siesta: Enl     =     -2593.694147
siesta: Eso     =        -0.004997
siesta: Edftu   =         0.000000
siesta: DEna    =        38.072161
siesta: DUscf   =        14.274101
siesta: DUext   =         0.000000
siesta: Exc     =     -1108.614657
siesta: eta*DQ  =         0.000000
siesta: Emadel  =         0.000000
siesta: Emeta   =         0.000000
siesta: Emolmec =         0.000000
siesta: Ekinion =         0.000000
siesta: Eharris =     -3985.143302
siesta: Etot    =     -3985.143302
siesta: FreeEng =     -3985.143660

siesta: Final energy (eV):
siesta:  Band Struct. =   -1147.473227
siesta:       Kinetic =    2817.320802
siesta:       Hartree =    8812.705748
siesta:       Edftu   =       0.000000
siesta:       Eso     =      -0.004997
siesta:    Ext. field =       0.000000
siesta:   Exch.-corr. =   -1108.614657
siesta:  Ion-electron =  -20150.634557
siesta:       Ion-ion =    5644.084359
siesta:       Ekinion =       0.000000
siesta:         Total =   -3985.143302
siesta:         Fermi =      -3.826835

siesta: Atomic forces (eV/Ang):
siesta:      1   -0.010626   -0.030295    0.000026
siesta:      2   -0.131041   -0.248727   -0.000295
siesta:      3    0.142013    0.081932   -0.000212
siesta:      4   -0.051140   -0.011951    0.000136
siesta:      5   -0.065613   -0.020082    0.000250
siesta:      6    0.205692   -0.030975    0.000508
siesta:      7   -2.524385   -0.616958    0.000905
siesta:      8   -0.466736  -19.606652   -0.005878
siesta:      9  -12.502304  -24.403363    0.005413
siesta:     10   -0.023009   -0.960418   -0.000056
siesta:     11   -0.650089  -10.177162   -0.000925
siesta:     12   -0.133433   -4.556514   -0.001406
siesta:     13    0.334513   -2.724259   -0.000096
siesta:     14   -0.429110   -0.991006    0.001113
siesta:     15    0.364121   -0.089248   -0.000386
siesta:     16    0.744040   -0.355624    0.009378
siesta:     17   -0.195711    0.181395   -0.030784
siesta:     18    0.027151    0.151722    0.003210
siesta:     19   -0.176048   -0.226438   -0.053128
siesta:     20    0.143704    0.026121    0.011804
siesta:     21   -0.154116    0.176612    0.085241
siesta:     22   -0.030937    0.069273    0.030211
siesta:     23   -0.024425    0.173404   -0.027004
siesta:     24    2.234680    2.326865   -0.020962
siesta:     25   15.536993   40.585541    0.004693
siesta:     26    0.388956   10.610065    0.009634
siesta:     27   -0.687166   -0.488820    0.001863
siesta:     28   -3.313347    2.480753   -0.002294
siesta:     29    5.803287    9.987721   -0.000864
siesta:     30    0.065189    0.310488    0.005411
siesta: ----------------------------------------
siesta:    Tot    4.421104    1.623398    0.025504

siesta: Stress tensor (static) (eV/Ang**3):
siesta:    -0.003354   -0.004377    0.000038
siesta:    -0.004377   -0.026848   -0.000031
siesta:     0.000038   -0.000031   -0.000150

siesta: Cell volume =       3838.154864 Ang**3

siesta: Pressure (static):
siesta:                Solid            Molecule  Units
siesta:           0.00011019         -0.00000063  Ry/Bohr**3
siesta:           0.01011719         -0.00005809  eV/Ang**3
siesta:          16.20970565         -0.09306460  kBar
(Free)E+ p_basis*V_orbitals  =       -3964.015575
(Free)Eharris+ p_basis*V_orbitals  =       -3964.015575
     spin moment: S , {S} =    0.00000  -0.00000   0.00000   0.00000

siesta: Electric dipole (a.u.)  =    0.433994    2.511825   -0.013956
siesta: Electric dipole (Debye) =    1.103104    6.384427   -0.035473

cite: Please see "AT.bib" for an exhaustive BiBTeX file.
cite: Please clearly indicate Siesta version in published work: v4.1.5-1-g384057250
cite: This calculation has made use of the following articles
cite: which are encouraged to be cited in a published work.
        Primary SIESTA paper
          DOI: www.doi.org/10.1088/0953-8984/14/11/302
        Spin-orbit coupling (on-site approximation)
          DOI: www.doi.org/10.1088/0953-8984/19/19/489001


WARNING: alloc-realloc-dealloc name mismatch
         Name: atomlist isa
         Size:              -120. Bytes
         Node:     0
         Subsequent mismatches will not be reported
>> End of run:  22-MAY-2023   9:36:24
Job completed
