Siesta Version  : v4.1.5-1-g384057250
Architecture    : gcc
Compiler version: GNU Fortran (Debian 10.2.1-6) 10.2.1 20210110
Compiler flags  : mpifort -O2 -fPIC -ftree-vectorize -fallow-argument-mismatch
PP flags        : -DFC_HAVE_ABORT -DMPI -DSIESTA__FLOOK -DSIESTA__METIS -DSIESTA__MUMPS -DCDF -DNCDF -DNCDF_4 -DNCDF_PARALLEL -DSIESTA__MRRR -DSIESTA__ELPA
Libraries       : libncdf.a libfdict.a  -lflookall -ldl -lnetcdff -lnetcdf -lhdf5_hl -lhdf5 -lhdf5_fortran -lz -lscalapack-openmpi -lopenblas -lmetis -lzmumps -lcmumps -ldmumps -lmumps_common -lpord -lsmumps -lesmumps -lscotch -lscotcherr -fopenmp -lelpa
PARALLEL version
NetCDF support
NetCDF-4 support
NetCDF-4 MPI-IO support
METIS ordering support
Lua support

* Running on 6 nodes in parallel
>> Start of run:  16-OCT-2023  17:55:14

                           ***********************       
                           *  WELCOME TO SIESTA  *       
                           ***********************       

reinit: Reading from standard input
reinit: Dumped input in INPUT_TMP.70279
************************** Dump of input data file ****************************
# mpirun -np 4 siesta-4.1.5 < GC.fdf > GC.out &
SystemLabel      GC
NumberOfAtoms    29
NumberOfSpecies  4
%block ChemicalSpeciesLabel
    1    1  H
    2    7  N
    3   14  Si
    4    8  O
%endblock ChemicalSpeciesLabel
############################################
# This overrides Defaults.fdf configuration
############################################
MD.TypeOfRun                CG # CG, Verlet
MD.Steps                    0
MaxSCFIterations            600
AtomicCoordinatesFormat NotScaledCartesianAng
%block AtomicCoordinatesAndAtomicSpecies
    1.7632482988351752 2.5127489376781016 -0.0  1  1  H
    1.0567615688351752 1.7227127576781018 -0.0  2  2  N
    -0.6735253411648248 2.164076667678102 0.0  3  3  Si
    -0.8293050211648247 3.654068927678102 0.0  1  4  H
    -2.196846961164825 0.6051691476781016 -0.0  3  5  Si
    -3.680034591164825 0.8479995076781017 -0.0  1  6  H
    -0.9984561011648247 -1.3081070123218983 -0.0  3  7  Si
    -1.7644815611648248 -2.8408237523218984 -0.0  2  8  N
    -1.1742350111648248 -3.7980367823218986 0.0  1  9  H
    -2.8161038811648247 -2.9212839823218983 -0.0  1  10  H
    0.7177439588351753 -1.2529327023218984 0.0  2  11  N
    1.7927665788351752 0.07740613767810167 -0.0  3  12  Si
    3.401439898835175 0.058595877678101704 -0.0  4  13  O
    5.6164483 -7.44953905 0.0  1  14  H
    4.58206954 -7.2320376 0.0  2  15  N
    3.29666389 -8.492636 0.0  3  16  Si
    3.80117524 -9.90371886 -0.0  1  17  H
    1.65934232 -8.01362137 0.0  2  18  N
    1.68097912 -6.20463398 -0.0  3  19  Si
    0.54543521 -4.28636135 0.0  3  20  Si
    -1.03431493 -3.94450034 0.0  4  21  O
    1.73226934 -2.87719605 0.0  2  22  N
    1.20957366 -1.92961761 -0.0  1  23  H
    3.50853448 -2.77677601 0.0  3  24  Si
    4.13684451 -1.17938608 0.0  2  25  N
    3.54296161 -0.26248101 0.0  1  26  H
    5.18364407 -1.05231197 -0.0  1  27  H
    4.63288658 -4.07521596 -0.0  2  28  N
    3.79410501 -5.58634043 0.0  3  29  Si
%endblock AtomicCoordinatesAndAtomicSpecies
%include ../../../../Defaults.fdf
************************** End of input data file *****************************

reinit: -----------------------------------------------------------------------
reinit: System Name: 
reinit: -----------------------------------------------------------------------
reinit: System Label: GC
reinit: -----------------------------------------------------------------------

initatom: Reading input for the pseudopotentials and atomic orbitals ----------
Species number:   1 Atomic number:    1 Label: H
Species number:   2 Atomic number:    7 Label: N
Species number:   3 Atomic number:   14 Label: Si
Species number:   4 Atomic number:    8 Label: O

Ground state valence configuration:   1s01
Reading pseudopotential information in formatted form from H.psf

Pseudopotential generated from a relativistic atomic calculation

Valence configuration for pseudopotential generation:
1s( 1.00) rc: 0.01
2p( 0.00) rc: 0.60
3d( 0.00) rc: 1.99
4f( 0.00) rc: 2.49
Ground state valence configuration:   2s02  2p03
Reading pseudopotential information in formatted form from N.psf

Pseudopotential generated from a relativistic atomic calculation

Valence configuration for pseudopotential generation:
2s( 2.00) rc: 0.94
2p( 3.00) rc: 0.59
3d( 0.00) rc: 3.46
4f( 0.00) rc: 2.47
Ground state valence configuration:   3s02  3p02
Reading pseudopotential information in formatted form from Si.psf

Pseudopotential generated from a relativistic atomic calculation

Valence configuration for pseudopotential generation:
3s( 2.00) rc: 1.67
3p( 2.00) rc: 2.04
3d( 0.00) rc: 2.89
4f( 0.00) rc: 2.49
Ground state valence configuration:   2s02  2p04
Reading pseudopotential information in formatted form from O.psf

Pseudopotential generated from a relativistic atomic calculation

Valence configuration for pseudopotential generation:
2s( 2.00) rc: 0.45
2p( 4.00) rc: 0.92
3d( 0.00) rc: 2.24
4f( 0.00) rc: 0.25
For H, standard SIESTA heuristics set lmxkb to 2
 (one more than the basis l, including polarization orbitals).
Use PS.lmax or PS.KBprojectors blocks to override.
For N, standard SIESTA heuristics set lmxkb to 3
 (one more than the basis l, including polarization orbitals).
Use PS.lmax or PS.KBprojectors blocks to override.
For Si, standard SIESTA heuristics set lmxkb to 3
 (one more than the basis l, including polarization orbitals).
Use PS.lmax or PS.KBprojectors blocks to override.
For O, standard SIESTA heuristics set lmxkb to 3
 (one more than the basis l, including polarization orbitals).
Use PS.lmax or PS.KBprojectors blocks to override.

<basis_specs>
===============================================================================
H                    Z=   1    Mass=  1.0100        Charge= 0.17977+309
Lmxo=0 Lmxkb= 2    BasisType=split      Semic=F
L=0  Nsemic=0  Cnfigmx=1
          i=1  nzeta=2  polorb=1  (1s)
            splnorm:   0.62000    
               vcte:    0.0000    
               rinn:    0.0000    
               qcoe:    0.0000    
               qyuk:    0.0000    
               qwid:   0.10000E-01
                rcs:    0.0000      0.0000    
            lambdas:    1.0000      1.0000    
-------------------------------------------------------------------------------
L=0  Nkbl=1  erefs: 0.17977+309
L=1  Nkbl=1  erefs: 0.17977+309
L=2  Nkbl=1  erefs: 0.17977+309
===============================================================================
</basis_specs>

atom: Called for H                     (Z =   1)

read_vps: Pseudopotential generation method:
read_vps: ATM4.2.7  Troullier-Martins                       
Valence charge for ps generation:    1.00000

xc_check: Exchange-correlation functional:
xc_check: GGA Perdew, Burke & Ernzerhof 1996
V l=0 = -2*Zval/r beyond r=  0.0098
V l=1 = -2*Zval/r beyond r=  0.5817
V l=2 = -2*Zval/r beyond r=  1.9372
All V_l potentials equal beyond r=  1.9372
This should be close to max(r_c) in ps generation
All pots = -2*Zval/r beyond r=  1.9372

VLOCAL1: 99.0% of the norm of Vloc inside     11.567 Ry
VLOCAL1: 99.9% of the norm of Vloc inside     26.362 Ry
atom: Maximum radius for 4*pi*r*r*local-pseudopot. charge    2.25106
atom: Maximum radius for r*vlocal+2*Zval:    1.91306
GHOST: No ghost state for L =  0
GHOST: No ghost state for L =  1
GHOST: No ghost state for L =  2

KBgen: Kleinman-Bylander projectors: 
   l= 0   rc=  2.036604   el= -0.477180   Ekb= -6.081590   kbcos= -0.277285
   l= 1   rc=  2.195416   el=  0.001076   Ekb= -0.926943   kbcos= -0.034643
   l= 2   rc=  2.251056   el=  0.002010   Ekb= -0.130941   kbcos= -0.009788

KBgen: Total number of Kleinman-Bylander projectors:    9
atom: -------------------------------------------------------------------------

atom: SANKEY-TYPE ORBITALS:
atom: Selected multiple-zeta basis: split     

SPLIT: Orbitals with angular momentum L= 0

SPLIT: Basis orbitals for state 1s

SPLIT: PAO cut-off radius determined from an
SPLIT: energy shift=  0.002000 Ry

   izeta = 1
                 lambda =    1.000000
                     rc =    6.518340
                 energy =   -0.475305
                kinetic =    0.912139
    potential(screened) =   -1.387444
       potential(ionic) =   -1.907295

   izeta = 2
                 rmatch =    2.141150
              splitnorm =    0.620000
                 energy =    0.566467
                kinetic =    3.772856
    potential(screened) =   -3.206389
       potential(ionic) =   -3.759093

POLgen: Perturbative polarization orbital with L=  1

POLgen: Polarization orbital for state 1s

   izeta = 1
                     rc =    6.518340
                 energy =    0.533861
                kinetic =    1.121086
    potential(screened) =   -0.587225
       potential(ionic) =   -1.053027
atom: Total number of Sankey-type orbitals:  5

atm_pop: Valence configuration (for local Pseudopot. screening):
 1s( 1.00)                                                            
Vna: chval, zval:    1.00000   1.00000

Vna:  Cut-off radius for the neutral-atom potential:   6.518340

atom: _________________________________________________________________________

<basis_specs>
===============================================================================
N                    Z=   7    Mass=  14.010        Charge= 0.17977+309
Lmxo=1 Lmxkb= 3    BasisType=split      Semic=F
L=0  Nsemic=0  Cnfigmx=2
          i=1  nzeta=2  polorb=0  (2s)
            splnorm:   0.28000    
               vcte:    0.0000    
               rinn:    0.0000    
               qcoe:    0.0000    
               qyuk:    0.0000    
               qwid:   0.10000E-01
                rcs:    0.0000      0.0000    
            lambdas:    1.0000      1.0000    
L=1  Nsemic=0  Cnfigmx=2
          i=1  nzeta=2  polorb=1  (2p)
            splnorm:   0.28000    
               vcte:    0.0000    
               rinn:    0.0000    
               qcoe:    0.0000    
               qyuk:    0.0000    
               qwid:   0.10000E-01
                rcs:    0.0000      0.0000    
            lambdas:    1.0000      1.0000    
-------------------------------------------------------------------------------
L=0  Nkbl=1  erefs: 0.17977+309
L=1  Nkbl=1  erefs: 0.17977+309
L=2  Nkbl=1  erefs: 0.17977+309
L=3  Nkbl=1  erefs: 0.17977+309
===============================================================================
</basis_specs>

atom: Called for N                     (Z =   7)

read_vps: Pseudopotential generation method:
read_vps: ATM4.2.7  Troullier-Martins                       
Valence charge for ps generation:    5.00000

xc_check: Exchange-correlation functional:
xc_check: GGA Perdew, Burke & Ernzerhof 1996
V l=0 = -2*Zval/r beyond r=  1.2889
V l=1 = -2*Zval/r beyond r=  1.2889
V l=2 = -2*Zval/r beyond r=  3.4178
V l=3 = -2*Zval/r beyond r=  2.4084
All V_l potentials equal beyond r=  3.3753
This should be close to max(r_c) in ps generation
All pots = -2*Zval/r beyond r=  3.4178

VLOCAL1: 99.0% of the norm of Vloc inside      3.810 Ry
VLOCAL1: 99.9% of the norm of Vloc inside      8.683 Ry
atom: Maximum radius for 4*pi*r*r*local-pseudopot. charge    4.02088
atom: Maximum radius for r*vlocal+2*Zval:    3.54838
GHOST: No ghost state for L =  0
GHOST: No ghost state for L =  1
GHOST: No ghost state for L =  2
GHOST: No ghost state for L =  3

KBgen: Kleinman-Bylander projectors: 
   l= 0   rc=  3.417763   el= -1.365098   Ekb= -4.433130   kbcos= -0.707855
   l= 1   rc=  3.375302   el= -0.521201   Ekb=-13.264039   kbcos= -0.535594
   l= 2   rc=  3.872880   el=  0.001991   Ekb= -0.641094   kbcos= -0.062456
   l= 3   rc=  3.970931   el=  0.003093   Ekb= -0.474517   kbcos= -0.018236

KBgen: Total number of Kleinman-Bylander projectors:   16
atom: -------------------------------------------------------------------------

atom: SANKEY-TYPE ORBITALS:
atom: Selected multiple-zeta basis: split     

SPLIT: Orbitals with angular momentum L= 0

SPLIT: Basis orbitals for state 2s

SPLIT: PAO cut-off radius determined from an
SPLIT: energy shift=  0.002000 Ry

   izeta = 1
                 lambda =    1.000000
                     rc =    4.730425
                 energy =   -1.363399
                kinetic =    1.245246
    potential(screened) =   -2.608645
       potential(ionic) =   -8.121105

   izeta = 2
                 rmatch =    2.531849
              splitnorm =    0.280000
                 energy =   -0.959908
                kinetic =    2.409435
    potential(screened) =   -3.369343
       potential(ionic) =   -9.427975

SPLIT: Orbitals with angular momentum L= 1

SPLIT: Basis orbitals for state 2p

SPLIT: PAO cut-off radius determined from an
SPLIT: energy shift=  0.002000 Ry

   izeta = 1
                 lambda =    1.000000
                     rc =    5.924108
                 energy =   -0.519262
                kinetic =    3.672940
    potential(screened) =   -4.192202
       potential(ionic) =   -9.518354

   izeta = 2
                 rmatch =    2.531849
              splitnorm =    0.280000
                 energy =   -0.104258
                kinetic =    6.807538
    potential(screened) =   -6.911796
       potential(ionic) =  -13.149920

POLgen: Perturbative polarization orbital with L=  2

POLgen: Polarization orbital for state 2p

   izeta = 1
                     rc =    5.924108
                 energy =    1.427508
                kinetic =    2.872379
    potential(screened) =   -1.444871
       potential(ionic) =   -5.563644
atom: Total number of Sankey-type orbitals: 13

atm_pop: Valence configuration (for local Pseudopot. screening):
 2s( 2.00)                                                            
 2p( 3.00)                                                            
Vna: chval, zval:    5.00000   5.00000

Vna:  Cut-off radius for the neutral-atom potential:   5.924108

atom: _________________________________________________________________________

<basis_specs>
===============================================================================
Si                   Z=  14    Mass=  28.090        Charge= 0.17977+309
Lmxo=1 Lmxkb= 3    BasisType=split      Semic=F
L=0  Nsemic=0  Cnfigmx=3
          i=1  nzeta=2  polorb=0  (3s)
            splnorm:   0.28000    
               vcte:    0.0000    
               rinn:    0.0000    
               qcoe:    0.0000    
               qyuk:    0.0000    
               qwid:   0.10000E-01
                rcs:    0.0000      0.0000    
            lambdas:    1.0000      1.0000    
L=1  Nsemic=0  Cnfigmx=3
          i=1  nzeta=2  polorb=1  (3p)
            splnorm:   0.28000    
               vcte:    0.0000    
               rinn:    0.0000    
               qcoe:    0.0000    
               qyuk:    0.0000    
               qwid:   0.10000E-01
                rcs:    0.0000      0.0000    
            lambdas:    1.0000      1.0000    
-------------------------------------------------------------------------------
L=0  Nkbl=1  erefs: 0.17977+309
L=1  Nkbl=1  erefs: 0.17977+309
L=2  Nkbl=1  erefs: 0.17977+309
L=3  Nkbl=1  erefs: 0.17977+309
===============================================================================
</basis_specs>

atom: Called for Si                    (Z =  14)

read_vps: Pseudopotential generation method:
read_vps: ATM4.2.7  Troullier-Martins                       
Valence charge for ps generation:    4.00000

xc_check: Exchange-correlation functional:
xc_check: GGA Perdew, Burke & Ernzerhof 1996
V l=0 = -2*Zval/r beyond r=  2.7826
V l=1 = -2*Zval/r beyond r=  2.7826
V l=2 = -2*Zval/r beyond r=  2.9253
V l=3 = -2*Zval/r beyond r=  2.7826
All V_l potentials equal beyond r=  2.8530
This should be close to max(r_c) in ps generation
All pots = -2*Zval/r beyond r=  2.9253

VLOCAL1: 99.0% of the norm of Vloc inside      5.333 Ry
VLOCAL1: 99.9% of the norm of Vloc inside     12.154 Ry
atom: Maximum radius for 4*pi*r*r*local-pseudopot. charge    3.39869
atom: Maximum radius for r*vlocal+2*Zval:    2.96205
GHOST: No ghost state for L =  0
GHOST: No ghost state for L =  1
GHOST: No ghost state for L =  2
GHOST: No ghost state for L =  3

KBgen: Kleinman-Bylander projectors: 
   l= 0   rc=  3.075247   el= -0.794092   Ekb=  5.879390   kbcos=  0.167461
   l= 1   rc=  3.153101   el= -0.300068   Ekb=  2.642817   kbcos=  0.058301
   l= 2   rc=  3.273594   el=  0.001958   Ekb= -1.185135   kbcos= -0.104411
   l= 3   rc=  3.232927   el=  0.003046   Ekb= -0.497174   kbcos= -0.015889

KBgen: Total number of Kleinman-Bylander projectors:   16
atom: -------------------------------------------------------------------------

atom: SANKEY-TYPE ORBITALS:
atom: Selected multiple-zeta basis: split     

SPLIT: Orbitals with angular momentum L= 0

SPLIT: Basis orbitals for state 3s

SPLIT: PAO cut-off radius determined from an
SPLIT: energy shift=  0.002000 Ry

   izeta = 1
                 lambda =    1.000000
                     rc =    6.429618
                 energy =   -0.792283
                kinetic =    0.525293
    potential(screened) =   -1.317576
       potential(ionic) =   -3.744923

   izeta = 2
                 rmatch =    3.998416
              splitnorm =    0.280000
                 energy =   -0.583081
                kinetic =    1.069570
    potential(screened) =   -1.652651
       potential(ionic) =   -4.235185

SPLIT: Orbitals with angular momentum L= 1

SPLIT: Basis orbitals for state 3p

SPLIT: PAO cut-off radius determined from an
SPLIT: energy shift=  0.002000 Ry

   izeta = 1
                 lambda =    1.000000
                     rc =    8.464845
                 energy =   -0.298236
                kinetic =    0.785360
    potential(screened) =   -1.083596
       potential(ionic) =   -3.273779

   izeta = 2
                 rmatch =    4.587816
              splitnorm =    0.280000
                 energy =   -0.131871
                kinetic =    1.403687
    potential(screened) =   -1.535557
       potential(ionic) =   -4.015310

POLgen: Perturbative polarization orbital with L=  2

POLgen: Polarization orbital for state 3p

   izeta = 1
                     rc =    8.464845
                 energy =    0.321949
                kinetic =    1.055677
    potential(screened) =   -0.733728
       potential(ionic) =   -2.672950
atom: Total number of Sankey-type orbitals: 13

atm_pop: Valence configuration (for local Pseudopot. screening):
 3s( 2.00)                                                            
 3p( 2.00)                                                            
Vna: chval, zval:    4.00000   4.00000

Vna:  Cut-off radius for the neutral-atom potential:   8.464845

atom: _________________________________________________________________________

<basis_specs>
===============================================================================
O                    Z=   8    Mass=  16.000        Charge= 0.17977+309
Lmxo=1 Lmxkb= 3    BasisType=split      Semic=F
L=0  Nsemic=0  Cnfigmx=2
          i=1  nzeta=2  polorb=0  (2s)
            splnorm:   0.28000    
               vcte:    0.0000    
               rinn:    0.0000    
               qcoe:    0.0000    
               qyuk:    0.0000    
               qwid:   0.10000E-01
                rcs:    0.0000      0.0000    
            lambdas:    1.0000      1.0000    
L=1  Nsemic=0  Cnfigmx=2
          i=1  nzeta=2  polorb=1  (2p)
            splnorm:   0.28000    
               vcte:    0.0000    
               rinn:    0.0000    
               qcoe:    0.0000    
               qyuk:    0.0000    
               qwid:   0.10000E-01
                rcs:    0.0000      0.0000    
            lambdas:    1.0000      1.0000    
-------------------------------------------------------------------------------
L=0  Nkbl=1  erefs: 0.17977+309
L=1  Nkbl=1  erefs: 0.17977+309
L=2  Nkbl=1  erefs: 0.17977+309
L=3  Nkbl=1  erefs: 0.17977+309
===============================================================================
</basis_specs>

atom: Called for O                     (Z =   8)

read_vps: Pseudopotential generation method:
read_vps: ATM4.2.7  Troullier-Martins                       
Valence charge for ps generation:    6.00000

xc_check: Exchange-correlation functional:
xc_check: GGA Perdew, Burke & Ernzerhof 1996
V l=0 = -2*Zval/r beyond r=  1.1000
V l=1 = -2*Zval/r beyond r=  1.1000
V l=2 = -2*Zval/r beyond r=  2.2154
V l=3 = -2*Zval/r beyond r=  1.1000
All V_l potentials equal beyond r=  2.2154
This should be close to max(r_c) in ps generation
All pots = -2*Zval/r beyond r=  2.2154

VLOCAL1: 99.0% of the norm of Vloc inside      8.845 Ry
VLOCAL1: 99.9% of the norm of Vloc inside     20.157 Ry
atom: Maximum radius for 4*pi*r*r*local-pseudopot. charge    2.67231
atom: Maximum radius for r*vlocal+2*Zval:    2.32897
GHOST: No ghost state for L =  0
GHOST: No ghost state for L =  1
GHOST: No ghost state for L =  2
GHOST: No ghost state for L =  3

KBgen: Kleinman-Bylander projectors: 
   l= 0   rc=  2.243238   el= -1.759686   Ekb=**********   kbcos= -0.171774
   l= 1   rc=  2.328968   el= -0.663873   Ekb=-14.506792   kbcos= -0.519897
   l= 2   rc=  2.573941   el=  0.002031   Ekb= -1.137373   kbcos= -0.019581
   l= 3   rc=  2.606321   el=  0.003153   Ekb= -1.013546   kbcos= -0.003122

KBgen: Total number of Kleinman-Bylander projectors:   16
atom: -------------------------------------------------------------------------

atom: SANKEY-TYPE ORBITALS:
atom: Selected multiple-zeta basis: split     

SPLIT: Orbitals with angular momentum L= 0

SPLIT: Basis orbitals for state 2s

SPLIT: PAO cut-off radius determined from an
SPLIT: energy shift=  0.002000 Ry

   izeta = 1
                 lambda =    1.000000
                     rc =    4.243912
                 energy =   -1.758270
                kinetic =    3.286084
    potential(screened) =   -5.044353
       potential(ionic) =  -12.921184

   izeta = 2
                 rmatch =    2.187845
              splitnorm =    0.280000
                 energy =   -0.885018
                kinetic =    8.134434
    potential(screened) =   -9.019452
       potential(ionic) =  -17.710645

SPLIT: Orbitals with angular momentum L= 1

SPLIT: Basis orbitals for state 2p

SPLIT: PAO cut-off radius determined from an
SPLIT: energy shift=  0.002000 Ry

   izeta = 1
                 lambda =    1.000000
                     rc =    5.314825
                 energy =   -0.661986
                kinetic =    4.917472
    potential(screened) =   -5.579458
       potential(ionic) =  -13.236259

   izeta = 2
                 rmatch =    2.160663
              splitnorm =    0.280000
                 energy =   -0.068760
                kinetic =    9.183374
    potential(screened) =   -9.252135
       potential(ionic) =  -18.274251

POLgen: Perturbative polarization orbital with L=  2

POLgen: Polarization orbital for state 2p

   izeta = 1
                     rc =    5.314825
                 energy =    1.970580
                kinetic =    3.886128
    potential(screened) =   -1.915547
       potential(ionic) =   -7.749584
atom: Total number of Sankey-type orbitals: 13

atm_pop: Valence configuration (for local Pseudopot. screening):
 2s( 2.00)                                                            
 2p( 4.00)                                                            
Vna: chval, zval:    6.00000   6.00000

Vna:  Cut-off radius for the neutral-atom potential:   5.314825

atom: _________________________________________________________________________

prinput: Basis input ----------------------------------------------------------

PAO.BasisType split     

%block ChemicalSpeciesLabel
    1    1 H                       # Species index, atomic number, species label
    2    7 N                       # Species index, atomic number, species label
    3   14 Si                      # Species index, atomic number, species label
    4    8 O                       # Species index, atomic number, species label
%endblock ChemicalSpeciesLabel

%block PAO.Basis                 # Define Basis set
H                     1                    # Species label, number of l-shells
 n=1   0   2 P   1                   # n, l, Nzeta, Polarization, NzetaPol
   6.518      2.141   
   1.000      1.000   
N                     2                    # Species label, number of l-shells
 n=2   0   2                         # n, l, Nzeta 
   4.730      2.532   
   1.000      1.000   
 n=2   1   2 P   1                   # n, l, Nzeta, Polarization, NzetaPol
   5.924      2.532   
   1.000      1.000   
Si                    2                    # Species label, number of l-shells
 n=3   0   2                         # n, l, Nzeta 
   6.430      3.998   
   1.000      1.000   
 n=3   1   2 P   1                   # n, l, Nzeta, Polarization, NzetaPol
   8.465      4.588   
   1.000      1.000   
O                     2                    # Species label, number of l-shells
 n=2   0   2                         # n, l, Nzeta 
   4.244      2.188   
   1.000      1.000   
 n=2   1   2 P   1                   # n, l, Nzeta, Polarization, NzetaPol
   5.315      2.161   
   1.000      1.000   
%endblock PAO.Basis

prinput: ----------------------------------------------------------------------

Dumping basis to NetCDF file H.ion.nc
Dumping basis to NetCDF file N.ion.nc
Dumping basis to NetCDF file Si.ion.nc
Dumping basis to NetCDF file O.ion.nc
coor:   Atomic-coordinates input format  =     Cartesian coordinates
coor:                                          (in Angstroms)

siesta: Atomic coordinates (Bohr) and species
siesta:      3.33206   4.74841  -0.00000  1        1
siesta:      1.99699   3.25546  -0.00000  2        2
siesta:     -1.27278   4.08951   0.00000  3        3
siesta:     -1.56716   6.90519   0.00000  1        4
siesta:     -4.15144   1.14360  -0.00000  3        5
siesta:     -6.95426   1.60249  -0.00000  1        6
siesta:     -1.88681  -2.47196  -0.00000  3        7
siesta:     -3.33439  -5.36838  -0.00000  2        8
siesta:     -2.21898  -7.17725   0.00000  1        9
siesta:     -5.32167  -5.52043  -0.00000  1       10
siesta:      1.35634  -2.36770   0.00000  2       11
siesta:      3.38784   0.14628  -0.00000  3       12
siesta:      6.42779   0.11073  -0.00000  4       13
siesta:     10.61355 -14.07759   0.00000  1       14
siesta:      8.65886 -13.66658   0.00000  2       15
siesta:      6.22979 -16.04876   0.00000  3       16
siesta:      7.18318 -18.71532  -0.00000  1       17
siesta:      3.13570 -15.14356   0.00000  2       18
siesta:      3.17659 -11.72506  -0.00000  3       19
siesta:      1.03072  -8.10005   0.00000  3       20
siesta:     -1.95457  -7.45403   0.00000  4       21
siesta:      3.27352  -5.43711   0.00000  2       22
siesta:      2.28576  -3.64645  -0.00000  1       23
siesta:      6.63017  -5.24735   0.00000  3       24
siesta:      7.81751  -2.22872   0.00000  2       25
siesta:      6.69523  -0.49602   0.00000  1       26
siesta:      9.79567  -1.98858  -0.00000  1       27
siesta:      8.75489  -7.70105  -0.00000  2       28
siesta:      7.16982 -10.55666   0.00000  3       29

siesta: Automatic unit cell vectors (Ang):
siesta:   17.814714    0.000000    0.000000
siesta:    0.000000   22.502149    0.000000
siesta:    0.000000    0.000000    9.854683

siesta: System type = molecule  

initatomlists: Number of atoms, orbitals, and projectors:     29   297   394

siesta: ******************** Simulation parameters ****************************
siesta:
siesta: The following are some of the parameters of the simulation.
siesta: A complete list of the parameters used, including default values,
siesta: can be found in file out.fdf
siesta:
redata: Spin configuration                          = spin-orbit
redata: Number of spin components                   = 8
redata: Time-Reversal Symmetry                      = F
redata: Spin spiral                                 = F
############################################################
This spin-orbit implementation uses a local approximation.
From 4.2 and onwards the full non-local approximation is implemented
You are strongly advised to use >=4.2 versions!
############################################################
redata: Long output                                 =   F
redata: Number of Atomic Species                    =        4
redata: Charge density info will appear in .RHO file
redata: Write Mulliken Pop.                         = NO
redata: Matel table size (NRTAB)                    =     1024
redata: Mesh Cutoff                                 =   340.0000 Ry
redata: Net charge of the system                    =     0.0000 |e|
redata: Min. number of SCF Iter                     =        1
redata: Max. number of SCF Iter                     =      600
redata: SCF convergence failure will abort job
redata: SCF mix quantity                            = Hamiltonian
redata: Mix DM or H after convergence               =   F
redata: Recompute H after scf cycle                 =   F
redata: Mix DM in first SCF step                    =   T
redata: Write Pulay info on disk                    =   F
redata: New DM Occupancy tolerance                  = 0.000000000001
redata: No kicks to SCF
redata: DM Mixing Weight for Kicks                  =     0.5000
redata: Require Harris convergence for SCF          =   F
redata: Harris energy tolerance for SCF             =     0.000100 eV
redata: Require DM convergence for SCF              =   T
redata: DM tolerance for SCF                        =     0.000008
redata: Require EDM convergence for SCF             =   F
redata: EDM tolerance for SCF                       =     0.001000 eV
redata: Require H convergence for SCF               =   T
redata: Hamiltonian tolerance for SCF               =     0.000001 eV
redata: Require (free) Energy convergence for SCF   =   F
redata: (free) Energy tolerance for SCF             =     0.000100 eV
redata: Using Saved Data (generic)                  =   F
redata: Use continuation files for DM               =   T
redata: Neglect nonoverlap interactions             =   F
redata: Method of Calculation                       = Diagonalization
redata: Electronic Temperature                      =   299.9978 K
redata: Fix the spin of the system                  =   F
redata: Dynamics option                             = Single-point calculation
mix.SCF: Pulay mixing                            = Pulay
mix.SCF:    Variant                              = stable
mix.SCF:    History steps                        = 6
mix.SCF:    Linear mixing weight                 =     0.250000
mix.SCF:    Mixing weight                        =     0.250000
mix.SCF:    SVD condition                        = 0.1000E-07
mix.SCF:    Restart steps                        = 24
mix.SCF:    Restart save steps                   = 3
mix.SCF: Spin-component mixing                   all
redata: Save all siesta data in one NC              =   F
redata: ***********************************************************************

%block SCF.Mixers
  Pulay
%endblock SCF.Mixers

%block SCF.Mixer.Pulay
  # Mixing method
  method pulay
  variant stable

  # Mixing options
  weight 0.2500
  weight.linear 0.2500
  history 6
  restart 24
  restart.save 3
%endblock SCF.Mixer.Pulay

DM_history_depth set to one: no extrapolation allowed by default for geometry relaxation
Size of DM history Fstack: 1
Total number of electrons:    98.000000
Total ionic charge:    98.000000

* ProcessorY, Blocksize:    2  24


* Orbital distribution balance (max,min):    57    48


Time-reversal symmetry not used.

siesta: k-grid: Number of k-points =     1
siesta: k-grid: Cutoff (effective) =     4.927 Ang
siesta: k-grid: Supercell and displacements
siesta: k-grid:    1   0   0      0.000
siesta: k-grid:    0   1   0      0.000
siesta: k-grid:    0   0   1      0.000

diag: Algorithm                                     = ELPA-1stage
diag: Parallel over k                               =   F
diag: Use parallel 2D distribution                  =   T
diag: Parallel block-size                           = 24
diag: Parallel distribution                         =     2 x     3
diag: Used triangular part                          = Lower
diag: Absolute tolerance                            =  0.100E-15
diag: Orthogonalization factor                      =  0.100E-05
diag: Memory factor                                 =  1.0000


ts: **************************************************************
ts: Save H and S matrices                           =    F
ts: Save DM and EDM matrices                        =    F
ts: Only save the overlap matrix S                  =    F
ts: **************************************************************

************************ Begin: TS CHECKS AND WARNINGS ************************
************************ End: TS CHECKS AND WARNINGS **************************


                     ====================================
                        Single-point calculation
                     ====================================

outcoor: Atomic coordinates (Ang):                          
    1.76324830    2.51274894    0.00000000   1       1  H
    1.05676157    1.72271276    0.00000000   2       2  N
   -0.67352534    2.16407667    0.00000000   3       3  Si
   -0.82930502    3.65406893    0.00000000   1       4  H
   -2.19684696    0.60516915    0.00000000   3       5  Si
   -3.68003459    0.84799951    0.00000000   1       6  H
   -0.99845610   -1.30810701    0.00000000   3       7  Si
   -1.76448156   -2.84082375    0.00000000   2       8  N
   -1.17423501   -3.79803678    0.00000000   1       9  H
   -2.81610388   -2.92128398    0.00000000   1      10  H
    0.71774396   -1.25293270    0.00000000   2      11  N
    1.79276658    0.07740614    0.00000000   3      12  Si
    3.40143990    0.05859588    0.00000000   4      13  O
    5.61644830   -7.44953905    0.00000000   1      14  H
    4.58206954   -7.23203760    0.00000000   2      15  N
    3.29666389   -8.49263600    0.00000000   3      16  Si
    3.80117524   -9.90371886    0.00000000   1      17  H
    1.65934232   -8.01362137    0.00000000   2      18  N
    1.68097912   -6.20463398    0.00000000   3      19  Si
    0.54543521   -4.28636135    0.00000000   3      20  Si
   -1.03431493   -3.94450034    0.00000000   4      21  O
    1.73226934   -2.87719605    0.00000000   2      22  N
    1.20957366   -1.92961761    0.00000000   1      23  H
    3.50853448   -2.77677601    0.00000000   3      24  Si
    4.13684451   -1.17938608    0.00000000   2      25  N
    3.54296161   -0.26248101    0.00000000   1      26  H
    5.18364407   -1.05231197    0.00000000   1      27  H
    4.63288658   -4.07521596    0.00000000   2      28  N
    3.79410501   -5.58634043    0.00000000   3      29  Si

outcell: Unit cell vectors (Ang):
       17.814714    0.000000    0.000000
        0.000000   22.502149    0.000000
        0.000000    0.000000    9.854683

outcell: Cell vector modules (Ang)   :   17.814714   22.502149    9.854683
outcell: Cell angles (23,13,12) (deg):     90.0000     90.0000     90.0000
outcell: Cell volume (Ang**3)        :   3950.4405
siesta: WARNING: Atoms     9    21 too close: rij =    0.202557 Ang
siesta: WARNING: Atoms    13    26 too close: rij =    0.350883 Ang
<dSpData1D:S at geom step 0
  <sparsity:sparsity for geom step 0
    nrows_g=297 nrows=57 sparsity=.1601 nnzs=14123, refcount: 8>
  <dData1D:(new from dSpData1D) n=14123, refcount: 1>
refcount: 1>
new_DM -- step:     1
Initializing Density Matrix...

Attempting to read DM from file... Failed...
DM filled with atomic data:
<dSpData2D:DM initialized from atoms
  <sparsity:sparsity for geom step 0
    nrows_g=297 nrows=57 sparsity=.1601 nnzs=14123, refcount: 9>
  <dData2D:DM n=14123 m=8, refcount: 1>
refcount: 1>
     spin moment: S , {S} =   56.00000   0.00000   0.00000  56.00000
No. of atoms with KB's overlaping orbs in proc 0. Max # of overlaps:      29     237

Initializing spin-orbit part of the Hamiltonian
  Adding spin-orbit effects for H 
  Adding spin-orbit effects for N 
  Adding spin-orbit effects for Si
  Adding spin-orbit effects for O 


New grid distribution:   1
           1       1:  100    1:   63    1:   20
           2       1:  100    1:   63   21:   40
           3       1:  100    1:   63   41:   60
           4       1:  100   64:  125    1:   20
           5       1:  100   64:  125   21:   40
           6       1:  100   64:  125   41:   60

InitMesh: MESH =   200 x   250 x   120 =     6000000
InitMesh: (bp) =   100 x   125 x    60 =      750000
InitMesh: Mesh cutoff (required, used) =   340.000   341.141 Ry
ExtMesh (bp) on 0 =   204 x   163 x   132 =     4389264
New grid distribution:   2
           1      14:  100    1:   79    1:   60
           2       1:   13    1:  101    1:   60
           3       1:   12  102:  125    1:   60
           4      13:  100  114:  125    1:   60
           5      14:  100   80:  101    1:   60
           6      13:  100  102:  113    1:   60
New grid distribution:   3
           1      19:  100   22:   83    1:   60
           2      19:  100    1:   21    1:   60
           3       1:   22   84:  125    1:   60
           4      23:  100  107:  125    1:   60
           5      23:  100   84:  106    1:   60
           6       1:   18    1:   83    1:   60
Setting up quadratic distribution...
ExtMesh (bp) on 0 =   191 x   179 x   172 =     5880508
PhiOnMesh: Number of (b)points on node 0 =               412380
PhiOnMesh: nlist on node 0 =              2351622

stepf: Fermi-Dirac step function

siesta: Program's energy decomposition (eV):
siesta: Ebs     =      -484.889002
siesta: Eions   =      3585.165840
siesta: Ena     =       826.458775
siesta: Ekin    =      3730.504764
siesta: Enl     =     -3703.178456
siesta: Eso     =        -0.004037
siesta: Edftu   =         0.000000
siesta: DEna    =       146.253301
siesta: DUscf   =       119.779693
siesta: DUext   =         0.000000
siesta: Exc     =     -1262.753118
siesta: eta*DQ  =         0.000000
siesta: Emadel  =         0.000000
siesta: Emeta   =         0.000000
siesta: Emolmec =         0.000000
siesta: Ekinion =         0.000000
siesta: Eharris =     -3545.478484
siesta: Etot    =     -3728.104916
siesta: FreeEng =     -3728.141289

        iscf     Eharris(eV)        E_KS(eV)     FreeEng(eV)     dDmax    Ef(eV) dHmax(eV)
   scf:    1    -3545.478484    -3728.104916    -3728.141289  0.928452 -4.946700 36.766128
     spin moment: S , {S} =    4.00849   0.00000   0.00000   4.00849
timer: Routine,Calls,Time,% = IterSCF        1       5.400  21.16
   scf:    2    -3718.848633    -3760.630222    -3760.678690  0.759851 -3.862585 24.036701
     spin moment: S , {S} =    7.44737   0.00000  -0.00000   7.44737
   scf:    3    -3738.669250    -3776.209806    -3776.248366  1.010537 -4.120410 19.197114
     spin moment: S , {S} =    4.82529   0.00000   0.00000   4.82529
   scf:    4    -3783.895723    -3787.743727    -3787.778427  0.849144 -3.625576  6.553560
     spin moment: S , {S} =    3.41179  -0.00000  -0.00000   3.41179
   scf:    5    -3790.317870    -3790.272149    -3790.301065  0.265067 -3.391339  7.941690
     spin moment: S , {S} =    2.26614   0.00000  -0.00000   2.26614
   scf:    6    -3790.476244    -3790.852150    -3790.890983  0.283525 -3.341283  4.813636
     spin moment: S , {S} =    3.16429   0.00000  -0.00000   3.16429
   scf:    7    -3791.505350    -3791.465132    -3791.490595  0.268712 -3.190673  4.585688
     spin moment: S , {S} =    2.00026   0.00000  -0.00000   2.00026
   scf:    8    -3792.387875    -3792.062362    -3792.067238  0.126561 -3.071548  1.976129
     spin moment: S , {S} =    2.00006   0.00000  -0.00000   2.00006
   scf:    9    -3792.381811    -3792.254104    -3792.268204  0.049775 -3.083581  1.310709
     spin moment: S , {S} =    1.84664   0.00000  -0.00000   1.84664
   scf:   10    -3792.305987    -3792.293230    -3792.322012  0.049913 -3.101127  0.904717
     spin moment: S , {S} =    1.51007  -0.00000  -0.00000   1.51007
   scf:   11    -3792.313627    -3792.304078    -3792.333338  0.005278 -3.099790  0.733723
     spin moment: S , {S} =    1.49322  -0.00000  -0.00000   1.49322
   scf:   12    -3792.348803    -3792.328309    -3792.356656  0.014036 -3.113858  0.506701
     spin moment: S , {S} =    1.52459  -0.00000  -0.00000   1.52459
   scf:   13    -3792.360975    -3792.343978    -3792.376955  0.028518 -3.140372  0.623226
     spin moment: S , {S} =    1.32864  -0.00000  -0.00000   1.32864
   scf:   14    -3792.378840    -3792.365720    -3792.397672  0.019068 -3.148970  0.117280
     spin moment: S , {S} =    1.38183  -0.00000  -0.00000   1.38183
   scf:   15    -3792.375489    -3792.370348    -3792.404284  0.017288 -3.160246  0.259807
     spin moment: S , {S} =    1.26756  -0.00000  -0.00000   1.26756
   scf:   16    -3792.381135    -3792.375114    -3792.409721  0.015171 -3.166838  0.169053
     spin moment: S , {S} =    1.21406  -0.00000  -0.00000   1.21406
   scf:   17    -3792.383680    -3792.378427    -3792.413651  0.022092 -3.169888  0.107724
     spin moment: S , {S} =    1.14691  -0.00000  -0.00000   1.14691
   scf:   18    -3792.379750    -3792.378966    -3792.414438  0.008593 -3.170511  0.106860
     spin moment: S , {S} =    1.10779  -0.00000  -0.00000   1.10779
   scf:   19    -3792.379716    -3792.379312    -3792.414842  0.003873 -3.170893  0.092888
     spin moment: S , {S} =    1.09595  -0.00000  -0.00000   1.09595
   scf:   20    -3792.379983    -3792.379627    -3792.415199  0.003808 -3.170392  0.083938
     spin moment: S , {S} =    1.08603  -0.00000  -0.00000   1.08603
   scf:   21    -3792.382414    -3792.380509    -3792.416234  0.016656 -3.171122  0.065615
     spin moment: S , {S} =    1.01414  -0.00000  -0.00000   1.01414
   scf:   22    -3792.384079    -3792.381087    -3792.416576  0.027294 -3.170350  0.016712
     spin moment: S , {S} =    0.91761  -0.00000  -0.00000   0.91761
   scf:   23    -3792.381536    -3792.381040    -3792.416682  0.015865 -3.169843  0.043865
     spin moment: S , {S} =    0.95811  -0.00000  -0.00000   0.95811
   scf:   24    -3792.381816    -3792.381174    -3792.416658  0.013125 -3.170578  0.015018
     spin moment: S , {S} =    0.91728  -0.00000  -0.00000   0.91728
mix: Pulay -- resetting history
   scf:   25    -3792.381403    -3792.381259    -3792.416648  0.002733 -3.170456  0.012709
     spin moment: S , {S} =    0.90145  -0.00000  -0.00000   0.90145
   scf:   26    -3792.381340    -3792.381295    -3792.416649  0.000879 -3.170515  0.009899
     spin moment: S , {S} =    0.89641  -0.00000  -0.00000   0.89641
   scf:   27    -3792.382011    -3792.381583    -3792.416788  0.004986 -3.169931  0.008439
     spin moment: S , {S} =    0.88027  -0.00000  -0.00000   0.88027
   scf:   28    -3792.381646    -3792.381577    -3792.416864  0.005160 -3.169641  0.005151
     spin moment: S , {S} =    0.89443  -0.00000  -0.00000   0.89443
   scf:   29    -3792.381645    -3792.381606    -3792.416872  0.001164 -3.169510  0.004118
     spin moment: S , {S} =    0.89310  -0.00000  -0.00000   0.89310
   scf:   30    -3792.381828    -3792.381697    -3792.416871  0.002265 -3.169355  0.002315
     spin moment: S , {S} =    0.88543  -0.00000  -0.00000   0.88543
   scf:   31    -3792.381737    -3792.381712    -3792.416871  0.001206 -3.169345  0.001419
     spin moment: S , {S} =    0.88601  -0.00000  -0.00000   0.88601
   scf:   32    -3792.381804    -3792.381751    -3792.416865  0.000794 -3.169403  0.001179
     spin moment: S , {S} =    0.88302  -0.00000  -0.00000   0.88302
   scf:   33    -3792.381783    -3792.381763    -3792.416861  0.000324 -3.169476  0.001158
     spin moment: S , {S} =    0.88291  -0.00000  -0.00000   0.88291
   scf:   34    -3792.381827    -3792.381790    -3792.416854  0.000538 -3.169570  0.000597
     spin moment: S , {S} =    0.88182  -0.00000  -0.00000   0.88182
   scf:   35    -3792.381824    -3792.381804    -3792.416849  0.000337 -3.169595  0.000492
     spin moment: S , {S} =    0.88158  -0.00000  -0.00000   0.88158
   scf:   36    -3792.381839    -3792.381818    -3792.416845  0.000302 -3.169609  0.000461
     spin moment: S , {S} =    0.88105  -0.00000  -0.00000   0.88105
   scf:   37    -3792.381888    -3792.381847    -3792.416835  0.000655 -3.169617  0.000397
     spin moment: S , {S} =    0.88056  -0.00000  -0.00000   0.88056
   scf:   38    -3792.381890    -3792.381864    -3792.416829  0.000411 -3.169596  0.000388
     spin moment: S , {S} =    0.88045  -0.00000  -0.00000   0.88045
   scf:   39    -3792.381892    -3792.381876    -3792.416825  0.000256 -3.169592  0.000382
     spin moment: S , {S} =    0.88036  -0.00000  -0.00000   0.88036
   scf:   40    -3792.381955    -3792.381908    -3792.416814  0.000714 -3.169580  0.000366
     spin moment: S , {S} =    0.88010  -0.00000  -0.00000   0.88010
   scf:   41    -3792.381978    -3792.381937    -3792.416804  0.000618 -3.169563  0.000352
     spin moment: S , {S} =    0.87997  -0.00000  -0.00000   0.87997
   scf:   42    -3792.381989    -3792.381959    -3792.416797  0.000446 -3.169562  0.000342
     spin moment: S , {S} =    0.87981  -0.00000  -0.00000   0.87981
   scf:   43    -3792.382110    -3792.382022    -3792.416778  0.001207 -3.169566  0.000545
     spin moment: S , {S} =    0.87919   0.00000  -0.00000   0.87919
   scf:   44    -3792.382037    -3792.382028    -3792.416776  0.000116 -3.169571  0.000464
     spin moment: S , {S} =    0.87910   0.00000  -0.00000   0.87910
   scf:   45    -3792.382317    -3792.382148    -3792.416742  0.002069 -3.169588  0.000478
     spin moment: S , {S} =    0.87780   0.00000  -0.00000   0.87780
   scf:   46    -3792.381985    -3792.382076    -3792.416763  0.001242 -3.169593  0.000418
     spin moment: S , {S} =    0.87831   0.00000  -0.00000   0.87831
   scf:   47    -3792.382232    -3792.382142    -3792.416744  0.001115 -3.169600  0.000360
     spin moment: S , {S} =    0.87760   0.00000  -0.00000   0.87760
   scf:   48    -3792.382064    -3792.382108    -3792.416754  0.000580 -3.169606  0.000283
     spin moment: S , {S} =    0.87780   0.00000  -0.00000   0.87780
mix: Pulay -- resetting history
   scf:   49    -3792.382134    -3792.382119    -3792.416751  0.000169 -3.169614  0.000280
     spin moment: S , {S} =    0.87752   0.00000  -0.00000   0.87752
   scf:   50    -3792.382143    -3792.382130    -3792.416748  0.000165 -3.169613  0.000276
     spin moment: S , {S} =    0.87740   0.00000  -0.00000   0.87740
   scf:   51    -3792.382171    -3792.382147    -3792.416743  0.000276 -3.169614  0.000270
     spin moment: S , {S} =    0.87710   0.00000  -0.00000   0.87710
   scf:   52    -3792.382654    -3792.382357    -3792.416688  0.003170 -3.169618  0.000262
     spin moment: S , {S} =    0.87487   0.00000  -0.00000   0.87487
   scf:   53    -3792.382762    -3792.382529    -3792.416644  0.002337 -3.169606  0.000152
     spin moment: S , {S} =    0.87355   0.00000  -0.00000   0.87355
   scf:   54    -3792.382685    -3792.382597    -3792.416628  0.000863 -3.169612  0.000111
     spin moment: S , {S} =    0.87297   0.00000  -0.00000   0.87297
   scf:   55    -3792.382871    -3792.382717    -3792.416599  0.001444 -3.169621  0.000219
     spin moment: S , {S} =    0.87199   0.00000  -0.00000   0.87199
   scf:   56    -3792.382767    -3792.382739    -3792.416594  0.000256 -3.169625  0.000130
     spin moment: S , {S} =    0.87174   0.00000  -0.00000   0.87174
   scf:   57    -3792.382823    -3792.382777    -3792.416586  0.000426 -3.169632  0.000253
     spin moment: S , {S} =    0.87139   0.00000  -0.00000   0.87139
   scf:   58    -3792.382868    -3792.382817    -3792.416576  0.000461 -3.169633  0.000114
     spin moment: S , {S} =    0.87106   0.00000  -0.00000   0.87106
   scf:   59    -3792.382777    -3792.382799    -3792.416580  0.000205 -3.169632  0.000121
     spin moment: S , {S} =    0.87121   0.00000  -0.00000   0.87121
   scf:   60    -3792.382800    -3792.382799    -3792.416580  0.000027 -3.169633  0.000127
     spin moment: S , {S} =    0.87115   0.00000  -0.00000   0.87115
   scf:   61    -3792.382805    -3792.382802    -3792.416580  0.000027 -3.169633  0.000128
     spin moment: S , {S} =    0.87114   0.00000  -0.00000   0.87114
   scf:   62    -3792.382787    -3792.382795    -3792.416581  0.000073 -3.169631  0.000129
     spin moment: S , {S} =    0.87120   0.00000  -0.00000   0.87120
   scf:   63    -3792.382862    -3792.382825    -3792.416575  0.000322 -3.169636  0.000129
     spin moment: S , {S} =    0.87088   0.00000  -0.00000   0.87088
   scf:   64    -3792.382809    -3792.382818    -3792.416576  0.000084 -3.169638  0.000109
     spin moment: S , {S} =    0.87090   0.00000  -0.00000   0.87090
   scf:   65    -3792.382988    -3792.382893    -3792.416559  0.000823 -3.169648  0.000106
     spin moment: S , {S} =    0.87024   0.00000  -0.00000   0.87024
   scf:   66    -3792.382901    -3792.382897    -3792.416558  0.000050 -3.169652  0.000079
     spin moment: S , {S} =    0.87007   0.00000  -0.00000   0.87007
   scf:   67    -3792.382788    -3792.382847    -3792.416569  0.000534 -3.169646  0.000034
     spin moment: S , {S} =    0.87053   0.00000  -0.00000   0.87053
   scf:   68    -3792.382823    -3792.382836    -3792.416572  0.000126 -3.169645  0.000023
     spin moment: S , {S} =    0.87062   0.00000  -0.00000   0.87062
   scf:   69    -3792.382842    -3792.382839    -3792.416571  0.000032 -3.169645  0.000013
     spin moment: S , {S} =    0.87057   0.00000  -0.00000   0.87057
   scf:   70    -3792.382852    -3792.382845    -3792.416570  0.000059 -3.169645  0.000011
     spin moment: S , {S} =    0.87051   0.00000  -0.00000   0.87051
   scf:   71    -3792.382853    -3792.382848    -3792.416569  0.000037 -3.169644  0.000009
     spin moment: S , {S} =    0.87048   0.00000  -0.00000   0.87048
   scf:   72    -3792.382844    -3792.382846    -3792.416570  0.000023 -3.169644  0.000008
     spin moment: S , {S} =    0.87051   0.00000  -0.00000   0.87051
mix: Pulay -- resetting history
   scf:   73    -3792.382850    -3792.382848    -3792.416569  0.000020 -3.169643  0.000006
     spin moment: S , {S} =    0.87049   0.00000  -0.00000   0.87049
   scf:   74    -3792.382849    -3792.382848    -3792.416569  0.000011 -3.169643  0.000006
     spin moment: S , {S} =    0.87049   0.00000  -0.00000   0.87049
   scf:   75    -3792.382849    -3792.382849    -3792.416569  0.000009 -3.169643  0.000006
     spin moment: S , {S} =    0.87049   0.00000  -0.00000   0.87049
   scf:   76    -3792.382850    -3792.382849    -3792.416569  0.000007 -3.169643  0.000007
     spin moment: S , {S} =    0.87048   0.00000  -0.00000   0.87048
   scf:   77    -3792.382850    -3792.382849    -3792.416569  0.000005 -3.169643  0.000006
     spin moment: S , {S} =    0.87048   0.00000  -0.00000   0.87048
   scf:   78    -3792.382848    -3792.382849    -3792.416569  0.000018 -3.169643  0.000006
     spin moment: S , {S} =    0.87048   0.00000  -0.00000   0.87048
   scf:   79    -3792.382840    -3792.382845    -3792.416570  0.000071 -3.169642  0.000005
     spin moment: S , {S} =    0.87051   0.00000  -0.00000   0.87051
   scf:   80    -3792.382840    -3792.382843    -3792.416570  0.000027 -3.169642  0.000005
     spin moment: S , {S} =    0.87053   0.00000  -0.00000   0.87053
   scf:   81    -3792.382841    -3792.382842    -3792.416571  0.000034 -3.169641  0.000005
     spin moment: S , {S} =    0.87053   0.00000  -0.00000   0.87053
   scf:   82    -3792.382841    -3792.382842    -3792.416571  0.000008 -3.169641  0.000005
     spin moment: S , {S} =    0.87054   0.00000  -0.00000   0.87054
   scf:   83    -3792.382842    -3792.382842    -3792.416571  0.000041 -3.169641  0.000004
     spin moment: S , {S} =    0.87054   0.00000  -0.00000   0.87054
   scf:   84    -3792.382843    -3792.382842    -3792.416571  0.000027 -3.169641  0.000004
     spin moment: S , {S} =    0.87053   0.00000  -0.00000   0.87053
   scf:   85    -3792.382842    -3792.382842    -3792.416571  0.000041 -3.169642  0.000003
     spin moment: S , {S} =    0.87053   0.00000  -0.00000   0.87053
   scf:   86    -3792.382842    -3792.382842    -3792.416571  0.000029 -3.169642  0.000002
     spin moment: S , {S} =    0.87053   0.00000  -0.00000   0.87053
   scf:   87    -3792.382843    -3792.382843    -3792.416570  0.000040 -3.169642  0.000001
     spin moment: S , {S} =    0.87052   0.00000  -0.00000   0.87052
   scf:   88    -3792.382843    -3792.382843    -3792.416570  0.000014 -3.169642  0.000001
     spin moment: S , {S} =    0.87052   0.00000  -0.00000   0.87052
   scf:   89    -3792.382843    -3792.382843    -3792.416570  0.000006 -3.169642  0.000001
     spin moment: S , {S} =    0.87052   0.00000  -0.00000   0.87052
   scf:   90    -3792.382843    -3792.382843    -3792.416570  0.000008 -3.169642  0.000001
     spin moment: S , {S} =    0.87052   0.00000  -0.00000   0.87052

SCF Convergence by DM+H criterion
max |DM_out - DM_in|         :     0.0000076028
max |H_out - H_in|      (eV) :     0.0000007669
SCF cycle converged after 90 iterations

Using DM_out to compute the final energy and forces
No. of atoms with KB's overlaping orbs in proc 0. Max # of overlaps:      29     237

siesta: E_KS(eV) =            -3792.3828

siesta: E_KS - E_eggbox =     -3792.3828
     spin moment: S , {S} =    0.87052   0.00000  -0.00000   0.87052

siesta: Atomic forces (eV/Ang):
     1    0.093903    0.095740   -0.000000
     2    0.857599   -0.776962    0.000000
     3   -0.799054    0.672485   -0.000000
     4    0.171332    0.285050   -0.000000
     5    0.550007   -0.602248    0.000000
     6    0.076413   -0.067431    0.000000
     7   -3.015816    1.634006   -0.000000
     8  -25.886314   41.411067    0.000000
     9-1414.597139 1476.363123   -0.000000
    10   -0.232880    0.003025   -0.000000
    11  -17.045018   25.617576    0.000000
    12   -4.396494    2.479323   -0.000000
    13 -239.830652  545.418160   -0.000000
    14   -0.011308   -0.050977    0.000000
    15   -0.087192   -0.250228   -0.000000
    16    0.003350    0.027723    0.000000
    17    0.044511   -0.003002    0.000000
    18    0.082644   -0.144352    0.000000
    19   -0.821188   -0.250685    0.000000
    20    6.489113   -1.829459   -0.000000
    21 1434.591839-1520.233520   -0.000000
    22    7.833978  -14.736230    0.000000
    23    8.753591  -12.007641    0.000000
    24    0.664386   -0.015809    0.000000
    25   22.755532  -36.539739   -0.000000
    26  216.411463 -506.301209    0.000000
    27   -0.025737   -0.471495    0.000000
    28    0.480087   -1.292864   -0.000000
    29    0.636492    0.640826    0.000000
----------------------------------------
   Tot   -6.252552   -0.925746    0.000000
----------------------------------------
   Max 1520.233520
   Res  325.432438    sqrt( Sum f_i^2 / 3N )
----------------------------------------
   Max 1520.233520    constrained

Stress tensor Voigt[x,y,z,yz,xz,xy] (kbar):     -119.51     -207.61       -0.09        0.00        0.00      147.24
(Free)E + p*V (eV/cell)    -3523.4951
Target enthalpy (eV/cell)    -3792.4166

siesta: Eigenvalues (eV):
ik =     1
  -37.1856  -36.8653  -35.9813  -35.9655  -24.1693  -24.1507  -21.6222  -21.6036  -21.3030  -21.1396
  -21.0681  -21.0665  -20.0555  -20.0475  -19.2468  -19.2453  -19.2012  -19.1976  -18.8257  -18.7538
  -18.7274  -18.6225  -17.2409  -17.2333  -15.3140  -15.1763  -14.5356  -14.4731  -13.9892  -13.9406
  -13.7482  -13.7447  -13.7269  -13.6285  -13.4214  -13.3903  -12.9459  -12.9359  -12.8582  -12.8391
  -12.4173  -12.3716  -11.9351  -11.9138  -11.7235  -11.7206  -11.6656  -11.6473  -11.2119  -11.1816
  -10.8391  -10.7797  -10.3599  -10.3368  -10.0595   -9.9986   -9.5252   -9.5086   -9.3561   -9.3174
   -9.0199   -8.9685   -8.8656   -8.8648   -8.7337   -8.7310   -8.2706   -8.2211   -8.2170   -8.2043
   -8.1340   -8.0785   -8.0741   -8.0078   -7.4169   -7.3336   -7.1935   -7.1863   -6.9345   -6.8351
   -6.5246   -6.5080   -5.9507   -5.9492   -5.9421   -5.9258   -5.5248   -5.5071   -5.3420   -5.2111
   -5.0496   -5.0197   -4.3183   -4.2905   -3.9808   -3.9619   -3.5967   -3.1847   -3.1545   -2.8815
   -2.8125   -2.7443   -2.6378   -2.5387   -2.4138   -2.3365   -2.0962   -2.0601   -2.0000   -1.9400
   -1.9227   -1.8885   -1.5179   -1.4070   -1.3686   -1.3282   -1.0495   -1.0340   -0.9611   -0.9245
   -0.7826   -0.7627   -0.7342   -0.6757   -0.4540   -0.3224   -0.1210   -0.0943    0.1594    0.2342
    0.3168    0.3459    0.5185    0.5354    0.6838    0.7206    0.8687    0.9433    1.2140    1.2523
    1.2915    1.3469    1.5771    1.6166    1.6179    1.6930    1.7185    1.7359    2.0553    2.1107
    2.1135    2.2500    2.3383    2.3706    2.4304    2.4942    2.5854    2.6099    2.8543    2.8670
    3.0077    3.0636    3.1833    3.2078    3.2532    3.2882    3.6477    3.6609    3.9983    4.0970
    4.1863    4.2511    4.2592    4.3084    4.4561    4.4601    4.4977    4.5158    4.5787    4.6025
    4.7717    4.8019    4.9221    4.9543    5.0178    5.0716    5.3131    5.3787    5.4451    5.4726
    5.4935    5.5207    5.5930    5.6127    5.7145    5.8282    5.8776    5.8845    5.9741    5.9779
    6.0065    6.0816    6.1433    6.1669    6.3153    6.4108    6.5782    6.6070    6.8068    6.8457
    7.0375    7.0760    7.2135    7.2507    7.3133    7.3227    7.6674    7.7068    7.8421    7.8533
    7.8657    7.8843    7.9559    8.1098    8.1164    8.1414    8.2908    8.3528    8.5180    8.5483
    8.6215    8.6781    8.8091    8.8977    8.9773    9.0158    9.2036    9.2312    9.2567    9.2894
    9.3873    9.4090    9.4795    9.5178    9.6983    9.7273    9.9034    9.9397   10.0166   10.0540
   10.4981   10.5374   10.6461   10.6813   10.7627   10.8108   11.0648   11.1173   11.1329   11.1521
   11.2130   11.2966   11.5289   11.5453   11.7344   11.7530   11.9751   12.0047   12.4439   12.5420
   12.5501   12.5613   12.6602   12.7146   12.7424   12.7471   12.9280   12.9708   13.0262   13.0803
   13.2736   13.3386   13.4530   13.4857   13.6965   13.7498   14.1901   14.3016   14.3881   14.4502
   14.6139   14.6274   14.7536   14.7779   15.2207   15.2611   15.5436   15.5927   15.9409   15.9656
   16.2289   16.2579   16.6640   16.6876   17.0659   17.1492   17.9506   18.0094   18.1658   18.2045
   18.5410   18.5583   18.6974   18.7243   19.0618   19.1162   19.1914   19.2282   19.6495   19.6809
   20.2759   20.3057   20.4396   20.5303   21.0295   21.0619   21.2270   21.2495   21.8662   21.8814
   21.8880   21.9476   22.1101   22.1294   22.5280   22.5713   22.9738   23.0120   23.0614   23.1301
   23.4314   23.4696   24.1718   24.1769   24.4151   24.4452   24.5420   24.5759   25.1682   25.1996
   25.6597   25.7138   26.0370   26.0690   27.2482   27.2954   27.7024   27.7908   28.2673   28.3145
   28.3779   28.4377   29.3845   29.4231   29.5354   29.5873   29.9006   29.9489   30.5266   30.5640
   30.7171   30.7224   30.8606   30.8801   31.1489   31.1489   31.2774   31.3273   31.8901   31.9373
   31.9399   32.0197   32.0579   32.0714   32.1638   32.1922   32.8134   32.8693   33.3455   33.3861
   33.7246   33.8033   34.4836   34.5052   35.3474   35.3624   35.9412   35.9821   36.4359   36.4476
   37.0431   37.0865   37.2813   37.3195   37.3978   37.4534   38.1134   38.1798   39.2209   39.2452
   39.6225   39.6835   40.1057   40.1338   40.1469   40.2308   40.2433   40.2592   40.3790   40.3998
   40.8246   40.8546   40.8934   40.9060   41.0383   41.0873   41.5484   41.5966   41.8732   41.8881
   42.9160   42.9773   43.0700   43.1544   43.4699   43.5019   43.8040   43.8103   43.8158   43.8239
   44.3503   44.3822   44.6409   44.6937   45.0359   45.0481   45.3836   45.4500   45.6051   45.6182
   45.8502   45.8705   46.6371   46.6862   46.8292   46.8459   47.5662   47.6096   47.7686   47.7920
   47.9371   47.9435   47.9497   47.9799   49.2193   49.2659   49.3917   49.4064   49.7807   49.9040
   50.0132   50.1027   50.1819   50.2173   51.4723   51.5097   52.5350   52.5776   52.7561   52.8092
   53.3042   53.3336   53.4582   53.4817   54.4058   54.4190   54.8098   54.8449   55.5856   55.6113
   55.8275   55.8627   56.2271   56.2453   56.5640   56.5789   58.4009   58.4037   58.9825   58.9987
   59.5964   59.6294   60.4341   60.4435   60.6611   60.6856   61.0940   61.1081   63.4985   63.5208
   64.9826   64.9988   65.1696   65.1714   65.1802   65.1936   66.1315   66.1493   67.7459   67.7822
   68.4904   68.5329   69.8553   69.9786   70.8085   70.8169   71.6263   71.6722   72.2264   72.2283
   73.3921   73.4317   74.4281   74.4625   76.9213   76.9723   81.1720   81.1827   82.3517   82.3984
   84.0463   84.1146   87.3941   87.4970   88.7376   88.9533   90.3402   90.3936   93.0560   93.0806
   94.0879   94.1197   95.1666   95.2058   97.4712   97.5059   97.5525   97.5773  101.4252  101.4409
  104.6712  104.6819  107.7782  107.8090  108.9718  109.1012  118.5520  118.5724  121.8464  121.8546
  123.9381  123.9772  127.5115  127.6789  131.2360  131.3550  135.0616  135.0636  144.6528  144.6672
  145.8384  145.8412  152.1690  152.7794  176.5835  176.6978  181.0947  181.1919  186.5871  186.5902
  495.4300  495.5765  516.2752  516.2873
siesta: Fermi energy =      -3.169642 eV

siesta: Program's energy decomposition (eV):
siesta: Ebs     =     -1240.123361
siesta: Eions   =      3585.165840
siesta: Ena     =       826.458775
siesta: Ekin    =      3156.244420
siesta: Enl     =     -3093.439278
siesta: Eso     =        -0.005137
siesta: Edftu   =         0.000000
siesta: DEna    =        44.902903
siesta: DUscf   =        21.909378
siesta: DUext   =         0.000000
siesta: Exc     =     -1163.288064
siesta: eta*DQ  =         0.000000
siesta: Emadel  =         0.000000
siesta: Emeta   =         0.000000
siesta: Emolmec =         0.000000
siesta: Ekinion =         0.000000
siesta: Eharris =     -3792.382843
siesta: Etot    =     -3792.382843
siesta: FreeEng =     -3792.416570

siesta: Final energy (eV):
siesta:  Band Struct. =   -1240.123361
siesta:       Kinetic =    3156.244420
siesta:       Hartree =   10170.090217
siesta:       Edftu   =       0.000000
siesta:       Eso     =      -0.005137
siesta:    Ext. field =       0.000000
siesta:   Exch.-corr. =   -1163.288064
siesta:  Ion-electron =  -23225.321624
siesta:       Ion-ion =    7269.897345
siesta:       Ekinion =       0.000000
siesta:         Total =   -3792.382843
siesta:         Fermi =      -3.169642

siesta: Atomic forces (eV/Ang):
siesta:      1    0.093903    0.095740   -0.000000
siesta:      2    0.857599   -0.776962    0.000000
siesta:      3   -0.799054    0.672485   -0.000000
siesta:      4    0.171332    0.285050   -0.000000
siesta:      5    0.550007   -0.602248    0.000000
siesta:      6    0.076413   -0.067431    0.000000
siesta:      7   -3.015816    1.634006   -0.000000
siesta:      8  -25.886314   41.411067    0.000000
siesta:      9-1414.597139 1476.363123   -0.000000
siesta:     10   -0.232880    0.003025   -0.000000
siesta:     11  -17.045018   25.617576    0.000000
siesta:     12   -4.396494    2.479323   -0.000000
siesta:     13 -239.830652  545.418160   -0.000000
siesta:     14   -0.011308   -0.050977    0.000000
siesta:     15   -0.087192   -0.250228   -0.000000
siesta:     16    0.003350    0.027723    0.000000
siesta:     17    0.044511   -0.003002    0.000000
siesta:     18    0.082644   -0.144352    0.000000
siesta:     19   -0.821188   -0.250685    0.000000
siesta:     20    6.489113   -1.829459   -0.000000
siesta:     21 1434.591839-1520.233520   -0.000000
siesta:     22    7.833978  -14.736230    0.000000
siesta:     23    8.753591  -12.007641    0.000000
siesta:     24    0.664386   -0.015809    0.000000
siesta:     25   22.755532  -36.539739   -0.000000
siesta:     26  216.411463 -506.301209    0.000000
siesta:     27   -0.025737   -0.471495    0.000000
siesta:     28    0.480087   -1.292864   -0.000000
siesta:     29    0.636492    0.640826    0.000000
siesta: ----------------------------------------
siesta:    Tot   -6.252552   -0.925746    0.000000

siesta: Stress tensor (static) (eV/Ang**3):
siesta:    -0.074590    0.091897   -0.000000
siesta:     0.091897   -0.129577    0.000000
siesta:     0.000000    0.000000   -0.000055

siesta: Cell volume =       3950.440526 Ang**3

siesta: Pressure (static):
siesta:                Solid            Molecule  Units
siesta:           0.00074141         -0.00001047  Ry/Bohr**3
siesta:           0.06807379         -0.00096146  eV/Ang**3
siesta:         109.06741767         -1.54044767  kBar
(Free)E+ p_basis*V_orbitals  =       -3772.566153
(Free)Eharris+ p_basis*V_orbitals  =       -3772.566153
     spin moment: S , {S} =    0.87052   0.00000  -0.00000   0.87052

siesta: Electric dipole (a.u.)  =   -0.228717    0.841421    0.000000
siesta: Electric dipole (Debye) =   -0.581342    2.138681    0.000000

cite: Please see "GC.bib" for an exhaustive BiBTeX file.
cite: Please clearly indicate Siesta version in published work: v4.1.5-1-g384057250
cite: This calculation has made use of the following articles
cite: which are encouraged to be cited in a published work.
        Primary SIESTA paper
          DOI: www.doi.org/10.1088/0953-8984/14/11/302
        Spin-orbit coupling (on-site approximation)
          DOI: www.doi.org/10.1088/0953-8984/19/19/489001


WARNING: alloc-realloc-dealloc name mismatch
         Name: atomlist isa
         Size:              -116. Bytes
         Node:     0
         Subsequent mismatches will not be reported
>> End of run:  16-OCT-2023  17:59:53
Job completed
