Siesta Version  : v4.1.5-1-g384057250
Architecture    : gcc
Compiler version: GNU Fortran (Ubuntu 11.3.0-1ubuntu1~22.04) 11.3.0
Compiler flags  : mpifort -O2 -fPIC -ftree-vectorize -fallow-argument-mismatch
PP flags        : -DFC_HAVE_ABORT -DMPI -DSIESTA__FLOOK -DSIESTA__METIS -DSIESTA__MUMPS -DCDF -DNCDF -DNCDF_4 -DNCDF_PARALLEL -DSIESTA__MRRR -DSIESTA__ELPA
Libraries       : libncdf.a libfdict.a  -lflookall -ldl -lnetcdff -lnetcdf -lhdf5_hl -lhdf5 -lhdf5_fortran -lz -lscalapack-openmpi -lopenblas -lmetis -lzmumps -lcmumps -ldmumps -lmumps_common -lpord -lsmumps -lesmumps -lscotch -lscotcherr -fopenmp -lelpa
PARALLEL version
NetCDF support
NetCDF-4 support
NetCDF-4 MPI-IO support
METIS ordering support
Lua support

* Running on 4 nodes in parallel
>> Start of run:  12-MAY-2023  11:36:35

                           ***********************       
                           *  WELCOME TO SIESTA  *       
                           ***********************       

reinit: Reading from standard input
reinit: Dumped input in INPUT_TMP.49108
************************** Dump of input data file ****************************
# mpirun -np 4 siesta-4.1.5 < Adenine.fdf > Adenine.out
SystemLabel      Adenine
NumberOfAtoms    15
NumberOfSpecies  3
%block ChemicalSpeciesLabel
    1    1  H
    2    7  N
    3   14  Si
%endblock ChemicalSpeciesLabel
############################################
# This overrides Defaults.fdf configuration
############################################
MD.TypeOfRun                CG # CG, Verlet
MD.Steps                    0
AtomicCoordinatesFormat NotScaledCartesianAng
%block AtomicCoordinatesAndAtomicSpecies
    2.46315851   -5.19921295   -0.00000000   1       1  H
    1.53554010   -4.69174449   -0.00000000   2       2  N
   -0.05609030   -5.52408710   -0.00000000   3       3  Si
    0.00000410   -7.01923201    0.00000000   1       4  H
   -1.49611119   -4.60498625    0.00000000   2       5  N
   -0.94359104   -2.88324895   -0.00000000   3       6  Si
   -1.28979062   -0.69238461    0.00000000   3       7  Si
   -2.82615282    0.16010171    0.00000000   2       8  N
   -2.87378880    1.21247611    0.00000000   1       9  H
   -3.75689478   -0.33235037   -0.00000000   1      10  H
    0.09887265    0.34342352   -0.00000000   2      11  N
    1.75278496   -0.11954481   -0.00000000   3      12  Si
    2.70878199    1.03908226    0.00000000   1      13  H
    2.52893094   -1.67740698   -0.00000000   2      14  N
    1.27270224   -2.87710973   -0.00000000   3      15  Si
%endblock AtomicCoordinatesAndAtomicSpecies
%include ../../Defaults.fdf
************************** End of input data file *****************************

reinit: -----------------------------------------------------------------------
reinit: System Name: 
reinit: -----------------------------------------------------------------------
reinit: System Label: Adenine
reinit: -----------------------------------------------------------------------

initatom: Reading input for the pseudopotentials and atomic orbitals ----------
Species number:   1 Atomic number:    1 Label: H
Species number:   2 Atomic number:    7 Label: N
Species number:   3 Atomic number:   14 Label: Si

Ground state valence configuration:   1s01
Reading pseudopotential information in formatted form from H.psf

Pseudopotential generated from a relativistic atomic calculation

Valence configuration for pseudopotential generation:
1s( 1.00) rc: 0.01
2p( 0.00) rc: 0.60
3d( 0.00) rc: 1.99
4f( 0.00) rc: 2.49
Ground state valence configuration:   2s02  2p03
Reading pseudopotential information in formatted form from N.psf

Pseudopotential generated from a relativistic atomic calculation

Valence configuration for pseudopotential generation:
2s( 2.00) rc: 0.94
2p( 3.00) rc: 0.59
3d( 0.00) rc: 3.46
4f( 0.00) rc: 2.47
Ground state valence configuration:   3s02  3p02
Reading pseudopotential information in formatted form from Si.psf

Pseudopotential generated from a relativistic atomic calculation

Valence configuration for pseudopotential generation:
3s( 2.00) rc: 1.67
3p( 2.00) rc: 2.04
3d( 0.00) rc: 2.89
4f( 0.00) rc: 2.49
For H, standard SIESTA heuristics set lmxkb to 2
 (one more than the basis l, including polarization orbitals).
Use PS.lmax or PS.KBprojectors blocks to override.
For N, standard SIESTA heuristics set lmxkb to 3
 (one more than the basis l, including polarization orbitals).
Use PS.lmax or PS.KBprojectors blocks to override.
For Si, standard SIESTA heuristics set lmxkb to 3
 (one more than the basis l, including polarization orbitals).
Use PS.lmax or PS.KBprojectors blocks to override.

<basis_specs>
===============================================================================
H                    Z=   1    Mass=  1.0100        Charge= 0.17977+309
Lmxo=0 Lmxkb= 2    BasisType=split      Semic=F
L=0  Nsemic=0  Cnfigmx=1
          i=1  nzeta=2  polorb=1  (1s)
            splnorm:   0.62000    
               vcte:    0.0000    
               rinn:    0.0000    
               qcoe:    0.0000    
               qyuk:    0.0000    
               qwid:   0.10000E-01
                rcs:    0.0000      0.0000    
            lambdas:    1.0000      1.0000    
-------------------------------------------------------------------------------
L=0  Nkbl=1  erefs: 0.17977+309
L=1  Nkbl=1  erefs: 0.17977+309
L=2  Nkbl=1  erefs: 0.17977+309
===============================================================================
</basis_specs>

atom: Called for H                     (Z =   1)

read_vps: Pseudopotential generation method:
read_vps: ATM4.2.7  Troullier-Martins                       
Valence charge for ps generation:    1.00000

xc_check: Exchange-correlation functional:
xc_check: GGA Perdew, Burke & Ernzerhof 1996
V l=0 = -2*Zval/r beyond r=  0.0098
V l=1 = -2*Zval/r beyond r=  0.5817
V l=2 = -2*Zval/r beyond r=  1.9372
All V_l potentials equal beyond r=  1.9372
This should be close to max(r_c) in ps generation
All pots = -2*Zval/r beyond r=  1.9372

VLOCAL1: 99.0% of the norm of Vloc inside     11.567 Ry
VLOCAL1: 99.9% of the norm of Vloc inside     26.362 Ry
atom: Maximum radius for 4*pi*r*r*local-pseudopot. charge    2.25106
atom: Maximum radius for r*vlocal+2*Zval:    1.91306
GHOST: No ghost state for L =  0
GHOST: No ghost state for L =  1
GHOST: No ghost state for L =  2

KBgen: Kleinman-Bylander projectors: 
   l= 0   rc=  2.036604   el= -0.477180   Ekb= -6.081590   kbcos= -0.277285
   l= 1   rc=  2.195416   el=  0.001076   Ekb= -0.926943   kbcos= -0.034643
   l= 2   rc=  2.251056   el=  0.002010   Ekb= -0.130941   kbcos= -0.009788

KBgen: Total number of Kleinman-Bylander projectors:    9
atom: -------------------------------------------------------------------------

atom: SANKEY-TYPE ORBITALS:
atom: Selected multiple-zeta basis: split     

SPLIT: Orbitals with angular momentum L= 0

SPLIT: Basis orbitals for state 1s

SPLIT: PAO cut-off radius determined from an
SPLIT: energy shift=  0.002000 Ry

   izeta = 1
                 lambda =    1.000000
                     rc =    6.518340
                 energy =   -0.475305
                kinetic =    0.912139
    potential(screened) =   -1.387444
       potential(ionic) =   -1.907295

   izeta = 2
                 rmatch =    2.141150
              splitnorm =    0.620000
                 energy =    0.566467
                kinetic =    3.772856
    potential(screened) =   -3.206389
       potential(ionic) =   -3.759093

POLgen: Perturbative polarization orbital with L=  1

POLgen: Polarization orbital for state 1s

   izeta = 1
                     rc =    6.518340
                 energy =    0.533861
                kinetic =    1.121086
    potential(screened) =   -0.587225
       potential(ionic) =   -1.053027
atom: Total number of Sankey-type orbitals:  5

atm_pop: Valence configuration (for local Pseudopot. screening):
 1s( 1.00)                                                            
Vna: chval, zval:    1.00000   1.00000

Vna:  Cut-off radius for the neutral-atom potential:   6.518340

atom: _________________________________________________________________________

<basis_specs>
===============================================================================
N                    Z=   7    Mass=  14.010        Charge= 0.17977+309
Lmxo=1 Lmxkb= 3    BasisType=split      Semic=F
L=0  Nsemic=0  Cnfigmx=2
          i=1  nzeta=2  polorb=0  (2s)
            splnorm:   0.28000    
               vcte:    0.0000    
               rinn:    0.0000    
               qcoe:    0.0000    
               qyuk:    0.0000    
               qwid:   0.10000E-01
                rcs:    0.0000      0.0000    
            lambdas:    1.0000      1.0000    
L=1  Nsemic=0  Cnfigmx=2
          i=1  nzeta=2  polorb=1  (2p)
            splnorm:   0.28000    
               vcte:    0.0000    
               rinn:    0.0000    
               qcoe:    0.0000    
               qyuk:    0.0000    
               qwid:   0.10000E-01
                rcs:    0.0000      0.0000    
            lambdas:    1.0000      1.0000    
-------------------------------------------------------------------------------
L=0  Nkbl=1  erefs: 0.17977+309
L=1  Nkbl=1  erefs: 0.17977+309
L=2  Nkbl=1  erefs: 0.17977+309
L=3  Nkbl=1  erefs: 0.17977+309
===============================================================================
</basis_specs>

atom: Called for N                     (Z =   7)

read_vps: Pseudopotential generation method:
read_vps: ATM4.2.7  Troullier-Martins                       
Valence charge for ps generation:    5.00000

xc_check: Exchange-correlation functional:
xc_check: GGA Perdew, Burke & Ernzerhof 1996
V l=0 = -2*Zval/r beyond r=  1.2889
V l=1 = -2*Zval/r beyond r=  1.2889
V l=2 = -2*Zval/r beyond r=  3.4178
V l=3 = -2*Zval/r beyond r=  2.4084
All V_l potentials equal beyond r=  3.3753
This should be close to max(r_c) in ps generation
All pots = -2*Zval/r beyond r=  3.4178

VLOCAL1: 99.0% of the norm of Vloc inside      3.810 Ry
VLOCAL1: 99.9% of the norm of Vloc inside      8.683 Ry
atom: Maximum radius for 4*pi*r*r*local-pseudopot. charge    4.02088
atom: Maximum radius for r*vlocal+2*Zval:    3.54838
GHOST: No ghost state for L =  0
GHOST: No ghost state for L =  1
GHOST: No ghost state for L =  2
GHOST: No ghost state for L =  3

KBgen: Kleinman-Bylander projectors: 
   l= 0   rc=  3.417763   el= -1.365098   Ekb= -4.433130   kbcos= -0.707855
   l= 1   rc=  3.375302   el= -0.521201   Ekb=-13.264039   kbcos= -0.535594
   l= 2   rc=  3.872880   el=  0.001991   Ekb= -0.641094   kbcos= -0.062456
   l= 3   rc=  3.970931   el=  0.003093   Ekb= -0.474517   kbcos= -0.018236

KBgen: Total number of Kleinman-Bylander projectors:   16
atom: -------------------------------------------------------------------------

atom: SANKEY-TYPE ORBITALS:
atom: Selected multiple-zeta basis: split     

SPLIT: Orbitals with angular momentum L= 0

SPLIT: Basis orbitals for state 2s

SPLIT: PAO cut-off radius determined from an
SPLIT: energy shift=  0.002000 Ry

   izeta = 1
                 lambda =    1.000000
                     rc =    4.730425
                 energy =   -1.363399
                kinetic =    1.245246
    potential(screened) =   -2.608645
       potential(ionic) =   -8.121105

   izeta = 2
                 rmatch =    2.531849
              splitnorm =    0.280000
                 energy =   -0.959908
                kinetic =    2.409435
    potential(screened) =   -3.369343
       potential(ionic) =   -9.427975

SPLIT: Orbitals with angular momentum L= 1

SPLIT: Basis orbitals for state 2p

SPLIT: PAO cut-off radius determined from an
SPLIT: energy shift=  0.002000 Ry

   izeta = 1
                 lambda =    1.000000
                     rc =    5.924108
                 energy =   -0.519262
                kinetic =    3.672940
    potential(screened) =   -4.192202
       potential(ionic) =   -9.518354

   izeta = 2
                 rmatch =    2.531849
              splitnorm =    0.280000
                 energy =   -0.104258
                kinetic =    6.807538
    potential(screened) =   -6.911796
       potential(ionic) =  -13.149920

POLgen: Perturbative polarization orbital with L=  2

POLgen: Polarization orbital for state 2p

   izeta = 1
                     rc =    5.924108
                 energy =    1.427508
                kinetic =    2.872379
    potential(screened) =   -1.444871
       potential(ionic) =   -5.563644
atom: Total number of Sankey-type orbitals: 13

atm_pop: Valence configuration (for local Pseudopot. screening):
 2s( 2.00)                                                            
 2p( 3.00)                                                            
Vna: chval, zval:    5.00000   5.00000

Vna:  Cut-off radius for the neutral-atom potential:   5.924108

atom: _________________________________________________________________________

<basis_specs>
===============================================================================
Si                   Z=  14    Mass=  28.090        Charge= 0.17977+309
Lmxo=1 Lmxkb= 3    BasisType=split      Semic=F
L=0  Nsemic=0  Cnfigmx=3
          i=1  nzeta=2  polorb=0  (3s)
            splnorm:   0.28000    
               vcte:    0.0000    
               rinn:    0.0000    
               qcoe:    0.0000    
               qyuk:    0.0000    
               qwid:   0.10000E-01
                rcs:    0.0000      0.0000    
            lambdas:    1.0000      1.0000    
L=1  Nsemic=0  Cnfigmx=3
          i=1  nzeta=2  polorb=1  (3p)
            splnorm:   0.28000    
               vcte:    0.0000    
               rinn:    0.0000    
               qcoe:    0.0000    
               qyuk:    0.0000    
               qwid:   0.10000E-01
                rcs:    0.0000      0.0000    
            lambdas:    1.0000      1.0000    
-------------------------------------------------------------------------------
L=0  Nkbl=1  erefs: 0.17977+309
L=1  Nkbl=1  erefs: 0.17977+309
L=2  Nkbl=1  erefs: 0.17977+309
L=3  Nkbl=1  erefs: 0.17977+309
===============================================================================
</basis_specs>

atom: Called for Si                    (Z =  14)

read_vps: Pseudopotential generation method:
read_vps: ATM4.2.7  Troullier-Martins                       
Valence charge for ps generation:    4.00000

xc_check: Exchange-correlation functional:
xc_check: GGA Perdew, Burke & Ernzerhof 1996
V l=0 = -2*Zval/r beyond r=  2.7826
V l=1 = -2*Zval/r beyond r=  2.7826
V l=2 = -2*Zval/r beyond r=  2.9253
V l=3 = -2*Zval/r beyond r=  2.7826
All V_l potentials equal beyond r=  2.8530
This should be close to max(r_c) in ps generation
All pots = -2*Zval/r beyond r=  2.9253

VLOCAL1: 99.0% of the norm of Vloc inside      5.333 Ry
VLOCAL1: 99.9% of the norm of Vloc inside     12.154 Ry
atom: Maximum radius for 4*pi*r*r*local-pseudopot. charge    3.39869
atom: Maximum radius for r*vlocal+2*Zval:    2.96205
GHOST: No ghost state for L =  0
GHOST: No ghost state for L =  1
GHOST: No ghost state for L =  2
GHOST: No ghost state for L =  3

KBgen: Kleinman-Bylander projectors: 
   l= 0   rc=  3.075247   el= -0.794092   Ekb=  5.879390   kbcos=  0.167461
   l= 1   rc=  3.153101   el= -0.300068   Ekb=  2.642817   kbcos=  0.058301
   l= 2   rc=  3.273594   el=  0.001958   Ekb= -1.185135   kbcos= -0.104411
   l= 3   rc=  3.232927   el=  0.003046   Ekb= -0.497174   kbcos= -0.015889

KBgen: Total number of Kleinman-Bylander projectors:   16
atom: -------------------------------------------------------------------------

atom: SANKEY-TYPE ORBITALS:
atom: Selected multiple-zeta basis: split     

SPLIT: Orbitals with angular momentum L= 0

SPLIT: Basis orbitals for state 3s

SPLIT: PAO cut-off radius determined from an
SPLIT: energy shift=  0.002000 Ry

   izeta = 1
                 lambda =    1.000000
                     rc =    6.429618
                 energy =   -0.792283
                kinetic =    0.525293
    potential(screened) =   -1.317576
       potential(ionic) =   -3.744923

   izeta = 2
                 rmatch =    3.998416
              splitnorm =    0.280000
                 energy =   -0.583081
                kinetic =    1.069570
    potential(screened) =   -1.652651
       potential(ionic) =   -4.235185

SPLIT: Orbitals with angular momentum L= 1

SPLIT: Basis orbitals for state 3p

SPLIT: PAO cut-off radius determined from an
SPLIT: energy shift=  0.002000 Ry

   izeta = 1
                 lambda =    1.000000
                     rc =    8.464845
                 energy =   -0.298236
                kinetic =    0.785360
    potential(screened) =   -1.083596
       potential(ionic) =   -3.273779

   izeta = 2
                 rmatch =    4.587816
              splitnorm =    0.280000
                 energy =   -0.131871
                kinetic =    1.403687
    potential(screened) =   -1.535557
       potential(ionic) =   -4.015310

POLgen: Perturbative polarization orbital with L=  2

POLgen: Polarization orbital for state 3p

   izeta = 1
                     rc =    8.464845
                 energy =    0.321949
                kinetic =    1.055677
    potential(screened) =   -0.733728
       potential(ionic) =   -2.672950
atom: Total number of Sankey-type orbitals: 13

atm_pop: Valence configuration (for local Pseudopot. screening):
 3s( 2.00)                                                            
 3p( 2.00)                                                            
Vna: chval, zval:    4.00000   4.00000

Vna:  Cut-off radius for the neutral-atom potential:   8.464845

atom: _________________________________________________________________________

prinput: Basis input ----------------------------------------------------------

PAO.BasisType split     

%block ChemicalSpeciesLabel
    1    1 H                       # Species index, atomic number, species label
    2    7 N                       # Species index, atomic number, species label
    3   14 Si                      # Species index, atomic number, species label
%endblock ChemicalSpeciesLabel

%block PAO.Basis                 # Define Basis set
H                     1                    # Species label, number of l-shells
 n=1   0   2 P   1                   # n, l, Nzeta, Polarization, NzetaPol
   6.518      2.141   
   1.000      1.000   
N                     2                    # Species label, number of l-shells
 n=2   0   2                         # n, l, Nzeta 
   4.730      2.532   
   1.000      1.000   
 n=2   1   2 P   1                   # n, l, Nzeta, Polarization, NzetaPol
   5.924      2.532   
   1.000      1.000   
Si                    2                    # Species label, number of l-shells
 n=3   0   2                         # n, l, Nzeta 
   6.430      3.998   
   1.000      1.000   
 n=3   1   2 P   1                   # n, l, Nzeta, Polarization, NzetaPol
   8.465      4.588   
   1.000      1.000   
%endblock PAO.Basis

prinput: ----------------------------------------------------------------------

Dumping basis to NetCDF file H.ion.nc
Dumping basis to NetCDF file N.ion.nc
Dumping basis to NetCDF file Si.ion.nc
coor:   Atomic-coordinates input format  =     Cartesian coordinates
coor:                                          (in Angstroms)

siesta: Atomic coordinates (Bohr) and species
siesta:      4.65470  -9.82509  -0.00000  1        1
siesta:      2.90175  -8.86612  -0.00000  2        2
siesta:     -0.10600 -10.43902  -0.00000  3        3
siesta:      0.00001 -13.26443   0.00000  1        4
siesta:     -2.82724  -8.70217   0.00000  2        5
siesta:     -1.78313  -5.44855  -0.00000  3        6
siesta:     -2.43735  -1.30842   0.00000  3        7
siesta:     -5.34066   0.30255   0.00000  2        8
siesta:     -5.43068   2.29125   0.00000  1        9
siesta:     -7.09951  -0.62805  -0.00000  1       10
siesta:      0.18684   0.64898  -0.00000  2       11
siesta:      3.31228  -0.22591  -0.00000  3       12
siesta:      5.11886   1.96358   0.00000  1       13
siesta:      4.77899  -3.16984  -0.00000  2       14
siesta:      2.40506  -5.43695  -0.00000  3       15

siesta: Automatic unit cell vectors (Ang):
siesta:   14.782281    0.000000    0.000000
siesta:    0.000000   16.643462    0.000000
siesta:    0.000000    0.000000    9.854683

siesta: System type = molecule  

initatomlists: Number of atoms, orbitals, and projectors:     15   155   205

siesta: ******************** Simulation parameters ****************************
siesta:
siesta: The following are some of the parameters of the simulation.
siesta: A complete list of the parameters used, including default values,
siesta: can be found in file out.fdf
siesta:
redata: Spin configuration                          = spin-orbit
redata: Number of spin components                   = 8
redata: Time-Reversal Symmetry                      = F
redata: Spin spiral                                 = F
############################################################
This spin-orbit implementation uses a local approximation.
From 4.2 and onwards the full non-local approximation is implemented
You are strongly advised to use >=4.2 versions!
############################################################
redata: Long output                                 =   F
redata: Number of Atomic Species                    =        3
redata: Charge density info will appear in .RHO file
redata: Write Mulliken Pop.                         = Atomic and Orbital charges
redata: Matel table size (NRTAB)                    =     1024
redata: Mesh Cutoff                                 =   340.0000 Ry
redata: Net charge of the system                    =     0.0000 |e|
redata: Min. number of SCF Iter                     =        1
redata: Max. number of SCF Iter                     =      200
redata: SCF convergence failure will abort job
redata: SCF mix quantity                            = Hamiltonian
redata: Mix DM or H after convergence               =   F
redata: Recompute H after scf cycle                 =   F
redata: Mix DM in first SCF step                    =   T
redata: Write Pulay info on disk                    =   F
redata: New DM Occupancy tolerance                  = 0.000000000001
redata: No kicks to SCF
redata: DM Mixing Weight for Kicks                  =     0.5000
redata: Require Harris convergence for SCF          =   F
redata: Harris energy tolerance for SCF             =     0.000100 eV
redata: Require DM convergence for SCF              =   T
redata: DM tolerance for SCF                        =     0.000008
redata: Require EDM convergence for SCF             =   F
redata: EDM tolerance for SCF                       =     0.001000 eV
redata: Require H convergence for SCF               =   T
redata: Hamiltonian tolerance for SCF               =     0.000001 eV
redata: Require (free) Energy convergence for SCF   =   F
redata: (free) Energy tolerance for SCF             =     0.000100 eV
redata: Using Saved Data (generic)                  =   F
redata: Use continuation files for DM               =   F
redata: Neglect nonoverlap interactions             =   F
redata: Method of Calculation                       = Diagonalization
redata: Electronic Temperature                      =   299.9978 K
redata: Fix the spin of the system                  =   F
redata: Dynamics option                             = Single-point calculation
mix.SCF: Pulay mixing                            = Pulay
mix.SCF:    Variant                              = stable
mix.SCF:    History steps                        = 6
mix.SCF:    Linear mixing weight                 =     0.250000
mix.SCF:    Mixing weight                        =     0.250000
mix.SCF:    SVD condition                        = 0.1000E-07
mix.SCF:    Restart steps                        = 24
mix.SCF:    Restart save steps                   = 3
mix.SCF: Spin-component mixing                   all
redata: Save all siesta data in one NC              =   F
redata: ***********************************************************************

%block SCF.Mixers
  Pulay
%endblock SCF.Mixers

%block SCF.Mixer.Pulay
  # Mixing method
  method pulay
  variant stable

  # Mixing options
  weight 0.2500
  weight.linear 0.2500
  history 6
  restart 24
  restart.save 3
%endblock SCF.Mixer.Pulay

DM_history_depth set to one: no extrapolation allowed by default for geometry relaxation
Size of DM history Fstack: 1
Total number of electrons:    50.000000
Total ionic charge:    50.000000

* ProcessorY, Blocksize:    2  24


* Orbital distribution balance (max,min):    48    24


Time-reversal symmetry not used.

siesta: k-grid: Number of k-points =     1
siesta: k-grid: Cutoff (effective) =     4.927 Ang
siesta: k-grid: Supercell and displacements
siesta: k-grid:    1   0   0      0.000
siesta: k-grid:    0   1   0      0.000
siesta: k-grid:    0   0   1      0.000

diag: Algorithm                                     = ELPA-1stage
diag: Parallel over k                               =   F
diag: Use parallel 2D distribution                  =   T
diag: Parallel block-size                           = 24
diag: Parallel distribution                         =     2 x     2
diag: Used triangular part                          = Lower
diag: Absolute tolerance                            =  0.100E-15
diag: Orthogonalization factor                      =  0.100E-05
diag: Memory factor                                 =  1.0000


ts: **************************************************************
ts: Save H and S matrices                           =    F
ts: Save DM and EDM matrices                        =    F
ts: Only save the overlap matrix S                  =    F
ts: **************************************************************

************************ Begin: TS CHECKS AND WARNINGS ************************
************************ End: TS CHECKS AND WARNINGS **************************


                     ====================================
                        Single-point calculation
                     ====================================

outcoor: Atomic coordinates (Ang):                          
    2.46315851   -5.19921295    0.00000000   1       1  H
    1.53554010   -4.69174449    0.00000000   2       2  N
   -0.05609030   -5.52408710    0.00000000   3       3  Si
    0.00000410   -7.01923201    0.00000000   1       4  H
   -1.49611119   -4.60498625    0.00000000   2       5  N
   -0.94359104   -2.88324895    0.00000000   3       6  Si
   -1.28979062   -0.69238461    0.00000000   3       7  Si
   -2.82615282    0.16010171    0.00000000   2       8  N
   -2.87378880    1.21247611    0.00000000   1       9  H
   -3.75689478   -0.33235037    0.00000000   1      10  H
    0.09887265    0.34342352    0.00000000   2      11  N
    1.75278496   -0.11954481    0.00000000   3      12  Si
    2.70878199    1.03908226    0.00000000   1      13  H
    2.52893094   -1.67740698    0.00000000   2      14  N
    1.27270224   -2.87710973    0.00000000   3      15  Si

outcell: Unit cell vectors (Ang):
       14.782281    0.000000    0.000000
        0.000000   16.643462    0.000000
        0.000000    0.000000    9.854683

outcell: Cell vector modules (Ang)   :   14.782281   16.643462    9.854683
outcell: Cell angles (23,13,12) (deg):     90.0000     90.0000     90.0000
outcell: Cell volume (Ang**3)        :   2424.5312
<dSpData1D:S at geom step 0
  <sparsity:sparsity for geom step 0
    nrows_g=155 nrows=48 sparsity=.3022 nnzs=7261, refcount: 8>
  <dData1D:(new from dSpData1D) n=7261, refcount: 1>
refcount: 1>
new_DM -- step:     1
Initializing Density Matrix...
DM filled with atomic data:
<dSpData2D:DM initialized from atoms
  <sparsity:sparsity for geom step 0
    nrows_g=155 nrows=48 sparsity=.3022 nnzs=7261, refcount: 9>
  <dData2D:DM n=7261 m=8, refcount: 1>
refcount: 1>
     spin moment: S , {S} =   30.00000   0.00000   0.00000  30.00000
No. of atoms with KB's overlaping orbs in proc 0. Max # of overlaps:      15     133

Initializing spin-orbit part of the Hamiltonian
  Adding spin-orbit effects for H 
  Adding spin-orbit effects for N 
  Adding spin-orbit effects for Si


New grid distribution:   1
           1       1:   90    1:   48    1:   30
           2       1:   90    1:   48   31:   60
           3       1:   90   49:   96    1:   30
           4       1:   90   49:   96   31:   60

InitMesh: MESH =   180 x   192 x   120 =     4147200
InitMesh: (bp) =    90 x    96 x    60 =      518400
InitMesh: Mesh cutoff (required, used) =   340.000   367.804 Ry
ExtMesh (bp) on 0 =   202 x   152 x   142 =     4359968
New grid distribution:   2
           1      26:   90    1:   75    1:   60
           2       1:   25    1:   75    1:   60
           3      23:   90   76:   96    1:   60
           4       1:   22   76:   96    1:   60
New grid distribution:   3
           1      35:   90    1:   62    1:   60
           2       1:   34    1:   62    1:   60
           3      36:   90   63:   96    1:   60
           4       1:   35   63:   96    1:   60
Setting up quadratic distribution...
ExtMesh (bp) on 0 =   177 x   179 x   172 =     5449476
PhiOnMesh: Number of (b)points on node 0 =               292500
PhiOnMesh: nlist on node 0 =              1755101

stepf: Fermi-Dirac step function

siesta: Program's energy decomposition (eV):
siesta: Ebs     =      -308.119981
siesta: Eions   =      1645.679058
siesta: Ena     =       215.231456
siesta: Ekin    =      1533.832178
siesta: Enl     =     -1587.793728
siesta: Eso     =        -0.001641
siesta: Edftu   =         0.000000
siesta: DEna    =        98.364363
siesta: DUscf   =        42.826037
siesta: DUext   =         0.000000
siesta: Exc     =      -591.221390
siesta: eta*DQ  =         0.000000
siesta: Emadel  =         0.000000
siesta: Emeta   =         0.000000
siesta: Emolmec =         0.000000
siesta: Ekinion =         0.000000
siesta: Eharris =     -1887.935830
siesta: Etot    =     -1934.441783
siesta: FreeEng =     -1934.441784

        iscf     Eharris(eV)        E_KS(eV)     FreeEng(eV)     dDmax    Ef(eV) dHmax(eV)
   scf:    1    -1887.935830    -1934.441783    -1934.441784  0.945657 -4.884438 19.294096
     spin moment: S , {S} =    2.00002  -0.00000  -0.00000   2.00002
timer: Routine,Calls,Time,% = IterSCF        1      12.651  36.13
   scf:    2    -1968.700591    -1957.141712    -1957.147846  0.320988 -4.043817  8.500843
     spin moment: S , {S} =    0.05093  -0.00000  -0.00000   0.05093
   scf:    3    -1959.898859    -1958.849462    -1958.849463  0.057150 -3.622355  6.543679
     spin moment: S , {S} =    0.00006  -0.00000  -0.00000   0.00006
   scf:    4    -1959.609484    -1959.251407    -1959.251407  0.023987 -3.463452  4.495759
     spin moment: S , {S} =    0.00004  -0.00000   0.00000   0.00004
   scf:    5    -1959.814350    -1959.530649    -1959.530649  0.030609 -3.249633  1.744153
     spin moment: S , {S} =    0.00002  -0.00000   0.00000   0.00002
   scf:    6    -1959.739619    -1959.630409    -1959.630409  0.021203 -3.787357  0.513256
     spin moment: S , {S} =    0.00001   0.00000  -0.00000   0.00001
   scf:    7    -1959.709890    -1959.667860    -1959.667860  0.012592 -3.756491  0.206268
     spin moment: S , {S} =    0.00000   0.00000  -0.00000   0.00000
   scf:    8    -1959.687959    -1959.677480    -1959.677480  0.006018 -3.750427  0.108814
     spin moment: S , {S} =    0.00000   0.00000  -0.00000   0.00000
   scf:    9    -1959.692689    -1959.684567    -1959.684567  0.006625 -3.747882  0.077543
     spin moment: S , {S} =    0.00000   0.00000  -0.00000   0.00000
   scf:   10    -1959.697545    -1959.690135    -1959.690135  0.009006 -3.744516  0.048392
     spin moment: S , {S} =    0.00000   0.00000  -0.00000   0.00000
   scf:   11    -1959.693557    -1959.691560    -1959.691560  0.005580 -3.743188  0.025544
     spin moment: S , {S} =    0.00000   0.00000  -0.00000   0.00000
   scf:   12    -1959.692290    -1959.691872    -1959.691872  0.002953 -3.741761  0.016070
     spin moment: S , {S} =    0.00000   0.00000  -0.00000   0.00000
   scf:   13    -1959.692018    -1959.691938    -1959.691938  0.001189 -3.742102  0.009744
     spin moment: S , {S} =    0.00000   0.00000  -0.00000   0.00000
   scf:   14    -1959.692032    -1959.691980    -1959.691980  0.001075 -3.741694  0.006935
     spin moment: S , {S} =    0.00000   0.00000  -0.00000   0.00000
   scf:   15    -1959.692030    -1959.692000    -1959.692000  0.001057 -3.741448  0.002324
     spin moment: S , {S} =    0.00000   0.00000   0.00000  -0.00000
   scf:   16    -1959.692006    -1959.692003    -1959.692003  0.000308 -3.741287  0.001646
     spin moment: S , {S} =    0.00000   0.00000   0.00000  -0.00000
   scf:   17    -1959.692005    -1959.692004    -1959.692004  0.000195 -3.741227  0.000885
     spin moment: S , {S} =    0.00000  -0.00000   0.00000  -0.00000
   scf:   18    -1959.692004    -1959.692004    -1959.692004  0.000092 -3.741200  0.000638
     spin moment: S , {S} =    0.00000  -0.00000   0.00000  -0.00000
   scf:   19    -1959.692004    -1959.692004    -1959.692004  0.000045 -3.741194  0.000481
     spin moment: S , {S} =    0.00000  -0.00000   0.00000  -0.00000
   scf:   20    -1959.692004    -1959.692004    -1959.692004  0.000037 -3.741193  0.000298
     spin moment: S , {S} =    0.00000  -0.00000   0.00000  -0.00000
   scf:   21    -1959.692004    -1959.692004    -1959.692004  0.000027 -3.741187  0.000177
     spin moment: S , {S} =    0.00000  -0.00000   0.00000  -0.00000
   scf:   22    -1959.692004    -1959.692004    -1959.692004  0.000013 -3.741187  0.000125
     spin moment: S , {S} =    0.00000  -0.00000   0.00000  -0.00000
   scf:   23    -1959.692004    -1959.692004    -1959.692004  0.000012 -3.741191  0.000100
     spin moment: S , {S} =    0.00000  -0.00000   0.00000  -0.00000
   scf:   24    -1959.692004    -1959.692004    -1959.692004  0.000006 -3.741193  0.000072
     spin moment: S , {S} =    0.00000  -0.00000   0.00000  -0.00000
mix: Pulay -- resetting history
   scf:   25    -1959.692004    -1959.692004    -1959.692004  0.000005 -3.741192  0.000046
     spin moment: S , {S} =    0.00000  -0.00000   0.00000  -0.00000
   scf:   26    -1959.692004    -1959.692004    -1959.692004  0.000006 -3.741191  0.000025
     spin moment: S , {S} =    0.00000  -0.00000   0.00000  -0.00000
   scf:   27    -1959.692004    -1959.692004    -1959.692004  0.000003 -3.741190  0.000010
     spin moment: S , {S} =    0.00000  -0.00000   0.00000  -0.00000
   scf:   28    -1959.692004    -1959.692004    -1959.692004  0.000001 -3.741191  0.000006
     spin moment: S , {S} =    0.00000  -0.00000   0.00000  -0.00000
   scf:   29    -1959.692004    -1959.692004    -1959.692004  0.000001 -3.741191  0.000004
     spin moment: S , {S} =    0.00000  -0.00000   0.00000  -0.00000
   scf:   30    -1959.692004    -1959.692004    -1959.692004  0.000001 -3.741191  0.000002
     spin moment: S , {S} =    0.00000  -0.00000   0.00000  -0.00000
   scf:   31    -1959.692004    -1959.692004    -1959.692004  0.000000 -3.741191  0.000001
     spin moment: S , {S} =    0.00000  -0.00000   0.00000  -0.00000

SCF Convergence by DM+H criterion
max |DM_out - DM_in|         :     0.0000001951
max |H_out - H_in|      (eV) :     0.0000006679
SCF cycle converged after 31 iterations

Using DM_out to compute the final energy and forces
No. of atoms with KB's overlaping orbs in proc 0. Max # of overlaps:      15     133

siesta: E_KS(eV) =            -1959.6920

siesta: E_KS - E_eggbox =     -1959.6920
     spin moment: S , {S} =    0.00000  -0.00000   0.00000  -0.00000

siesta: Atomic forces (eV/Ang):
     1    0.034470   -0.101327   -0.000000
     2    0.002126    0.003033   -0.000000
     3   -0.001427    0.000913   -0.000000
     4   -0.002042   -0.133587    0.000000
     5   -0.004860   -0.006277    0.000000
     6    0.002296   -0.000872   -0.000000
     7   -0.000430   -0.001628    0.000000
     8    0.000659    0.001267   -0.000000
     9   -0.044367    0.025439    0.000000
    10    0.001889    0.001343   -0.000000
    11   -0.001882   -0.003678   -0.000000
    12    0.001233    0.002265    0.000000
    13    0.027870    0.014344    0.000000
    14    0.002418    0.000427   -0.000000
    15    0.000727    0.001656    0.000000
----------------------------------------
   Tot    0.018679   -0.196681    0.000000
----------------------------------------
   Max    0.133587
   Res    0.027093    sqrt( Sum f_i^2 / 3N )
----------------------------------------
   Max    0.133587    constrained

Stress tensor Voigt[x,y,z,yz,xz,xy] (kbar):        0.29        0.27        0.02       -0.00        0.00        0.12
(Free)E + p*V (eV/cell)    -1959.9864
Target enthalpy (eV/cell)    -1959.6920

mulliken: Atomic and Orbital Populations:

Species: H                   

Atom      Orb        Charge      Spin       Svec
----------------------------------------------------------------
    1  1 1s         0.50599   0.00000      0.000  -0.000   0.000
    1  2 1s         0.18876   0.00000     -0.000  -0.000   0.000
    1  3 2Ppy       0.02754   0.00000      0.000  -0.000  -0.000
    1  4 2Ppz       0.03915   0.00000     -0.000   0.000   0.000
    1  5 2Ppx       0.02497   0.00000      0.000   0.000   0.000
    1     Total     0.78641   0.00000      0.000   0.000   0.000

    4  1 1s         1.01869   0.00000      0.000  -0.000  -0.000
    4  2 1s         0.09588   0.00000     -0.000   0.000   0.000
    4  3 2Ppy       0.03972   0.00000     -0.000  -0.000   0.000
    4  4 2Ppz       0.01911   0.00000      0.000  -0.000   0.000
    4  5 2Ppx       0.01351   0.00000      0.000   0.000  -0.000
    4     Total     1.18691   0.00000      0.000  -0.000  -0.000

    9  1 1s         0.48573   0.00000      0.000   0.000   0.000
    9  2 1s         0.19474   0.00000     -0.000  -0.000   0.000
    9  3 2Ppy       0.02309   0.00000      0.000   0.000  -0.000
    9  4 2Ppz       0.05091   0.00000     -0.000  -0.000   0.000
    9  5 2Ppx       0.01299   0.00000      0.000  -0.000   0.000
    9     Total     0.76746   0.00000      0.000   0.000   0.000

   10  1 1s         0.48215   0.00000      0.000   0.000   0.000
   10  2 1s         0.19598   0.00000     -0.000  -0.000   0.000
   10  3 2Ppy       0.00690   0.00000      0.000   0.000  -0.000
   10  4 2Ppz       0.05327   0.00000     -0.000   0.000   0.000
   10  5 2Ppx       0.02904   0.00000      0.000   0.000  -0.000
   10     Total     0.76733   0.00000      0.000   0.000   0.000

   13  1 1s         1.01896   0.00000      0.000  -0.000   0.000
   13  2 1s         0.09920   0.00000     -0.000   0.000  -0.000
   13  3 2Ppy       0.02423   0.00000      0.000  -0.000   0.000
   13  4 2Ppz       0.01487   0.00000      0.000   0.000  -0.000
   13  5 2Ppx       0.01729   0.00000      0.000  -0.000   0.000
   13     Total     1.17455   0.00000      0.000  -0.000   0.000

----------------------------------------------------------------
Total               4.68265   0.00000      0.000   0.000  -0.000


Species: N                   

Atom      Orb        Charge      Spin       Svec
----------------------------------------------------------------
    2  1 2s         1.38074   0.00000     -0.000   0.000  -0.000
    2  2 2s         0.12669   0.00000      0.000  -0.000  -0.000
    2  3 2py        1.06755   0.00000     -0.000   0.000  -0.000
    2  4 2pz        1.49623   0.00000      0.000   0.000  -0.000
    2  5 2px        1.01858   0.00000     -0.000   0.000  -0.000
    2  6 2py        0.19589   0.00000     -0.000  -0.000  -0.000
    2  7 2pz        0.01374   0.00000     -0.000   0.000  -0.000
    2  8 2px        0.20992   0.00000      0.000  -0.000  -0.000
    2  9 3Pdxy      0.00663   0.00000      0.000  -0.000   0.000
    2 10 3Pdyz      0.00594   0.00000      0.000  -0.000  -0.000
    2 11 3Pdz2      0.00149   0.00000      0.000  -0.000   0.000
    2 12 3Pdxz      0.00303   0.00000      0.000  -0.000   0.000
    2 13 3Pdx2-y2   0.00296   0.00000     -0.000  -0.000  -0.000
    2     Total     5.52941   0.00000     -0.000   0.000  -0.000

    5  1 2s         1.55953   0.00000      0.000   0.000  -0.000
    5  2 2s         0.08049   0.00000     -0.000  -0.000   0.000
    5  3 2py        0.90263   0.00000      0.000  -0.000  -0.000
    5  4 2pz        1.22482   0.00000     -0.000   0.000  -0.000
    5  5 2px        1.13859   0.00000     -0.000  -0.000  -0.000
    5  6 2py        0.23008   0.00000     -0.000   0.000   0.000
    5  7 2pz        0.05518   0.00000      0.000  -0.000   0.000
    5  8 2px        0.14760   0.00000     -0.000   0.000   0.000
    5  9 3Pdxy      0.00856   0.00000      0.000  -0.000   0.000
    5 10 3Pdyz      0.00684   0.00000      0.000  -0.000   0.000
    5 11 3Pdz2      0.00191   0.00000     -0.000  -0.000   0.000
    5 12 3Pdxz      0.01133   0.00000     -0.000   0.000   0.000
    5 13 3Pdx2-y2   0.00925   0.00000      0.000   0.000  -0.000
    5     Total     5.37682   0.00000     -0.000   0.000  -0.000

    8  1 2s         1.28472   0.00000      0.000  -0.000   0.000
    8  2 2s         0.17129   0.00000     -0.000   0.000  -0.000
    8  3 2py        1.05722   0.00000     -0.000  -0.000  -0.000
    8  4 2pz        1.57490   0.00000      0.000  -0.000  -0.000
    8  5 2px        1.00518   0.00000     -0.000  -0.000  -0.000
    8  6 2py        0.19568   0.00000      0.000   0.000  -0.000
    8  7 2pz        0.02728   0.00000     -0.000   0.000  -0.000
    8  8 2px        0.22865   0.00000     -0.000   0.000  -0.000
    8  9 3Pdxy      0.00268   0.00000     -0.000   0.000  -0.000
    8 10 3Pdyz      0.00082   0.00000      0.000  -0.000  -0.000
    8 11 3Pdz2      0.00275   0.00000     -0.000   0.000  -0.000
    8 12 3Pdxz      0.00244   0.00000      0.000   0.000  -0.000
    8 13 3Pdx2-y2   0.00444   0.00000      0.000   0.000   0.000
    8     Total     5.55805   0.00000      0.000  -0.000  -0.000

   11  1 2s         1.45670   0.00000      0.000   0.000   0.000
   11  2 2s         0.11469   0.00000     -0.000  -0.000  -0.000
   11  3 2py        1.22732   0.00000      0.000   0.000  -0.000
   11  4 2pz        1.28745   0.00000     -0.000   0.000   0.000
   11  5 2px        0.79867   0.00000     -0.000  -0.000   0.000
   11  6 2py        0.11117   0.00000     -0.000   0.000  -0.000
   11  7 2pz        0.04615   0.00000      0.000  -0.000  -0.000
   11  8 2px        0.31783   0.00000      0.000   0.000  -0.000
   11  9 3Pdxy      0.00731   0.00000      0.000  -0.000   0.000
   11 10 3Pdyz      0.00600   0.00000      0.000  -0.000  -0.000
   11 11 3Pdz2      0.00054   0.00000      0.000   0.000  -0.000
   11 12 3Pdxz      0.00506   0.00000     -0.000   0.000  -0.000
   11 13 3Pdx2-y2   0.00521   0.00000     -0.000   0.000   0.000
   11     Total     5.38409   0.00000      0.000   0.000   0.000

   14  1 2s         1.50623   0.00000      0.000  -0.000   0.000
   14  2 2s         0.10250   0.00000     -0.000   0.000  -0.000
   14  3 2py        0.84381   0.00000      0.000   0.000   0.000
   14  4 2pz        1.23597   0.00000      0.000  -0.000   0.000
   14  5 2px        1.17842   0.00000      0.000  -0.000   0.000
   14  6 2py        0.27778   0.00000     -0.000  -0.000  -0.000
   14  7 2pz        0.05454   0.00000     -0.000   0.000  -0.000
   14  8 2px        0.13204   0.00000     -0.000   0.000  -0.000
   14  9 3Pdxy      0.00949   0.00000      0.000  -0.000   0.000
   14 10 3Pdyz      0.00499   0.00000      0.000   0.000  -0.000
   14 11 3Pdz2      0.00146   0.00000      0.000   0.000  -0.000
   14 12 3Pdxz      0.01064   0.00000      0.000   0.000  -0.000
   14 13 3Pdx2-y2   0.00790   0.00000     -0.000   0.000   0.000
   14     Total     5.36577   0.00000      0.000  -0.000   0.000

----------------------------------------------------------------
Total              31.89680   0.00000      0.000  -0.000   0.000


Species: Si                  

Atom      Orb        Charge      Spin       Svec
----------------------------------------------------------------
    3  1 3s         0.55228   0.00000      0.000   0.000   0.000
    3  2 3s         0.38859   0.00000     -0.000  -0.000   0.000
    3  3 3py        0.07509   0.00000     -0.000   0.000   0.000
    3  4 3pz        0.51949   0.00000      0.000  -0.000   0.000
    3  5 3px        0.36594   0.00000     -0.000   0.000   0.000
    3  6 3py        0.50567   0.00000     -0.000  -0.000  -0.000
    3  7 3pz        0.17889   0.00000     -0.000   0.000   0.000
    3  8 3px        0.23792   0.00000      0.000  -0.000   0.000
    3  9 3Pdxy      0.10784   0.00000      0.000   0.000   0.000
    3 10 3Pdyz      0.05088   0.00000      0.000  -0.000   0.000
    3 11 3Pdz2      0.00988   0.00000     -0.000  -0.000  -0.000
    3 12 3Pdxz      0.13148   0.00000     -0.000   0.000   0.000
    3 13 3Pdx2-y2   0.32257   0.00000      0.000  -0.000   0.000
    3     Total     3.44653   0.00000      0.000  -0.000   0.000

    6  1 3s         0.66115   0.00000      0.000  -0.000   0.000
    6  2 3s         0.37071   0.00000     -0.000   0.000   0.000
    6  3 3py        0.13103   0.00000      0.000  -0.000   0.000
    6  4 3pz        0.68985   0.00000      0.000   0.000   0.000
    6  5 3px        0.48944   0.00000     -0.000  -0.000   0.000
    6  6 3py        0.46564   0.00000     -0.000   0.000   0.000
    6  7 3pz        0.24371   0.00000     -0.000  -0.000   0.000
    6  8 3px        0.24613   0.00000      0.000   0.000   0.000
    6  9 3Pdxy      0.18567   0.00000     -0.000  -0.000   0.000
    6 10 3Pdyz      0.14946   0.00000     -0.000   0.000   0.000
    6 11 3Pdz2      0.01161   0.00000      0.000  -0.000  -0.000
    6 12 3Pdxz      0.03666   0.00000     -0.000   0.000  -0.000
    6 13 3Pdx2-y2   0.18880   0.00000     -0.000  -0.000  -0.000
    6     Total     3.86987   0.00000      0.000   0.000   0.000

    7  1 3s         0.62836   0.00000     -0.000  -0.000   0.000
    7  2 3s         0.36859   0.00000      0.000   0.000  -0.000
    7  3 3py        0.37378   0.00000     -0.000   0.000  -0.000
    7  4 3pz        0.49907   0.00000     -0.000  -0.000  -0.000
    7  5 3px        0.07995   0.00000     -0.000  -0.000  -0.000
    7  6 3py        0.30309   0.00000     -0.000  -0.000  -0.000
    7  7 3pz        0.20761   0.00000      0.000   0.000  -0.000
    7  8 3px        0.42022   0.00000      0.000   0.000   0.000
    7  9 3Pdxy      0.20453   0.00000      0.000  -0.000   0.000
    7 10 3Pdyz      0.14391   0.00000     -0.000  -0.000   0.000
    7 11 3Pdz2      0.01077   0.00000      0.000  -0.000   0.000
    7 12 3Pdxz      0.14905   0.00000     -0.000  -0.000  -0.000
    7 13 3Pdx2-y2   0.24126   0.00000     -0.000  -0.000  -0.000
    7     Total     3.63020   0.00000     -0.000  -0.000  -0.000

   12  1 3s         0.52504   0.00000     -0.000   0.000  -0.000
   12  2 3s         0.40201   0.00000      0.000  -0.000  -0.000
   12  3 3py        0.23430   0.00000     -0.000  -0.000  -0.000
   12  4 3pz        0.44676   0.00000      0.000   0.000  -0.000
   12  5 3px        0.29228   0.00000     -0.000  -0.000  -0.000
   12  6 3py        0.39138   0.00000      0.000   0.000   0.000
   12  7 3pz        0.17002   0.00000      0.000   0.000  -0.000
   12  8 3px        0.34211   0.00000      0.000   0.000   0.000
   12  9 3Pdxy      0.38906   0.00000      0.000   0.000  -0.000
   12 10 3Pdyz      0.08103   0.00000     -0.000  -0.000  -0.000
   12 11 3Pdz2      0.01066   0.00000      0.000   0.000  -0.000
   12 12 3Pdxz      0.09307   0.00000      0.000   0.000  -0.000
   12 13 3Pdx2-y2   0.16561   0.00000     -0.000   0.000  -0.000
   12     Total     3.54333   0.00000     -0.000   0.000  -0.000

   15  1 3s         0.65977   0.00000     -0.000   0.000  -0.000
   15  2 3s         0.36771   0.00000     -0.000  -0.000  -0.000
   15  3 3py       -0.03236   0.00000     -0.000  -0.000  -0.000
   15  4 3pz        0.50747   0.00000      0.000  -0.000  -0.000
   15  5 3px        0.38742   0.00000     -0.000   0.000  -0.000
   15  6 3py        0.47522   0.00000      0.000   0.000   0.000
   15  7 3pz        0.20108   0.00000     -0.000   0.000  -0.000
   15  8 3px        0.34028   0.00000      0.000  -0.000   0.000
   15  9 3Pdxy      0.14207   0.00000     -0.000   0.000   0.000
   15 10 3Pdyz      0.12634   0.00000     -0.000   0.000  -0.000
   15 11 3Pdz2      0.01380   0.00000      0.000   0.000  -0.000
   15 12 3Pdxz      0.12351   0.00000     -0.000   0.000  -0.000
   15 13 3Pdx2-y2   0.30097   0.00000     -0.000   0.000  -0.000
   15     Total     3.61328   0.00000     -0.000   0.000  -0.000

----------------------------------------------------------------
Total              50.00000   0.00000     -0.000   0.000  -0.000


siesta: Eigenvalues (eV):
ik =     1
  -21.2848  -21.2848  -21.1547  -21.1547  -19.7726  -19.7726  -19.5100  -19.5100  -18.9822  -18.9822
  -13.9380  -13.9380  -13.1693  -13.1693  -12.8212  -12.8212  -12.4044  -12.4044  -11.9096  -11.9096
  -11.2579  -11.2579  -10.4999  -10.4999   -9.4668   -9.4668   -9.1255   -9.1255   -8.5415   -8.5415
   -8.4203   -8.4203   -8.2477   -8.2477   -7.6935   -7.6935   -7.6596   -7.6596   -7.0993   -7.0993
   -6.6801   -6.6801   -6.4352   -6.4352   -6.1070   -6.1070   -5.8903   -5.8903   -4.5445   -4.5445
   -2.4824   -2.4824   -2.3423   -2.3423   -2.0144   -2.0144   -1.9041   -1.9041   -1.6610   -1.6610
   -0.9312   -0.9312   -0.5505   -0.5505   -0.5042   -0.5042    0.2412    0.2412    0.3181    0.3181
    1.0105    1.0105    1.0217    1.0217    1.6158    1.6158    1.8773    1.8773    2.2033    2.2033
    2.5158    2.5158    2.5992    2.5992    2.7821    2.7821    2.8508    2.8508    3.5070    3.5070
    3.8158    3.8158    4.0377    4.0377    4.3858    4.3858    4.4058    4.4058    4.8050    4.8050
    4.9340    4.9340    5.5584    5.5584    5.6258    5.6258    5.8275    5.8275    6.0001    6.0002
    6.3207    6.3207    6.8311    6.8311    6.9199    6.9199    7.2353    7.2353    7.4368    7.4368
    7.6741    7.6741    8.0247    8.0247    8.0411    8.0411    8.6198    8.6198    8.6502    8.6502
    9.0739    9.0739    9.3833    9.3833    9.6091    9.6091    9.6213    9.6213   10.1413   10.1413
   10.6178   10.6178   11.0921   11.0921   11.2797   11.2797   11.4464   11.4464   12.1150   12.1150
   12.5248   12.5248   12.7684   12.7684   13.0097   13.0097   13.6334   13.6334   14.2435   14.2435
   14.4758   14.4758   14.8446   14.8446   16.1367   16.1367   16.5419   16.5419   17.0365   17.0365
   17.6445   17.6445   18.2747   18.2747   18.5180   18.5180   18.5365   18.5365   20.0044   20.0044
   20.7954   20.7954   20.9134   20.9134   21.9672   21.9672   22.6162   22.6162   22.8120   22.8120
   24.3964   24.3964   25.3476   25.3476   25.8519   25.8519   26.3652   26.3652   28.2187   28.2187
   29.5827   29.5827   30.2891   30.2891   30.5679   30.5679   30.6274   30.6274   31.0357   31.0357
   31.3882   31.3882   32.0690   32.0690   32.0802   32.0802   33.3573   33.3573   34.6060   34.6060
   35.8577   35.8577   36.9809   36.9809   37.3108   37.3108   37.3595   37.3595   38.2208   38.2208
   40.1750   40.1750   40.4841   40.4841   41.1336   41.1336   41.3553   41.3553   41.4512   41.4512
   43.0002   43.0002   43.6426   43.6426   44.2198   44.2198   44.4671   44.4671   44.9549   44.9549
   45.0331   45.0331   46.1693   46.1693   46.3477   46.3477   46.9164   46.9164   48.5627   48.5627
   50.0127   50.0127   50.3370   50.3370   51.6041   51.6041   53.7543   53.7543   54.7026   54.7026
   56.0164   56.0164   56.5996   56.5996   57.2879   57.2879   59.4337   59.4337   59.9767   59.9767
   60.9244   60.9244   61.3336   61.3336   61.8820   61.8820   65.3800   65.3800   66.8629   66.8629
   68.5388   68.5388   71.1866   71.1866   78.3938   78.3938   92.7033   92.7033   95.3077   95.3077
  100.1888  100.1888  102.7217  102.7217  113.0409  113.0409  122.8248  122.8248  140.0849  140.0849
siesta: Fermi energy =      -3.741191 eV

siesta: Program's energy decomposition (eV):
siesta: Ebs     =      -565.231819
siesta: Eions   =      1645.679058
siesta: Ena     =       215.231456
siesta: Ekin    =      1308.441454
siesta: Enl     =     -1325.105274
siesta: Eso     =        -0.002265
siesta: Edftu   =         0.000000
siesta: DEna    =        29.141112
siesta: DUscf   =         7.191512
siesta: DUext   =         0.000000
siesta: Exc     =      -548.910941
siesta: eta*DQ  =         0.000000
siesta: Emadel  =         0.000000
siesta: Emeta   =         0.000000
siesta: Emolmec =         0.000000
siesta: Ekinion =         0.000000
siesta: Eharris =     -1959.692004
siesta: Etot    =     -1959.692004
siesta: FreeEng =     -1959.692004

siesta: Final energy (eV):
siesta:  Band Struct. =    -565.231819
siesta:       Kinetic =    1308.441454
siesta:       Hartree =    3301.377226
siesta:       Edftu   =       0.000000
siesta:       Eso     =      -0.002265
siesta:    Ext. field =       0.000000
siesta:   Exch.-corr. =    -548.910941
siesta:  Ion-electron =   -7763.797404
siesta:       Ion-ion =    1743.199926
siesta:       Ekinion =       0.000000
siesta:         Total =   -1959.692004
siesta:         Fermi =      -3.741191

siesta: Atomic forces (eV/Ang):
siesta:      1    0.034470   -0.101327   -0.000000
siesta:      2    0.002126    0.003033   -0.000000
siesta:      3   -0.001427    0.000913   -0.000000
siesta:      4   -0.002042   -0.133587    0.000000
siesta:      5   -0.004860   -0.006277    0.000000
siesta:      6    0.002296   -0.000872   -0.000000
siesta:      7   -0.000430   -0.001628    0.000000
siesta:      8    0.000659    0.001267   -0.000000
siesta:      9   -0.044367    0.025439    0.000000
siesta:     10    0.001889    0.001343   -0.000000
siesta:     11   -0.001882   -0.003678   -0.000000
siesta:     12    0.001233    0.002265    0.000000
siesta:     13    0.027870    0.014344    0.000000
siesta:     14    0.002418    0.000427   -0.000000
siesta:     15    0.000727    0.001656    0.000000
siesta: ----------------------------------------
siesta:    Tot    0.018679   -0.196681    0.000000

siesta: Stress tensor (static) (eV/Ang**3):
siesta:     0.000184    0.000075   -0.000000
siesta:     0.000075    0.000171   -0.000000
siesta:     0.000000   -0.000000    0.000009

siesta: Cell volume =       2424.531212 Ang**3

siesta: Pressure (static):
siesta:                Solid            Molecule  Units
siesta:          -0.00000132         -0.00000339  Ry/Bohr**3
siesta:          -0.00012142         -0.00031161  eV/Ang**3
siesta:          -0.19454355         -0.49926688  kBar
(Free)E+ p_basis*V_orbitals  =       -1949.010134
(Free)Eharris+ p_basis*V_orbitals  =       -1949.010134
     spin moment: S , {S} =    0.00000  -0.00000   0.00000  -0.00000

siesta: Electric dipole (a.u.)  =   -0.396249   -0.608826   -0.000000
siesta: Electric dipole (Debye) =   -1.007166   -1.547484   -0.000000

cite: Please see "Adenine.bib" for an exhaustive BiBTeX file.
cite: Please clearly indicate Siesta version in published work: v4.1.5-1-g384057250
cite: This calculation has made use of the following articles
cite: which are encouraged to be cited in a published work.
        Primary SIESTA paper
          DOI: www.doi.org/10.1088/0953-8984/14/11/302
        Spin-orbit coupling (on-site approximation)
          DOI: www.doi.org/10.1088/0953-8984/19/19/489001


WARNING: alloc-realloc-dealloc name mismatch
         Name: atomlist isa
         Size:               -60. Bytes
         Node:     0
         Subsequent mismatches will not be reported
>> End of run:  12-MAY-2023  11:40:48
Job completed
