Siesta Version  : v4.1.5-1-g384057250
Architecture    : gcc
Compiler version: GNU Fortran (Ubuntu 11.3.0-1ubuntu1~22.04) 11.3.0
Compiler flags  : mpifort -O2 -fPIC -ftree-vectorize -fallow-argument-mismatch
PP flags        : -DFC_HAVE_ABORT -DMPI -DSIESTA__FLOOK -DSIESTA__METIS -DSIESTA__MUMPS -DCDF -DNCDF -DNCDF_4 -DNCDF_PARALLEL -DSIESTA__MRRR -DSIESTA__ELPA
Libraries       : libncdf.a libfdict.a  -lflookall -ldl -lnetcdff -lnetcdf -lhdf5_hl -lhdf5 -lhdf5_fortran -lz -lscalapack-openmpi -lopenblas -lmetis -lzmumps -lcmumps -ldmumps -lmumps_common -lpord -lsmumps -lesmumps -lscotch -lscotcherr -fopenmp -lelpa
PARALLEL version
NetCDF support
NetCDF-4 support
NetCDF-4 MPI-IO support
METIS ordering support
Lua support

* Running on 4 nodes in parallel
>> Start of run:  22-MAY-2023  16:28:08

                           ***********************       
                           *  WELCOME TO SIESTA  *       
                           ***********************       

reinit: Reading from standard input
reinit: Dumped input in INPUT_TMP.41040
************************** Dump of input data file ****************************
SystemLabel      GC
NumberOfAtoms    29
NumberOfSpecies  4
%block ChemicalSpeciesLabel
    1    8  O
    2    7  N
    3   14  Si
    4    1  H
%endblock ChemicalSpeciesLabel
# Single point calculation
MD.TypeOfRun                CG
MD.Steps                    0
SCF.MustConverge            F # In case it does not. There can be 2 very close atoms
AtomicCoordinatesFormat NotScaledCartesianAng
%block AtomicCoordinatesAndAtomicSpecies
0.854927710    3.902811360    0.000000000       1
-3.151486600   0.823854130    0.000000000       2
1.928518680    1.174000900    0.000000000       2
0.979899500    -1.830275890   0.000000000       2
-2.159258930   -2.028004800   0.000000000       2
3.785319770    -1.112700660   0.000000000       2
-1.345933810   0.976250250    0.000000000       3
-0.599439880   -1.096077170   0.000000000       3
0.453182890    2.350510230    0.000000000       3
2.133302030    -0.576510800   0.000000000       3
-3.516065660   -0.842056510   0.000000000       3
2.824527830    1.754723110    0.000000000       4
-4.877551690   -1.469214660   0.000000000       4
3.994952020    -2.143204000   0.000000000       4
4.620903610    -0.483666060   0.000000000       4
-2.279085180   -3.081514090   0.000000000       4
4.174974042    4.551706244    0.000000000       3
6.043933532    5.811349874    0.000000000       3
5.585001152    1.809968024    0.000000000       3
7.652593872    4.316559244    0.000000000       3
4.234503992    2.866753784    0.000000000       2
2.544974842    5.181766474    0.000000000       2
7.228890022    2.601058434    0.000000000       2
6.324297232    7.281572394    0.000000000       4
9.148005252    4.535411784    0.000000000       4
2.300515852    6.200232424    0.000000000       4
1.718233662    4.524918344    0.000000000       4
5.644276912    0.227525994    0.000000000       1
8.000545612    1.874091074    0.000000000       4
%endblock AtomicCoordinatesAndAtomicSpecies
%include ../../../Defaults.fdf
************************** End of input data file *****************************

reinit: -----------------------------------------------------------------------
reinit: System Name: 
reinit: -----------------------------------------------------------------------
reinit: System Label: GC
reinit: -----------------------------------------------------------------------

initatom: Reading input for the pseudopotentials and atomic orbitals ----------
Species number:   1 Atomic number:    8 Label: O
Species number:   2 Atomic number:    7 Label: N
Species number:   3 Atomic number:   14 Label: Si
Species number:   4 Atomic number:    1 Label: H

Ground state valence configuration:   2s02  2p04
Reading pseudopotential information in formatted form from O.psf

Pseudopotential generated from a relativistic atomic calculation

Valence configuration for pseudopotential generation:
2s( 2.00) rc: 0.45
2p( 4.00) rc: 0.92
3d( 0.00) rc: 2.24
4f( 0.00) rc: 0.25
Ground state valence configuration:   2s02  2p03
Reading pseudopotential information in formatted form from N.psf

Pseudopotential generated from a relativistic atomic calculation

Valence configuration for pseudopotential generation:
2s( 2.00) rc: 0.94
2p( 3.00) rc: 0.59
3d( 0.00) rc: 3.46
4f( 0.00) rc: 2.47
Ground state valence configuration:   3s02  3p02
Reading pseudopotential information in formatted form from Si.psf

Pseudopotential generated from a relativistic atomic calculation

Valence configuration for pseudopotential generation:
3s( 2.00) rc: 1.67
3p( 2.00) rc: 2.04
3d( 0.00) rc: 2.89
4f( 0.00) rc: 2.49
Ground state valence configuration:   1s01
Reading pseudopotential information in formatted form from H.psf

Pseudopotential generated from a relativistic atomic calculation

Valence configuration for pseudopotential generation:
1s( 1.00) rc: 0.01
2p( 0.00) rc: 0.60
3d( 0.00) rc: 1.99
4f( 0.00) rc: 2.49
For O, standard SIESTA heuristics set lmxkb to 3
 (one more than the basis l, including polarization orbitals).
Use PS.lmax or PS.KBprojectors blocks to override.
For N, standard SIESTA heuristics set lmxkb to 3
 (one more than the basis l, including polarization orbitals).
Use PS.lmax or PS.KBprojectors blocks to override.
For Si, standard SIESTA heuristics set lmxkb to 3
 (one more than the basis l, including polarization orbitals).
Use PS.lmax or PS.KBprojectors blocks to override.
For H, standard SIESTA heuristics set lmxkb to 2
 (one more than the basis l, including polarization orbitals).
Use PS.lmax or PS.KBprojectors blocks to override.

<basis_specs>
===============================================================================
O                    Z=   8    Mass=  16.000        Charge= 0.17977+309
Lmxo=1 Lmxkb= 3    BasisType=split      Semic=F
L=0  Nsemic=0  Cnfigmx=2
          i=1  nzeta=2  polorb=0  (2s)
            splnorm:   0.28000    
               vcte:    0.0000    
               rinn:    0.0000    
               qcoe:    0.0000    
               qyuk:    0.0000    
               qwid:   0.10000E-01
                rcs:    0.0000      0.0000    
            lambdas:    1.0000      1.0000    
L=1  Nsemic=0  Cnfigmx=2
          i=1  nzeta=2  polorb=1  (2p)
            splnorm:   0.28000    
               vcte:    0.0000    
               rinn:    0.0000    
               qcoe:    0.0000    
               qyuk:    0.0000    
               qwid:   0.10000E-01
                rcs:    0.0000      0.0000    
            lambdas:    1.0000      1.0000    
-------------------------------------------------------------------------------
L=0  Nkbl=1  erefs: 0.17977+309
L=1  Nkbl=1  erefs: 0.17977+309
L=2  Nkbl=1  erefs: 0.17977+309
L=3  Nkbl=1  erefs: 0.17977+309
===============================================================================
</basis_specs>

atom: Called for O                     (Z =   8)

read_vps: Pseudopotential generation method:
read_vps: ATM4.2.7  Troullier-Martins                       
Valence charge for ps generation:    6.00000

xc_check: Exchange-correlation functional:
xc_check: GGA Perdew, Burke & Ernzerhof 1996
V l=0 = -2*Zval/r beyond r=  1.1000
V l=1 = -2*Zval/r beyond r=  1.1000
V l=2 = -2*Zval/r beyond r=  2.2154
V l=3 = -2*Zval/r beyond r=  1.1000
All V_l potentials equal beyond r=  2.2154
This should be close to max(r_c) in ps generation
All pots = -2*Zval/r beyond r=  2.2154

VLOCAL1: 99.0% of the norm of Vloc inside      8.845 Ry
VLOCAL1: 99.9% of the norm of Vloc inside     20.157 Ry
atom: Maximum radius for 4*pi*r*r*local-pseudopot. charge    2.67231
atom: Maximum radius for r*vlocal+2*Zval:    2.32897
GHOST: No ghost state for L =  0
GHOST: No ghost state for L =  1
GHOST: No ghost state for L =  2
GHOST: No ghost state for L =  3

KBgen: Kleinman-Bylander projectors: 
   l= 0   rc=  2.243238   el= -1.759686   Ekb=**********   kbcos= -0.171774
   l= 1   rc=  2.328968   el= -0.663873   Ekb=-14.506792   kbcos= -0.519897
   l= 2   rc=  2.573941   el=  0.002031   Ekb= -1.137373   kbcos= -0.019581
   l= 3   rc=  2.606321   el=  0.003153   Ekb= -1.013546   kbcos= -0.003122

KBgen: Total number of Kleinman-Bylander projectors:   16
atom: -------------------------------------------------------------------------

atom: SANKEY-TYPE ORBITALS:
atom: Selected multiple-zeta basis: split     

SPLIT: Orbitals with angular momentum L= 0

SPLIT: Basis orbitals for state 2s

SPLIT: PAO cut-off radius determined from an
SPLIT: energy shift=  0.002000 Ry

   izeta = 1
                 lambda =    1.000000
                     rc =    4.243912
                 energy =   -1.758270
                kinetic =    3.286084
    potential(screened) =   -5.044353
       potential(ionic) =  -12.921184

   izeta = 2
                 rmatch =    2.187845
              splitnorm =    0.280000
                 energy =   -0.885018
                kinetic =    8.134434
    potential(screened) =   -9.019452
       potential(ionic) =  -17.710645

SPLIT: Orbitals with angular momentum L= 1

SPLIT: Basis orbitals for state 2p

SPLIT: PAO cut-off radius determined from an
SPLIT: energy shift=  0.002000 Ry

   izeta = 1
                 lambda =    1.000000
                     rc =    5.314825
                 energy =   -0.661986
                kinetic =    4.917472
    potential(screened) =   -5.579458
       potential(ionic) =  -13.236259

   izeta = 2
                 rmatch =    2.160663
              splitnorm =    0.280000
                 energy =   -0.068760
                kinetic =    9.183374
    potential(screened) =   -9.252135
       potential(ionic) =  -18.274251

POLgen: Perturbative polarization orbital with L=  2

POLgen: Polarization orbital for state 2p

   izeta = 1
                     rc =    5.314825
                 energy =    1.970580
                kinetic =    3.886128
    potential(screened) =   -1.915547
       potential(ionic) =   -7.749584
atom: Total number of Sankey-type orbitals: 13

atm_pop: Valence configuration (for local Pseudopot. screening):
 2s( 2.00)                                                            
 2p( 4.00)                                                            
Vna: chval, zval:    6.00000   6.00000

Vna:  Cut-off radius for the neutral-atom potential:   5.314825

atom: _________________________________________________________________________

<basis_specs>
===============================================================================
N                    Z=   7    Mass=  14.010        Charge= 0.17977+309
Lmxo=1 Lmxkb= 3    BasisType=split      Semic=F
L=0  Nsemic=0  Cnfigmx=2
          i=1  nzeta=2  polorb=0  (2s)
            splnorm:   0.28000    
               vcte:    0.0000    
               rinn:    0.0000    
               qcoe:    0.0000    
               qyuk:    0.0000    
               qwid:   0.10000E-01
                rcs:    0.0000      0.0000    
            lambdas:    1.0000      1.0000    
L=1  Nsemic=0  Cnfigmx=2
          i=1  nzeta=2  polorb=1  (2p)
            splnorm:   0.28000    
               vcte:    0.0000    
               rinn:    0.0000    
               qcoe:    0.0000    
               qyuk:    0.0000    
               qwid:   0.10000E-01
                rcs:    0.0000      0.0000    
            lambdas:    1.0000      1.0000    
-------------------------------------------------------------------------------
L=0  Nkbl=1  erefs: 0.17977+309
L=1  Nkbl=1  erefs: 0.17977+309
L=2  Nkbl=1  erefs: 0.17977+309
L=3  Nkbl=1  erefs: 0.17977+309
===============================================================================
</basis_specs>

atom: Called for N                     (Z =   7)

read_vps: Pseudopotential generation method:
read_vps: ATM4.2.7  Troullier-Martins                       
Valence charge for ps generation:    5.00000

xc_check: Exchange-correlation functional:
xc_check: GGA Perdew, Burke & Ernzerhof 1996
V l=0 = -2*Zval/r beyond r=  1.2889
V l=1 = -2*Zval/r beyond r=  1.2889
V l=2 = -2*Zval/r beyond r=  3.4178
V l=3 = -2*Zval/r beyond r=  2.4084
All V_l potentials equal beyond r=  3.3753
This should be close to max(r_c) in ps generation
All pots = -2*Zval/r beyond r=  3.4178

VLOCAL1: 99.0% of the norm of Vloc inside      3.810 Ry
VLOCAL1: 99.9% of the norm of Vloc inside      8.683 Ry
atom: Maximum radius for 4*pi*r*r*local-pseudopot. charge    4.02088
atom: Maximum radius for r*vlocal+2*Zval:    3.54838
GHOST: No ghost state for L =  0
GHOST: No ghost state for L =  1
GHOST: No ghost state for L =  2
GHOST: No ghost state for L =  3

KBgen: Kleinman-Bylander projectors: 
   l= 0   rc=  3.417763   el= -1.365098   Ekb= -4.433130   kbcos= -0.707855
   l= 1   rc=  3.375302   el= -0.521201   Ekb=-13.264039   kbcos= -0.535594
   l= 2   rc=  3.872880   el=  0.001991   Ekb= -0.641094   kbcos= -0.062456
   l= 3   rc=  3.970931   el=  0.003093   Ekb= -0.474517   kbcos= -0.018236

KBgen: Total number of Kleinman-Bylander projectors:   16
atom: -------------------------------------------------------------------------

atom: SANKEY-TYPE ORBITALS:
atom: Selected multiple-zeta basis: split     

SPLIT: Orbitals with angular momentum L= 0

SPLIT: Basis orbitals for state 2s

SPLIT: PAO cut-off radius determined from an
SPLIT: energy shift=  0.002000 Ry

   izeta = 1
                 lambda =    1.000000
                     rc =    4.730425
                 energy =   -1.363399
                kinetic =    1.245246
    potential(screened) =   -2.608645
       potential(ionic) =   -8.121105

   izeta = 2
                 rmatch =    2.531849
              splitnorm =    0.280000
                 energy =   -0.959908
                kinetic =    2.409435
    potential(screened) =   -3.369343
       potential(ionic) =   -9.427975

SPLIT: Orbitals with angular momentum L= 1

SPLIT: Basis orbitals for state 2p

SPLIT: PAO cut-off radius determined from an
SPLIT: energy shift=  0.002000 Ry

   izeta = 1
                 lambda =    1.000000
                     rc =    5.924108
                 energy =   -0.519262
                kinetic =    3.672940
    potential(screened) =   -4.192202
       potential(ionic) =   -9.518354

   izeta = 2
                 rmatch =    2.531849
              splitnorm =    0.280000
                 energy =   -0.104258
                kinetic =    6.807538
    potential(screened) =   -6.911796
       potential(ionic) =  -13.149920

POLgen: Perturbative polarization orbital with L=  2

POLgen: Polarization orbital for state 2p

   izeta = 1
                     rc =    5.924108
                 energy =    1.427508
                kinetic =    2.872379
    potential(screened) =   -1.444871
       potential(ionic) =   -5.563644
atom: Total number of Sankey-type orbitals: 13

atm_pop: Valence configuration (for local Pseudopot. screening):
 2s( 2.00)                                                            
 2p( 3.00)                                                            
Vna: chval, zval:    5.00000   5.00000

Vna:  Cut-off radius for the neutral-atom potential:   5.924108

atom: _________________________________________________________________________

<basis_specs>
===============================================================================
Si                   Z=  14    Mass=  28.090        Charge= 0.17977+309
Lmxo=1 Lmxkb= 3    BasisType=split      Semic=F
L=0  Nsemic=0  Cnfigmx=3
          i=1  nzeta=2  polorb=0  (3s)
            splnorm:   0.28000    
               vcte:    0.0000    
               rinn:    0.0000    
               qcoe:    0.0000    
               qyuk:    0.0000    
               qwid:   0.10000E-01
                rcs:    0.0000      0.0000    
            lambdas:    1.0000      1.0000    
L=1  Nsemic=0  Cnfigmx=3
          i=1  nzeta=2  polorb=1  (3p)
            splnorm:   0.28000    
               vcte:    0.0000    
               rinn:    0.0000    
               qcoe:    0.0000    
               qyuk:    0.0000    
               qwid:   0.10000E-01
                rcs:    0.0000      0.0000    
            lambdas:    1.0000      1.0000    
-------------------------------------------------------------------------------
L=0  Nkbl=1  erefs: 0.17977+309
L=1  Nkbl=1  erefs: 0.17977+309
L=2  Nkbl=1  erefs: 0.17977+309
L=3  Nkbl=1  erefs: 0.17977+309
===============================================================================
</basis_specs>

atom: Called for Si                    (Z =  14)

read_vps: Pseudopotential generation method:
read_vps: ATM4.2.7  Troullier-Martins                       
Valence charge for ps generation:    4.00000

xc_check: Exchange-correlation functional:
xc_check: GGA Perdew, Burke & Ernzerhof 1996
V l=0 = -2*Zval/r beyond r=  2.7826
V l=1 = -2*Zval/r beyond r=  2.7826
V l=2 = -2*Zval/r beyond r=  2.9253
V l=3 = -2*Zval/r beyond r=  2.7826
All V_l potentials equal beyond r=  2.8530
This should be close to max(r_c) in ps generation
All pots = -2*Zval/r beyond r=  2.9253

VLOCAL1: 99.0% of the norm of Vloc inside      5.333 Ry
VLOCAL1: 99.9% of the norm of Vloc inside     12.154 Ry
atom: Maximum radius for 4*pi*r*r*local-pseudopot. charge    3.39869
atom: Maximum radius for r*vlocal+2*Zval:    2.96205
GHOST: No ghost state for L =  0
GHOST: No ghost state for L =  1
GHOST: No ghost state for L =  2
GHOST: No ghost state for L =  3

KBgen: Kleinman-Bylander projectors: 
   l= 0   rc=  3.075247   el= -0.794092   Ekb=  5.879390   kbcos=  0.167461
   l= 1   rc=  3.153101   el= -0.300068   Ekb=  2.642817   kbcos=  0.058301
   l= 2   rc=  3.273594   el=  0.001958   Ekb= -1.185135   kbcos= -0.104411
   l= 3   rc=  3.232927   el=  0.003046   Ekb= -0.497174   kbcos= -0.015889

KBgen: Total number of Kleinman-Bylander projectors:   16
atom: -------------------------------------------------------------------------

atom: SANKEY-TYPE ORBITALS:
atom: Selected multiple-zeta basis: split     

SPLIT: Orbitals with angular momentum L= 0

SPLIT: Basis orbitals for state 3s

SPLIT: PAO cut-off radius determined from an
SPLIT: energy shift=  0.002000 Ry

   izeta = 1
                 lambda =    1.000000
                     rc =    6.429618
                 energy =   -0.792283
                kinetic =    0.525293
    potential(screened) =   -1.317576
       potential(ionic) =   -3.744923

   izeta = 2
                 rmatch =    3.998416
              splitnorm =    0.280000
                 energy =   -0.583081
                kinetic =    1.069570
    potential(screened) =   -1.652651
       potential(ionic) =   -4.235185

SPLIT: Orbitals with angular momentum L= 1

SPLIT: Basis orbitals for state 3p

SPLIT: PAO cut-off radius determined from an
SPLIT: energy shift=  0.002000 Ry

   izeta = 1
                 lambda =    1.000000
                     rc =    8.464845
                 energy =   -0.298236
                kinetic =    0.785360
    potential(screened) =   -1.083596
       potential(ionic) =   -3.273779

   izeta = 2
                 rmatch =    4.587816
              splitnorm =    0.280000
                 energy =   -0.131871
                kinetic =    1.403687
    potential(screened) =   -1.535557
       potential(ionic) =   -4.015310

POLgen: Perturbative polarization orbital with L=  2

POLgen: Polarization orbital for state 3p

   izeta = 1
                     rc =    8.464845
                 energy =    0.321949
                kinetic =    1.055677
    potential(screened) =   -0.733728
       potential(ionic) =   -2.672950
atom: Total number of Sankey-type orbitals: 13

atm_pop: Valence configuration (for local Pseudopot. screening):
 3s( 2.00)                                                            
 3p( 2.00)                                                            
Vna: chval, zval:    4.00000   4.00000

Vna:  Cut-off radius for the neutral-atom potential:   8.464845

atom: _________________________________________________________________________

<basis_specs>
===============================================================================
H                    Z=   1    Mass=  1.0100        Charge= 0.17977+309
Lmxo=0 Lmxkb= 2    BasisType=split      Semic=F
L=0  Nsemic=0  Cnfigmx=1
          i=1  nzeta=2  polorb=1  (1s)
            splnorm:   0.62000    
               vcte:    0.0000    
               rinn:    0.0000    
               qcoe:    0.0000    
               qyuk:    0.0000    
               qwid:   0.10000E-01
                rcs:    0.0000      0.0000    
            lambdas:    1.0000      1.0000    
-------------------------------------------------------------------------------
L=0  Nkbl=1  erefs: 0.17977+309
L=1  Nkbl=1  erefs: 0.17977+309
L=2  Nkbl=1  erefs: 0.17977+309
===============================================================================
</basis_specs>

atom: Called for H                     (Z =   1)

read_vps: Pseudopotential generation method:
read_vps: ATM4.2.7  Troullier-Martins                       
Valence charge for ps generation:    1.00000

xc_check: Exchange-correlation functional:
xc_check: GGA Perdew, Burke & Ernzerhof 1996
V l=0 = -2*Zval/r beyond r=  0.0098
V l=1 = -2*Zval/r beyond r=  0.5817
V l=2 = -2*Zval/r beyond r=  1.9372
All V_l potentials equal beyond r=  1.9372
This should be close to max(r_c) in ps generation
All pots = -2*Zval/r beyond r=  1.9372

VLOCAL1: 99.0% of the norm of Vloc inside     11.567 Ry
VLOCAL1: 99.9% of the norm of Vloc inside     26.362 Ry
atom: Maximum radius for 4*pi*r*r*local-pseudopot. charge    2.25106
atom: Maximum radius for r*vlocal+2*Zval:    1.91306
GHOST: No ghost state for L =  0
GHOST: No ghost state for L =  1
GHOST: No ghost state for L =  2

KBgen: Kleinman-Bylander projectors: 
   l= 0   rc=  2.036604   el= -0.477180   Ekb= -6.081590   kbcos= -0.277285
   l= 1   rc=  2.195416   el=  0.001076   Ekb= -0.926943   kbcos= -0.034643
   l= 2   rc=  2.251056   el=  0.002010   Ekb= -0.130941   kbcos= -0.009788

KBgen: Total number of Kleinman-Bylander projectors:    9
atom: -------------------------------------------------------------------------

atom: SANKEY-TYPE ORBITALS:
atom: Selected multiple-zeta basis: split     

SPLIT: Orbitals with angular momentum L= 0

SPLIT: Basis orbitals for state 1s

SPLIT: PAO cut-off radius determined from an
SPLIT: energy shift=  0.002000 Ry

   izeta = 1
                 lambda =    1.000000
                     rc =    6.518340
                 energy =   -0.475305
                kinetic =    0.912139
    potential(screened) =   -1.387444
       potential(ionic) =   -1.907295

   izeta = 2
                 rmatch =    2.141150
              splitnorm =    0.620000
                 energy =    0.566467
                kinetic =    3.772856
    potential(screened) =   -3.206389
       potential(ionic) =   -3.759093

POLgen: Perturbative polarization orbital with L=  1

POLgen: Polarization orbital for state 1s

   izeta = 1
                     rc =    6.518340
                 energy =    0.533861
                kinetic =    1.121086
    potential(screened) =   -0.587225
       potential(ionic) =   -1.053027
atom: Total number of Sankey-type orbitals:  5

atm_pop: Valence configuration (for local Pseudopot. screening):
 1s( 1.00)                                                            
Vna: chval, zval:    1.00000   1.00000

Vna:  Cut-off radius for the neutral-atom potential:   6.518340

atom: _________________________________________________________________________

prinput: Basis input ----------------------------------------------------------

PAO.BasisType split     

%block ChemicalSpeciesLabel
    1    8 O                       # Species index, atomic number, species label
    2    7 N                       # Species index, atomic number, species label
    3   14 Si                      # Species index, atomic number, species label
    4    1 H                       # Species index, atomic number, species label
%endblock ChemicalSpeciesLabel

%block PAO.Basis                 # Define Basis set
O                     2                    # Species label, number of l-shells
 n=2   0   2                         # n, l, Nzeta 
   4.244      2.188   
   1.000      1.000   
 n=2   1   2 P   1                   # n, l, Nzeta, Polarization, NzetaPol
   5.315      2.161   
   1.000      1.000   
N                     2                    # Species label, number of l-shells
 n=2   0   2                         # n, l, Nzeta 
   4.730      2.532   
   1.000      1.000   
 n=2   1   2 P   1                   # n, l, Nzeta, Polarization, NzetaPol
   5.924      2.532   
   1.000      1.000   
Si                    2                    # Species label, number of l-shells
 n=3   0   2                         # n, l, Nzeta 
   6.430      3.998   
   1.000      1.000   
 n=3   1   2 P   1                   # n, l, Nzeta, Polarization, NzetaPol
   8.465      4.588   
   1.000      1.000   
H                     1                    # Species label, number of l-shells
 n=1   0   2 P   1                   # n, l, Nzeta, Polarization, NzetaPol
   6.518      2.141   
   1.000      1.000   
%endblock PAO.Basis

prinput: ----------------------------------------------------------------------

Dumping basis to NetCDF file O.ion.nc
Dumping basis to NetCDF file N.ion.nc
Dumping basis to NetCDF file Si.ion.nc
Dumping basis to NetCDF file H.ion.nc
coor:   Atomic-coordinates input format  =     Cartesian coordinates
coor:                                          (in Angstroms)

siesta: Atomic coordinates (Bohr) and species
siesta:      1.61558   7.37525   0.00000  1        1
siesta:     -5.95545   1.55686   0.00000  2        2
siesta:      3.64437   2.21854   0.00000  2        3
siesta:      1.85174  -3.45872   0.00000  2        4
siesta:     -4.08041  -3.83238   0.00000  2        5
siesta:      7.15322  -2.10270   0.00000  2        6
siesta:     -2.54345   1.84485   0.00000  3        7
siesta:     -1.13278  -2.07129   0.00000  3        8
siesta:      0.85639   4.44182   0.00000  3        9
siesta:      4.03136  -1.08945   0.00000  3       10
siesta:     -6.64440  -1.59126   0.00000  3       11
siesta:      5.33759   3.31595   0.00000  4       12
siesta:     -9.21724  -2.77641   0.00000  4       13
siesta:      7.54937  -4.05007   0.00000  4       14
siesta:      8.73225  -0.91400   0.00000  4       15
siesta:     -4.30685  -5.82322   0.00000  4       16
siesta:      7.88956   8.60148   0.00000  3       17
siesta:     11.42138  10.98186   0.00000  3       18
siesta:     10.55413   3.42035   0.00000  3       19
siesta:     14.46131   8.15712   0.00000  3       20
siesta:      8.00206   5.41738   0.00000  2       21
siesta:      4.80931   9.79212   0.00000  2       22
siesta:     13.66063   4.91529   0.00000  2       23
siesta:     11.95119  13.76018   0.00000  4       24
siesta:     17.28723   8.57069   0.00000  4       25
siesta:      4.34735  11.71675   0.00000  4       26
siesta:      3.24699   8.55086   0.00000  4       27
siesta:     10.66614   0.42996   0.00000  1       28
siesta:     15.11885   3.54152   0.00000  4       29

siesta: Automatic unit cell vectors (Ang):
siesta:   23.016695    0.000000    0.000000
siesta:    0.000000   18.987978    0.000000
siesta:    0.000000    0.000000    9.854683

siesta: System type = molecule  

initatomlists: Number of atoms, orbitals, and projectors:     29   297   394

siesta: ******************** Simulation parameters ****************************
siesta:
siesta: The following are some of the parameters of the simulation.
siesta: A complete list of the parameters used, including default values,
siesta: can be found in file out.fdf
siesta:
redata: Spin configuration                          = spin-orbit
redata: Number of spin components                   = 8
redata: Time-Reversal Symmetry                      = F
redata: Spin spiral                                 = F
############################################################
This spin-orbit implementation uses a local approximation.
From 4.2 and onwards the full non-local approximation is implemented
You are strongly advised to use >=4.2 versions!
############################################################
redata: Long output                                 =   F
redata: Number of Atomic Species                    =        4
redata: Charge density info will appear in .RHO file
redata: Write Mulliken Pop.                         = Atomic and Orbital charges
redata: Matel table size (NRTAB)                    =     1024
redata: Mesh Cutoff                                 =   340.0000 Ry
redata: Net charge of the system                    =     0.0000 |e|
redata: Min. number of SCF Iter                     =        1
redata: Max. number of SCF Iter                     =      200
redata: SCF mix quantity                            = Hamiltonian
redata: Mix DM or H after convergence               =   F
redata: Recompute H after scf cycle                 =   F
redata: Mix DM in first SCF step                    =   T
redata: Write Pulay info on disk                    =   F
redata: New DM Occupancy tolerance                  = 0.000000000001
redata: No kicks to SCF
redata: DM Mixing Weight for Kicks                  =     0.5000
redata: Require Harris convergence for SCF          =   F
redata: Harris energy tolerance for SCF             =     0.000100 eV
redata: Require DM convergence for SCF              =   T
redata: DM tolerance for SCF                        =     0.000008
redata: Require EDM convergence for SCF             =   F
redata: EDM tolerance for SCF                       =     0.001000 eV
redata: Require H convergence for SCF               =   T
redata: Hamiltonian tolerance for SCF               =     0.000001 eV
redata: Require (free) Energy convergence for SCF   =   F
redata: (free) Energy tolerance for SCF             =     0.000100 eV
redata: Using Saved Data (generic)                  =   F
redata: Use continuation files for DM               =   F
redata: Neglect nonoverlap interactions             =   F
redata: Method of Calculation                       = Diagonalization
redata: Electronic Temperature                      =   299.9978 K
redata: Fix the spin of the system                  =   F
redata: Dynamics option                             = Single-point calculation
mix.SCF: Pulay mixing                            = Pulay
mix.SCF:    Variant                              = stable
mix.SCF:    History steps                        = 6
mix.SCF:    Linear mixing weight                 =     0.250000
mix.SCF:    Mixing weight                        =     0.250000
mix.SCF:    SVD condition                        = 0.1000E-07
mix.SCF:    Restart steps                        = 24
mix.SCF:    Restart save steps                   = 3
mix.SCF: Spin-component mixing                   all
redata: Save all siesta data in one NC              =   F
redata: ***********************************************************************

%block SCF.Mixers
  Pulay
%endblock SCF.Mixers

%block SCF.Mixer.Pulay
  # Mixing method
  method pulay
  variant stable

  # Mixing options
  weight 0.2500
  weight.linear 0.2500
  history 6
  restart 24
  restart.save 3
%endblock SCF.Mixer.Pulay

DM_history_depth set to one: no extrapolation allowed by default for geometry relaxation
Size of DM history Fstack: 1
Total number of electrons:    98.000000
Total ionic charge:    98.000000

* ProcessorY, Blocksize:    2  24


* Orbital distribution balance (max,min):    81    72


Time-reversal symmetry not used.

siesta: k-grid: Number of k-points =     1
siesta: k-grid: Cutoff (effective) =     4.927 Ang
siesta: k-grid: Supercell and displacements
siesta: k-grid:    1   0   0      0.000
siesta: k-grid:    0   1   0      0.000
siesta: k-grid:    0   0   1      0.000

diag: Algorithm                                     = ELPA-1stage
diag: Parallel over k                               =   F
diag: Use parallel 2D distribution                  =   T
diag: Parallel block-size                           = 24
diag: Parallel distribution                         =     2 x     2
diag: Used triangular part                          = Lower
diag: Absolute tolerance                            =  0.100E-15
diag: Orthogonalization factor                      =  0.100E-05
diag: Memory factor                                 =  1.0000


ts: **************************************************************
ts: Save H and S matrices                           =    F
ts: Save DM and EDM matrices                        =    F
ts: Only save the overlap matrix S                  =    F
ts: **************************************************************

************************ Begin: TS CHECKS AND WARNINGS ************************
************************ End: TS CHECKS AND WARNINGS **************************


                     ====================================
                        Single-point calculation
                     ====================================

outcoor: Atomic coordinates (Ang):                          
    0.85492771    3.90281136    0.00000000   1       1  O
   -3.15148660    0.82385413    0.00000000   2       2  N
    1.92851868    1.17400090    0.00000000   2       3  N
    0.97989950   -1.83027589    0.00000000   2       4  N
   -2.15925893   -2.02800480    0.00000000   2       5  N
    3.78531977   -1.11270066    0.00000000   2       6  N
   -1.34593381    0.97625025    0.00000000   3       7  Si
   -0.59943988   -1.09607717    0.00000000   3       8  Si
    0.45318289    2.35051023    0.00000000   3       9  Si
    2.13330203   -0.57651080    0.00000000   3      10  Si
   -3.51606566   -0.84205651    0.00000000   3      11  Si
    2.82452783    1.75472311    0.00000000   4      12  H
   -4.87755169   -1.46921466    0.00000000   4      13  H
    3.99495202   -2.14320400    0.00000000   4      14  H
    4.62090361   -0.48366606    0.00000000   4      15  H
   -2.27908518   -3.08151409    0.00000000   4      16  H
    4.17497404    4.55170624    0.00000000   3      17  Si
    6.04393353    5.81134987    0.00000000   3      18  Si
    5.58500115    1.80996802    0.00000000   3      19  Si
    7.65259387    4.31655924    0.00000000   3      20  Si
    4.23450399    2.86675378    0.00000000   2      21  N
    2.54497484    5.18176647    0.00000000   2      22  N
    7.22889002    2.60105843    0.00000000   2      23  N
    6.32429723    7.28157239    0.00000000   4      24  H
    9.14800525    4.53541178    0.00000000   4      25  H
    2.30051585    6.20023242    0.00000000   4      26  H
    1.71823366    4.52491834    0.00000000   4      27  H
    5.64427691    0.22752599    0.00000000   1      28  O
    8.00054561    1.87409107    0.00000000   4      29  H

outcell: Unit cell vectors (Ang):
       23.016695    0.000000    0.000000
        0.000000   18.987978    0.000000
        0.000000    0.000000    9.854683

outcell: Cell vector modules (Ang)   :   23.016695   18.987978    9.854683
outcell: Cell angles (23,13,12) (deg):     90.0000     90.0000     90.0000
outcell: Cell volume (Ang**3)        :   4306.8958
<dSpData1D:S at geom step 0
  <sparsity:sparsity for geom step 0
    nrows_g=297 nrows=81 sparsity=.2419 nnzs=21342, refcount: 8>
  <dData1D:(new from dSpData1D) n=21342, refcount: 1>
refcount: 1>
new_DM -- step:     1
Initializing Density Matrix...
DM filled with atomic data:
<dSpData2D:DM initialized from atoms
  <sparsity:sparsity for geom step 0
    nrows_g=297 nrows=81 sparsity=.2419 nnzs=21342, refcount: 9>
  <dData2D:DM n=21342 m=8, refcount: 1>
refcount: 1>
     spin moment: S , {S} =   56.00000   0.00000   0.00000  56.00000
No. of atoms with KB's overlaping orbs in proc 0. Max # of overlaps:      29     223

Initializing spin-orbit part of the Hamiltonian
  Adding spin-orbit effects for O 
  Adding spin-orbit effects for N 
  Adding spin-orbit effects for Si
  Adding spin-orbit effects for H 


New grid distribution:   1
           1       1:  128    1:   54    1:   30
           2       1:  128    1:   54   31:   60
           3       1:  128   55:  108    1:   30
           4       1:  128   55:  108   31:   60

InitMesh: MESH =   256 x   216 x   120 =     6635520
InitMesh: (bp) =   128 x   108 x    60 =      829440
InitMesh: Mesh cutoff (required, used) =   340.000   341.897 Ry
ExtMesh (bp) on 0 =   228 x   158 x   142 =     5115408
New grid distribution:   2
           1      29:  128    1:   24    1:   60
           2       1:   28    1:   21    1:   60
           3      29:  128   25:  108    1:   60
           4       1:   28   22:  108    1:   60
New grid distribution:   3
           1      42:  128    1:   33    1:   60
           2       1:   41    1:   37    1:   60
           3      42:  128   34:  108    1:   60
           4       1:   41   38:  108    1:   60
Setting up quadratic distribution...
ExtMesh (bp) on 0 =   200 x   128 x   172 =     4403200
PhiOnMesh: Number of (b)points on node 0 =               144000
PhiOnMesh: nlist on node 0 =              2524251

stepf: Fermi-Dirac step function

siesta: Program's energy decomposition (eV):
siesta: Ebs     =      -589.460877
siesta: Eions   =      3585.165840
siesta: Ena     =       387.709230
siesta: Ekin    =      3396.285731
siesta: Enl     =     -3327.594427
siesta: Eso     =        -0.003448
siesta: Edftu   =         0.000000
siesta: DEna    =       158.073897
siesta: DUscf   =        81.820805
siesta: DUext   =         0.000000
siesta: Exc     =     -1210.619355
siesta: eta*DQ  =         0.000000
siesta: Emadel  =         0.000000
siesta: Emeta   =         0.000000
siesta: Emolmec =         0.000000
siesta: Ekinion =         0.000000
siesta: Eharris =     -4010.285929
siesta: Etot    =     -4099.493407
siesta: FreeEng =     -4099.495050

        iscf     Eharris(eV)        E_KS(eV)     FreeEng(eV)     dDmax    Ef(eV) dHmax(eV)
   scf:    1    -4010.285929    -4099.493407    -4099.495050  0.961764 -4.896446 22.042814
     spin moment: S , {S} =    2.00836  -0.00000   0.00000   2.00836
timer: Routine,Calls,Time,% = IterSCF        1      11.745  15.68
   scf:    2    -4149.983282    -4136.501110    -4136.506204  0.478048 -4.170664 10.799893
     spin moment: S , {S} =    1.96831  -0.00000  -0.00000   1.96831
   scf:    3    -4113.618547    -4134.328816    -4134.364562  0.439213 -4.222577 10.365437
     spin moment: S , {S} =    2.00373  -0.00000   0.00000   2.00373
   scf:    4    -4148.110910    -4143.784228    -4143.784244  0.252945 -3.880786  5.805505
     spin moment: S , {S} =    0.00016  -0.00000   0.00000   0.00016
   scf:    5    -4145.039152    -4144.536708    -4144.536708  0.042465 -3.696844  4.575006
     spin moment: S , {S} =    0.00007   0.00000  -0.00000   0.00007
   scf:    6    -4145.447255    -4145.000565    -4145.000565  0.030129 -3.544299  2.171062
     spin moment: S , {S} =    0.00003  -0.00000   0.00000   0.00003
   scf:    7    -4145.359124    -4145.185189    -4145.185189  0.019854 -3.769397  0.812768
     spin moment: S , {S} =    0.00001   0.00000  -0.00000   0.00001
   scf:    8    -4145.328843    -4145.254291    -4145.254291  0.014086 -3.706859  0.359824
     spin moment: S , {S} =    0.00000  -0.00000  -0.00000   0.00000
   scf:    9    -4145.290539    -4145.271907    -4145.271907  0.007185 -3.789216  0.230876
     spin moment: S , {S} =    0.00000  -0.00000  -0.00000   0.00000
   scf:   10    -4145.303048    -4145.286232    -4145.286232  0.010121 -3.775396  0.122091
     spin moment: S , {S} =    0.00000  -0.00000  -0.00000  -0.00000
   scf:   11    -4145.294783    -4145.290163    -4145.290163  0.006373 -3.775835  0.062344
     spin moment: S , {S} =    0.00000  -0.00000  -0.00000   0.00000
   scf:   12    -4145.292724    -4145.291370    -4145.291370  0.003374 -3.773234  0.042013
     spin moment: S , {S} =    0.00000  -0.00000  -0.00000   0.00000
   scf:   13    -4145.293496    -4145.292321    -4145.292321  0.004019 -3.769279  0.031503
     spin moment: S , {S} =    0.00000   0.00000  -0.00000   0.00000
   scf:   14    -4145.293545    -4145.292818    -4145.292818  0.004330 -3.766560  0.015091
     spin moment: S , {S} =    0.00000   0.00000   0.00000   0.00000
   scf:   15    -4145.293017    -4145.292901    -4145.292901  0.001827 -3.766450  0.009010
     spin moment: S , {S} =    0.00000   0.00000   0.00000   0.00000
   scf:   16    -4145.292964    -4145.292928    -4145.292928  0.001024 -3.766955  0.006165
     spin moment: S , {S} =    0.00000   0.00000   0.00000   0.00000
   scf:   17    -4145.292957    -4145.292941    -4145.292941  0.000700 -3.767071  0.003493
     spin moment: S , {S} =    0.00000   0.00000   0.00000  -0.00000
   scf:   18    -4145.292954    -4145.292946    -4145.292946  0.000504 -3.767125  0.001509
     spin moment: S , {S} =    0.00000   0.00000   0.00000  -0.00000
   scf:   19    -4145.292949    -4145.292947    -4145.292947  0.000249 -3.767055  0.000766
     spin moment: S , {S} =    0.00000   0.00000   0.00000  -0.00000
   scf:   20    -4145.292948    -4145.292948    -4145.292948  0.000113 -3.766977  0.000412
     spin moment: S , {S} =    0.00000   0.00000   0.00000  -0.00000
   scf:   21    -4145.292948    -4145.292948    -4145.292948  0.000074 -3.766916  0.000259
     spin moment: S , {S} =    0.00000   0.00000   0.00000  -0.00000
   scf:   22    -4145.292948    -4145.292948    -4145.292948  0.000019 -3.766902  0.000155
     spin moment: S , {S} =    0.00000  -0.00000   0.00000  -0.00000
   scf:   23    -4145.292948    -4145.292948    -4145.292948  0.000007 -3.766902  0.000106
     spin moment: S , {S} =    0.00000   0.00000   0.00000  -0.00000
   scf:   24    -4145.292948    -4145.292948    -4145.292948  0.000010 -3.766904  0.000065
     spin moment: S , {S} =    0.00000   0.00000   0.00000  -0.00000
mix: Pulay -- resetting history
   scf:   25    -4145.292948    -4145.292948    -4145.292948  0.000005 -3.766907  0.000039
     spin moment: S , {S} =    0.00000   0.00000   0.00000  -0.00000
   scf:   26    -4145.292948    -4145.292948    -4145.292948  0.000003 -3.766907  0.000024
     spin moment: S , {S} =    0.00000   0.00000   0.00000  -0.00000
   scf:   27    -4145.292948    -4145.292948    -4145.292948  0.000003 -3.766906  0.000015
     spin moment: S , {S} =    0.00000   0.00000   0.00000  -0.00000
   scf:   28    -4145.292948    -4145.292948    -4145.292948  0.000001 -3.766905  0.000009
     spin moment: S , {S} =    0.00000   0.00000   0.00000  -0.00000
   scf:   29    -4145.292948    -4145.292948    -4145.292948  0.000001 -3.766906  0.000007
     spin moment: S , {S} =    0.00000   0.00000   0.00000  -0.00000
   scf:   30    -4145.292948    -4145.292948    -4145.292948  0.000001 -3.766906  0.000003
     spin moment: S , {S} =    0.00000   0.00000   0.00000  -0.00000
   scf:   31    -4145.292948    -4145.292948    -4145.292948  0.000000 -3.766906  0.000001
     spin moment: S , {S} =    0.00000   0.00000   0.00000  -0.00000
   scf:   32    -4145.292948    -4145.292948    -4145.292948  0.000000 -3.766906  0.000001
     spin moment: S , {S} =    0.00000   0.00000   0.00000  -0.00000

SCF Convergence by DM+H criterion
max |DM_out - DM_in|         :     0.0000002143
max |H_out - H_in|      (eV) :     0.0000009776
SCF cycle converged after 32 iterations

Using DM_out to compute the final energy and forces
No. of atoms with KB's overlaping orbs in proc 0. Max # of overlaps:      29     223

siesta: E_KS(eV) =            -4145.2929

siesta: E_KS - E_eggbox =     -4145.2929
     spin moment: S , {S} =    0.00000   0.00000   0.00000  -0.00000

siesta: Atomic forces (eV/Ang):
     1   -6.561109   -6.712220    0.000000
     2   -0.065468   -0.011814   -0.000000
     3   -1.537900    0.222902    0.000000
     4   -1.150885   -0.084463   -0.000000
     5   -0.114953    0.043165    0.000000
     6   -4.263023   -2.259650   -0.000000
     7   -0.084728    0.396119    0.000000
     8    0.625542   -0.406076   -0.000000
     9    0.061722   -2.240307    0.000000
    10    1.443819   -0.499952    0.000000
    11    0.007649    0.050473    0.000000
    12    0.464261    0.370422   -0.000000
    13    0.053868    0.057158   -0.000000
    14   -0.348487   -0.152027   -0.000000
    15    0.787259    0.533866   -0.000000
    16    0.132712    0.167739    0.000000
    17   -1.474877    1.886486   -0.000000
    18    0.357660   -0.340644    0.000000
    19    0.607999    1.897554   -0.000000
    20    0.039994    0.664131    0.000000
    21    0.791249   -1.351803    0.000000
    22    7.257117    4.222112   -0.000000
    23   -0.412066   -0.790926   -0.000000
    24   -0.108000    0.099200   -0.000000
    25   -0.028195   -0.094535   -0.000000
    26    0.367500    0.444374    0.000000
    27    0.284184   -0.136590   -0.000000
    28    7.317589    2.786870    0.000000
    29    0.096767   -0.006470   -0.000000
----------------------------------------
   Tot    4.547198   -1.244904    0.000000
----------------------------------------
   Max    7.317589
   Res    1.763617    sqrt( Sum f_i^2 / 3N )
----------------------------------------
   Max    7.317589    constrained

Stress tensor Voigt[x,y,z,yz,xz,xy] (kbar):       -6.34       -4.72       -0.07       -0.00        0.00       -6.42
(Free)E + p*V (eV/cell)    -4135.3238
Target enthalpy (eV/cell)    -4145.2929

mulliken: Atomic and Orbital Populations:

Species: O                   

Atom      Orb        Charge      Spin       Svec
----------------------------------------------------------------
    1  1 2s         1.62856   0.00000      0.000   0.000  -0.000
    1  2 2s         0.09201   0.00000     -0.000  -0.000  -0.000
    1  3 2py        1.26021   0.00000      0.000   0.000   0.000
    1  4 2pz        1.65772   0.00000      0.000  -0.000  -0.000
    1  5 2px        1.57203   0.00000      0.000   0.000   0.000
    1  6 2py        0.14632   0.00000     -0.000  -0.000  -0.000
    1  7 2pz       -0.01618   0.00000     -0.000   0.000  -0.000
    1  8 2px        0.03556   0.00000     -0.000  -0.000  -0.000
    1  9 3Pdxy      0.01212   0.00000      0.000   0.000   0.000
    1 10 3Pdyz      0.00704   0.00000      0.000  -0.000  -0.000
    1 11 3Pdz2      0.00301   0.00000      0.000   0.000  -0.000
    1 12 3Pdxz      0.00075   0.00000     -0.000  -0.000  -0.000
    1 13 3Pdx2-y2   0.00529   0.00000     -0.000  -0.000   0.000
    1     Total     6.40446   0.00000      0.000   0.000  -0.000

   28  1 2s         1.68859   0.00000     -0.000  -0.000   0.000
   28  2 2s         0.07420   0.00000      0.000   0.000  -0.000
   28  3 2py        1.29109   0.00000     -0.000   0.000   0.000
   28  4 2pz        1.62886   0.00000     -0.000   0.000   0.000
   28  5 2px        1.65090   0.00000     -0.000  -0.000   0.000
   28  6 2py        0.11686   0.00000      0.000  -0.000   0.000
   28  7 2pz       -0.01654   0.00000      0.000   0.000   0.000
   28  8 2px       -0.00054   0.00000      0.000   0.000   0.000
   28  9 3Pdxy      0.01226   0.00000      0.000   0.000  -0.000
   28 10 3Pdyz      0.00858   0.00000      0.000   0.000  -0.000
   28 11 3Pdz2      0.00263   0.00000      0.000   0.000   0.000
   28 12 3Pdxz      0.00063   0.00000      0.000  -0.000   0.000
   28 13 3Pdx2-y2   0.00688   0.00000     -0.000  -0.000   0.000
   28     Total     6.46440   0.00000     -0.000   0.000   0.000

----------------------------------------------------------------
Total              12.86886   0.00000     -0.000   0.000   0.000


Species: N                   

Atom      Orb        Charge      Spin       Svec
----------------------------------------------------------------
    2  1 2s         1.54614   0.00000      0.000   0.000  -0.000
    2  2 2s         0.08536   0.00000      0.000  -0.000   0.000
    2  3 2py        1.03016   0.00000     -0.000   0.000  -0.000
    2  4 2pz        1.22432   0.00000     -0.000  -0.000  -0.000
    2  5 2px        1.01014   0.00000      0.000   0.000  -0.000
    2  6 2py        0.19250   0.00000      0.000  -0.000   0.000
    2  7 2pz        0.05448   0.00000      0.000   0.000   0.000
    2  8 2px        0.19079   0.00000     -0.000  -0.000   0.000
    2  9 3Pdxy      0.00838   0.00000      0.000  -0.000   0.000
    2 10 3Pdyz      0.01075   0.00000      0.000  -0.000   0.000
    2 11 3Pdz2      0.00189   0.00000      0.000   0.000   0.000
    2 12 3Pdxz      0.00742   0.00000      0.000   0.000   0.000
    2 13 3Pdx2-y2   0.00895   0.00000      0.000  -0.000  -0.000
    2     Total     5.37129   0.00000     -0.000   0.000  -0.000

    3  1 2s         1.39131   0.00000      0.000  -0.000   0.000
    3  2 2s         0.11997   0.00000      0.000   0.000  -0.000
    3  3 2py        0.92529   0.00000      0.000  -0.000   0.000
    3  4 2pz        1.52065   0.00000     -0.000   0.000   0.000
    3  5 2px        1.07235   0.00000      0.000   0.000   0.000
    3  6 2py        0.25948   0.00000     -0.000  -0.000  -0.000
    3  7 2pz        0.00763   0.00000      0.000  -0.000  -0.000
    3  8 2px        0.18632   0.00000     -0.000  -0.000  -0.000
    3  9 3Pdxy      0.00502   0.00000      0.000   0.000   0.000
    3 10 3Pdyz      0.00394   0.00000     -0.000  -0.000  -0.000
    3 11 3Pdz2      0.00054   0.00000      0.000  -0.000  -0.000
    3 12 3Pdxz      0.00272   0.00000      0.000  -0.000  -0.000
    3 13 3Pdx2-y2   0.00264   0.00000      0.000   0.000   0.000
    3     Total     5.49785   0.00000      0.000  -0.000   0.000

    4  1 2s         1.47243   0.00000      0.000  -0.000   0.000
    4  2 2s         0.11727   0.00000      0.000   0.000   0.000
    4  3 2py        1.10171   0.00000     -0.000   0.000   0.000
    4  4 2pz        1.27979   0.00000     -0.000  -0.000   0.000
    4  5 2px        0.83950   0.00000     -0.000   0.000   0.000
    4  6 2py        0.15829   0.00000      0.000  -0.000  -0.000
    4  7 2pz        0.05385   0.00000      0.000  -0.000   0.000
    4  8 2px        0.28643   0.00000      0.000  -0.000   0.000
    4  9 3Pdxy      0.00849   0.00000      0.000  -0.000   0.000
    4 10 3Pdyz      0.01079   0.00000      0.000   0.000  -0.000
    4 11 3Pdz2      0.00137   0.00000      0.000  -0.000   0.000
    4 12 3Pdxz      0.00487   0.00000     -0.000  -0.000   0.000
    4 13 3Pdx2-y2   0.00848   0.00000      0.000  -0.000  -0.000
    4     Total     5.34327   0.00000     -0.000  -0.000   0.000

    5  1 2s         1.37257   0.00000     -0.000   0.000  -0.000
    5  2 2s         0.12950   0.00000      0.000  -0.000   0.000
    5  3 2py        1.02692   0.00000     -0.000  -0.000  -0.000
    5  4 2pz        1.50121   0.00000     -0.000  -0.000  -0.000
    5  5 2px        1.05862   0.00000      0.000  -0.000  -0.000
    5  6 2py        0.20337   0.00000      0.000  -0.000   0.000
    5  7 2pz        0.01327   0.00000      0.000   0.000   0.000
    5  8 2px        0.20342   0.00000     -0.000   0.000   0.000
    5  9 3Pdxy      0.00363   0.00000     -0.000   0.000   0.000
    5 10 3Pdyz      0.00255   0.00000     -0.000   0.000   0.000
    5 11 3Pdz2      0.00139   0.00000      0.000   0.000   0.000
    5 12 3Pdxz      0.00636   0.00000      0.000  -0.000   0.000
    5 13 3Pdx2-y2   0.00577   0.00000     -0.000   0.000   0.000
    5     Total     5.52859   0.00000     -0.000   0.000  -0.000

    6  1 2s         1.29025   0.00000     -0.000   0.000  -0.000
    6  2 2s         0.17098   0.00000      0.000  -0.000   0.000
    6  3 2py        1.07004   0.00000      0.000   0.000   0.000
    6  4 2pz        1.47786   0.00000     -0.000  -0.000   0.000
    6  5 2px        0.99489   0.00000     -0.000   0.000   0.000
    6  6 2py        0.19658   0.00000     -0.000  -0.000   0.000
    6  7 2pz        0.03664   0.00000      0.000   0.000   0.000
    6  8 2px        0.25159   0.00000      0.000  -0.000   0.000
    6  9 3Pdxy      0.00405   0.00000     -0.000   0.000   0.000
    6 10 3Pdyz      0.00005   0.00000     -0.000   0.000  -0.000
    6 11 3Pdz2      0.00196   0.00000     -0.000  -0.000  -0.000
    6 12 3Pdxz      0.00398   0.00000     -0.000   0.000  -0.000
    6 13 3Pdx2-y2   0.00373   0.00000     -0.000   0.000  -0.000
    6     Total     5.50260   0.00000     -0.000   0.000   0.000

   21  1 2s         1.40394   0.00000      0.000  -0.000   0.000
   21  2 2s         0.12785   0.00000     -0.000   0.000  -0.000
   21  3 2py        0.89523   0.00000      0.000   0.000   0.000
   21  4 2pz        1.35170   0.00000     -0.000   0.000   0.000
   21  5 2px        1.16659   0.00000     -0.000  -0.000   0.000
   21  6 2py        0.27403   0.00000      0.000  -0.000  -0.000
   21  7 2pz        0.03596   0.00000      0.000  -0.000  -0.000
   21  8 2px        0.15750   0.00000      0.000   0.000  -0.000
   21  9 3Pdxy      0.00838   0.00000      0.000  -0.000  -0.000
   21 10 3Pdyz      0.00452   0.00000      0.000   0.000  -0.000
   21 11 3Pdz2      0.00037   0.00000     -0.000   0.000  -0.000
   21 12 3Pdxz      0.00546   0.00000      0.000  -0.000   0.000
   21 13 3Pdx2-y2   0.00541   0.00000      0.000  -0.000  -0.000
   21     Total     5.43694   0.00000      0.000   0.000   0.000

   22  1 2s         1.32983   0.00000     -0.000   0.000   0.000
   22  2 2s         0.15743   0.00000      0.000  -0.000   0.000
   22  3 2py        1.09232   0.00000     -0.000  -0.000   0.000
   22  4 2pz        1.41709   0.00000      0.000   0.000   0.000
   22  5 2px        1.04860   0.00000      0.000  -0.000   0.000
   22  6 2py        0.18985   0.00000     -0.000   0.000   0.000
   22  7 2pz        0.03663   0.00000     -0.000  -0.000   0.000
   22  8 2px        0.21021   0.00000     -0.000   0.000  -0.000
   22  9 3Pdxy      0.00599   0.00000      0.000  -0.000  -0.000
   22 10 3Pdyz      0.00010   0.00000      0.000  -0.000   0.000
   22 11 3Pdz2      0.00283   0.00000      0.000  -0.000   0.000
   22 12 3Pdxz      0.00461   0.00000     -0.000  -0.000  -0.000
   22 13 3Pdx2-y2   0.00413   0.00000      0.000  -0.000  -0.000
   22     Total     5.49962   0.00000     -0.000   0.000   0.000

   23  1 2s         1.36438   0.00000      0.000   0.000   0.000
   23  2 2s         0.13370   0.00000     -0.000  -0.000  -0.000
   23  3 2py        0.99620   0.00000     -0.000  -0.000  -0.000
   23  4 2pz        1.53679   0.00000     -0.000  -0.000  -0.000
   23  5 2px        1.05320   0.00000     -0.000   0.000  -0.000
   23  6 2py        0.22534   0.00000      0.000   0.000   0.000
   23  7 2pz        0.00466   0.00000     -0.000  -0.000   0.000
   23  8 2px        0.19906   0.00000      0.000  -0.000   0.000
   23  9 3Pdxy      0.00542   0.00000      0.000  -0.000   0.000
   23 10 3Pdyz      0.00469   0.00000      0.000  -0.000   0.000
   23 11 3Pdz2      0.00087   0.00000     -0.000   0.000   0.000
   23 12 3Pdxz      0.00224   0.00000     -0.000  -0.000  -0.000
   23 13 3Pdx2-y2   0.00129   0.00000     -0.000  -0.000  -0.000
   23     Total     5.52783   0.00000     -0.000  -0.000  -0.000

----------------------------------------------------------------
Total              56.57687   0.00000     -0.000   0.000   0.000


Species: Si                  

Atom      Orb        Charge      Spin       Svec
----------------------------------------------------------------
    7  1 3s         0.68762   0.00000      0.000  -0.000   0.000
    7  2 3s         0.36017   0.00000      0.000   0.000   0.000
    7  3 3py        0.44476   0.00000      0.000   0.000   0.000
    7  4 3pz        0.70467   0.00000     -0.000   0.000   0.000
    7  5 3px        0.13597   0.00000      0.000  -0.000   0.000
    7  6 3py        0.28834   0.00000     -0.000   0.000   0.000
    7  7 3pz        0.25938   0.00000      0.000  -0.000   0.000
    7  8 3px        0.42203   0.00000     -0.000   0.000   0.000
    7  9 3Pdxy      0.24375   0.00000     -0.000   0.000   0.000
    7 10 3Pdyz      0.03015   0.00000      0.000   0.000  -0.000
    7 11 3Pdz2      0.01219   0.00000      0.000  -0.000  -0.000
    7 12 3Pdxz      0.14059   0.00000     -0.000  -0.000  -0.000
    7 13 3Pdx2-y2   0.11546   0.00000     -0.000  -0.000   0.000
    7     Total     3.84508   0.00000     -0.000  -0.000   0.000

    8  1 3s         0.64679   0.00000      0.000  -0.000  -0.000
    8  2 3s         0.37221   0.00000     -0.000   0.000  -0.000
    8  3 3py        0.39591   0.00000     -0.000   0.000   0.000
    8  4 3pz        0.49095   0.00000     -0.000  -0.000   0.000
    8  5 3px       -0.01598   0.00000      0.000  -0.000  -0.000
    8  6 3py        0.29921   0.00000      0.000   0.000  -0.000
    8  7 3pz        0.20706   0.00000      0.000  -0.000  -0.000
    8  8 3px        0.51849   0.00000      0.000   0.000  -0.000
    8  9 3Pdxy      0.26421   0.00000      0.000   0.000  -0.000
    8 10 3Pdyz      0.10783   0.00000     -0.000   0.000   0.000
    8 11 3Pdz2      0.01270   0.00000      0.000  -0.000   0.000
    8 12 3Pdxz      0.16094   0.00000     -0.000   0.000  -0.000
    8 13 3Pdx2-y2   0.19231   0.00000      0.000   0.000  -0.000
    8     Total     3.65261   0.00000     -0.000  -0.000   0.000

    9  1 3s         0.64278   0.00000      0.000   0.000  -0.000
    9  2 3s         0.35183   0.00000     -0.000  -0.000  -0.000
    9  3 3py        0.16664   0.00000     -0.000  -0.000  -0.000
    9  4 3pz        0.47064   0.00000      0.000   0.000  -0.000
    9  5 3px        0.32087   0.00000     -0.000   0.000  -0.000
    9  6 3py        0.35298   0.00000      0.000   0.000  -0.000
    9  7 3pz        0.19228   0.00000     -0.000  -0.000  -0.000
    9  8 3px        0.29528   0.00000      0.000   0.000   0.000
    9  9 3Pdxy      0.25499   0.00000     -0.000   0.000  -0.000
    9 10 3Pdyz      0.17639   0.00000      0.000   0.000  -0.000
    9 11 3Pdz2      0.00905   0.00000      0.000   0.000  -0.000
    9 12 3Pdxz      0.10218   0.00000      0.000   0.000  -0.000
    9 13 3Pdx2-y2   0.16469   0.00000     -0.000  -0.000  -0.000
    9     Total     3.50060   0.00000      0.000   0.000  -0.000

   10  1 3s         0.50009   0.00000     -0.000   0.000  -0.000
   10  2 3s         0.37316   0.00000      0.000  -0.000   0.000
   10  3 3py        0.23979   0.00000      0.000  -0.000  -0.000
   10  4 3pz        0.43606   0.00000      0.000  -0.000  -0.000
   10  5 3px        0.10250   0.00000      0.000  -0.000  -0.000
   10  6 3py        0.33016   0.00000     -0.000   0.000  -0.000
   10  7 3pz        0.20894   0.00000     -0.000   0.000  -0.000
   10  8 3px        0.44382   0.00000     -0.000  -0.000  -0.000
   10  9 3Pdxy      0.18096   0.00000     -0.000  -0.000  -0.000
   10 10 3Pdyz      0.13686   0.00000      0.000  -0.000  -0.000
   10 11 3Pdz2      0.01084   0.00000     -0.000   0.000  -0.000
   10 12 3Pdxz      0.18182   0.00000      0.000   0.000  -0.000
   10 13 3Pdx2-y2   0.32078   0.00000     -0.000   0.000  -0.000
   10     Total     3.46576   0.00000      0.000  -0.000  -0.000

   11  1 3s         0.55983   0.00000     -0.000   0.000   0.000
   11  2 3s         0.38216   0.00000      0.000  -0.000   0.000
   11  3 3py        0.30771   0.00000      0.000  -0.000   0.000
   11  4 3pz        0.53623   0.00000      0.000  -0.000   0.000
   11  5 3px        0.14063   0.00000     -0.000  -0.000   0.000
   11  6 3py        0.30243   0.00000     -0.000   0.000   0.000
   11  7 3pz        0.17713   0.00000      0.000   0.000   0.000
   11  8 3px        0.43219   0.00000      0.000   0.000   0.000
   11  9 3Pdxy      0.24499   0.00000      0.000  -0.000   0.000
   11 10 3Pdyz      0.12576   0.00000      0.000   0.000   0.000
   11 11 3Pdz2      0.00946   0.00000     -0.000  -0.000  -0.000
   11 12 3Pdxz      0.05281   0.00000     -0.000   0.000   0.000
   11 13 3Pdx2-y2   0.18492   0.00000     -0.000  -0.000   0.000
   11     Total     3.45626   0.00000      0.000   0.000   0.000

   17  1 3s         0.65293   0.00000     -0.000  -0.000  -0.000
   17  2 3s         0.35237   0.00000     -0.000   0.000  -0.000
   17  3 3py        0.23462   0.00000     -0.000  -0.000  -0.000
   17  4 3pz        0.44664   0.00000     -0.000  -0.000  -0.000
   17  5 3px        0.22392   0.00000      0.000  -0.000   0.000
   17  6 3py        0.36215   0.00000      0.000   0.000  -0.000
   17  7 3pz        0.20767   0.00000      0.000   0.000  -0.000
   17  8 3px        0.39765   0.00000      0.000   0.000  -0.000
   17  9 3Pdxy      0.27370   0.00000      0.000   0.000  -0.000
   17 10 3Pdyz      0.12961   0.00000      0.000   0.000  -0.000
   17 11 3Pdz2      0.00836   0.00000     -0.000   0.000  -0.000
   17 12 3Pdxz      0.14889   0.00000      0.000   0.000  -0.000
   17 13 3Pdx2-y2   0.19166   0.00000      0.000   0.000  -0.000
   17     Total     3.63017   0.00000      0.000   0.000  -0.000

   18  1 3s         0.74823   0.00000     -0.000   0.000  -0.000
   18  2 3s         0.34161   0.00000      0.000  -0.000   0.000
   18  3 3py        0.06852   0.00000      0.000   0.000   0.000
   18  4 3pz        0.80455   0.00000      0.000  -0.000  -0.000
   18  5 3px        0.55845   0.00000      0.000   0.000   0.000
   18  6 3py        0.52543   0.00000      0.000   0.000   0.000
   18  7 3pz        0.19204   0.00000      0.000   0.000  -0.000
   18  8 3px        0.25029   0.00000     -0.000  -0.000   0.000
   18  9 3Pdxy      0.10630   0.00000      0.000   0.000  -0.000
   18 10 3Pdyz      0.02780   0.00000      0.000   0.000  -0.000
   18 11 3Pdz2      0.00939   0.00000     -0.000  -0.000   0.000
   18 12 3Pdxz      0.03352   0.00000      0.000  -0.000  -0.000
   18 13 3Pdx2-y2   0.10318   0.00000     -0.000   0.000   0.000
   18     Total     3.76931   0.00000     -0.000   0.000   0.000

   19  1 3s         0.45815   0.00000      0.000  -0.000  -0.000
   19  2 3s         0.36279   0.00000     -0.000  -0.000  -0.000
   19  3 3py        0.06783   0.00000      0.000   0.000  -0.000
   19  4 3pz        0.38059   0.00000      0.000  -0.000  -0.000
   19  5 3px        0.21153   0.00000      0.000  -0.000  -0.000
   19  6 3py        0.44705   0.00000      0.000  -0.000  -0.000
   19  7 3pz        0.20274   0.00000      0.000  -0.000  -0.000
   19  8 3px        0.32353   0.00000      0.000   0.000   0.000
   19  9 3Pdxy      0.30803   0.00000      0.000   0.000  -0.000
   19 10 3Pdyz      0.17770   0.00000      0.000  -0.000  -0.000
   19 11 3Pdz2      0.00872   0.00000     -0.000   0.000  -0.000
   19 12 3Pdxz      0.10248   0.00000      0.000  -0.000  -0.000
   19 13 3Pdx2-y2   0.22128   0.00000      0.000   0.000  -0.000
   19     Total     3.27242   0.00000      0.000  -0.000  -0.000

   20  1 3s         0.68382   0.00000      0.000  -0.000   0.000
   20  2 3s         0.37523   0.00000     -0.000   0.000  -0.000
   20  3 3py        0.34964   0.00000     -0.000   0.000  -0.000
   20  4 3pz        0.61101   0.00000     -0.000  -0.000   0.000
   20  5 3px        0.14888   0.00000      0.000  -0.000   0.000
   20  6 3py        0.27881   0.00000      0.000   0.000   0.000
   20  7 3pz        0.15857   0.00000      0.000  -0.000   0.000
   20  8 3px        0.49459   0.00000     -0.000   0.000   0.000
   20  9 3Pdxy      0.10114   0.00000      0.000   0.000   0.000
   20 10 3Pdyz      0.12874   0.00000     -0.000   0.000   0.000
   20 11 3Pdz2      0.00865   0.00000     -0.000  -0.000  -0.000
   20 12 3Pdxz      0.02607   0.00000      0.000   0.000  -0.000
   20 13 3Pdx2-y2   0.18005   0.00000      0.000   0.000   0.000
   20     Total     3.54519   0.00000      0.000  -0.000   0.000

----------------------------------------------------------------
Total              88.71429   0.00000      0.000  -0.000   0.000


Species: H                   

Atom      Orb        Charge      Spin       Svec
----------------------------------------------------------------
   12  1 1s         0.48033   0.00000     -0.000  -0.000  -0.000
   12  2 1s         0.17557   0.00000      0.000  -0.000   0.000
   12  3 2Ppy       0.06016   0.00000      0.000  -0.000  -0.000
   12  4 2Ppz       0.03789   0.00000      0.000  -0.000  -0.000
   12  5 2Ppx       0.07292   0.00000     -0.000   0.000  -0.000
   12     Total     0.82687   0.00000      0.000  -0.000  -0.000

   13  1 1s         1.02138   0.00000     -0.000  -0.000  -0.000
   13  2 1s         0.09459   0.00000      0.000   0.000   0.000
   13  3 2Ppy       0.01980   0.00000      0.000   0.000  -0.000
   13  4 2Ppz       0.01990   0.00000     -0.000   0.000   0.000
   13  5 2Ppx       0.03319   0.00000      0.000   0.000  -0.000
   13     Total     1.18885   0.00000     -0.000  -0.000  -0.000

   14  1 1s         0.50280   0.00000      0.000  -0.000  -0.000
   14  2 1s         0.19354   0.00000      0.000   0.000  -0.000
   14  3 2Ppy       0.02318   0.00000      0.000  -0.000   0.000
   14  4 2Ppz       0.05061   0.00000      0.000   0.000  -0.000
   14  5 2Ppx       0.02430   0.00000      0.000  -0.000  -0.000
   14     Total     0.79443   0.00000      0.000  -0.000  -0.000

   15  1 1s         0.36473   0.00000      0.000   0.000   0.000
   15  2 1s         0.21445   0.00000     -0.000  -0.000   0.000
   15  3 2Ppy       0.07081   0.00000      0.000   0.000  -0.000
   15  4 2Ppz       0.06544   0.00000      0.000  -0.000  -0.000
   15  5 2Ppx       0.12669   0.00000     -0.000  -0.000  -0.000
   15     Total     0.84212   0.00000      0.000  -0.000   0.000

   16  1 1s         0.50592   0.00000      0.000  -0.000   0.000
   16  2 1s         0.18777   0.00000      0.000   0.000   0.000
   16  3 2Ppy       0.03001   0.00000     -0.000  -0.000   0.000
   16  4 2Ppz       0.03889   0.00000      0.000  -0.000  -0.000
   16  5 2Ppx       0.02297   0.00000     -0.000  -0.000  -0.000
   16     Total     0.78556   0.00000      0.000  -0.000   0.000

   24  1 1s         1.05719   0.00000      0.000  -0.000  -0.000
   24  2 1s         0.07556   0.00000      0.000  -0.000   0.000
   24  3 2Ppy       0.03171   0.00000      0.000  -0.000   0.000
   24  4 2Ppz       0.03027   0.00000      0.000   0.000  -0.000
   24  5 2Ppx       0.01787   0.00000      0.000  -0.000  -0.000
   24     Total     1.21260   0.00000      0.000  -0.000  -0.000

   25  1 1s         1.04756   0.00000     -0.000   0.000  -0.000
   25  2 1s         0.08434   0.00000      0.000  -0.000   0.000
   25  3 2Ppy       0.01173   0.00000     -0.000   0.000  -0.000
   25  4 2Ppz       0.01871   0.00000      0.000   0.000  -0.000
   25  5 2Ppx       0.03612   0.00000     -0.000  -0.000   0.000
   25     Total     1.19847   0.00000     -0.000   0.000  -0.000

   26  1 1s         0.50643   0.00000     -0.000   0.000  -0.000
   26  2 1s         0.19338   0.00000      0.000  -0.000  -0.000
   26  3 2Ppy       0.02691   0.00000     -0.000  -0.000  -0.000
   26  4 2Ppz       0.05034   0.00000      0.000  -0.000  -0.000
   26  5 2Ppx       0.02534   0.00000     -0.000  -0.000  -0.000
   26     Total     0.80240   0.00000     -0.000   0.000  -0.000

   27  1 1s         0.29261   0.00000     -0.000   0.000  -0.000
   27  2 1s         0.25716   0.00000      0.000  -0.000   0.000
   27  3 2Ppy       0.08931   0.00000      0.000   0.000  -0.000
   27  4 2Ppz       0.07664   0.00000      0.000   0.000  -0.000
   27  5 2Ppx       0.14969   0.00000      0.000  -0.000   0.000
   27     Total     0.86541   0.00000     -0.000   0.000  -0.000

   29  1 1s         0.49226   0.00000     -0.000  -0.000   0.000
   29  2 1s         0.18762   0.00000      0.000   0.000   0.000
   29  3 2Ppy       0.02527   0.00000     -0.000   0.000   0.000
   29  4 2Ppz       0.03554   0.00000     -0.000  -0.000   0.000
   29  5 2Ppx       0.02830   0.00000     -0.000  -0.000  -0.000
   29     Total     0.76899   0.00000     -0.000  -0.000   0.000

----------------------------------------------------------------
Total              98.00000   0.00000      0.000   0.000  -0.000


siesta: Eigenvalues (eV):
ik =     1
  -24.1429  -24.1429  -23.8692  -23.8692  -21.5025  -21.5025  -21.2986  -21.2986  -20.7161  -20.7161
  -20.3392  -20.3392  -19.9499  -19.9499  -19.5654  -19.5654  -19.4123  -19.4123  -19.3422  -19.3422
  -14.7345  -14.7345  -14.1167  -14.1167  -13.5664  -13.5664  -13.2505  -13.2505  -13.1524  -13.1524
  -13.0073  -13.0073  -12.4414  -12.4414  -12.1838  -12.1838  -12.0798  -12.0798  -11.9698  -11.9698
  -10.9551  -10.9551  -10.7334  -10.7334  -10.5525  -10.5525  -10.2041  -10.2041  -10.0502  -10.0502
   -9.7727   -9.7727   -9.1349   -9.1349   -8.9347   -8.9347   -8.8593   -8.8593   -8.7935   -8.7935
   -8.5620   -8.5620   -8.4500   -8.4500   -8.4158   -8.4158   -8.1800   -8.1800   -7.7900   -7.7900
   -7.7492   -7.7492   -7.5605   -7.5605   -7.4520   -7.4520   -7.4037   -7.4037   -6.9550   -6.9550
   -6.7395   -6.7395   -6.6700   -6.6700   -6.4075   -6.4075   -6.4042   -6.4042   -6.0324   -6.0324
   -5.9321   -5.9321   -5.6432   -5.6432   -5.3890   -5.3890   -4.3858   -4.3858   -3.1422   -3.1422
   -2.5121   -2.5121   -2.3134   -2.3134   -2.1813   -2.1813   -2.0344   -2.0344   -1.9160   -1.9160
   -1.8984   -1.8984   -1.6508   -1.6508   -1.6345   -1.6345   -1.2705   -1.2705   -1.1274   -1.1274
   -1.0042   -1.0042   -0.5458   -0.5458   -0.4526   -0.4526   -0.4155   -0.4155    0.3636    0.3636
    0.3706    0.3706    0.5728    0.5728    0.7892    0.7892    0.8780    0.8780    1.1826    1.1826
    1.3826    1.3826    1.4863    1.4863    1.5426    1.5426    1.5880    1.5880    2.0177    2.0177
    2.3287    2.3287    2.5502    2.5502    2.6614    2.6614    2.8054    2.8054    3.0158    3.0158
    3.1604    3.1604    3.3216    3.3216    3.3953    3.3953    3.4659    3.4659    3.7880    3.7880
    3.8986    3.8986    4.0349    4.0349    4.2343    4.2343    4.3482    4.3482    4.5639    4.5639
    4.6173    4.6173    4.7675    4.7675    4.7696    4.7696    5.1054    5.1054    5.3082    5.3082
    5.3993    5.3993    5.5564    5.5564    5.7805    5.7805    5.8600    5.8600    5.9144    5.9144
    6.1008    6.1008    6.3421    6.3421    6.5012    6.5012    6.6519    6.6519    6.6695    6.6695
    6.9879    6.9879    7.0094    7.0094    7.2037    7.2037    7.4370    7.4370    7.5349    7.5349
    7.6147    7.6147    7.6973    7.6973    7.8659    7.8659    8.0834    8.0834    8.1483    8.1483
    8.2837    8.2837    8.4841    8.4841    8.6323    8.6323    8.7143    8.7143    8.8941    8.8941
    9.0558    9.0558    9.1418    9.1418    9.4374    9.4374    9.5591    9.5591    9.9139    9.9139
    9.9373    9.9373   10.0007   10.0007   10.1578   10.1578   10.4545   10.4545   10.5785   10.5785
   10.7409   10.7409   11.1986   11.1986   11.3097   11.3097   11.4426   11.4426   11.4888   11.4888
   11.8010   11.8010   12.1540   12.1540   12.4464   12.4464   12.4709   12.4709   12.5743   12.5743
   12.6302   12.6302   12.8834   12.8834   13.5826   13.5826   13.7663   13.7663   13.9249   13.9249
   13.9907   13.9907   14.1603   14.1603   14.4373   14.4373   14.4972   14.4972   14.5038   14.5038
   14.6374   14.6374   15.3431   15.3431   15.8621   15.8621   16.1263   16.1263   16.3456   16.3456
   16.7951   16.7951   16.8339   16.8339   16.8467   16.8467   17.2527   17.2527   17.3353   17.3353
   18.1338   18.1338   18.4611   18.4611   18.6157   18.6157   19.1251   19.1251   19.8132   19.8132
   20.2970   20.2971   20.3869   20.3869   20.6228   20.6228   21.3318   21.3318   21.5199   21.5199
   22.0643   22.0643   22.1273   22.1273   22.6246   22.6246   23.0279   23.0279   23.2285   23.2285
   23.6309   23.6309   24.1362   24.1362   24.5881   24.5881   25.0147   25.0147   25.2345   25.2345
   26.3563   26.3563   27.2839   27.2839   27.4344   27.4344   28.0732   28.0732   28.7793   28.7793
   29.4500   29.4500   30.0576   30.0576   30.2236   30.2236   30.4102   30.4102   30.6379   30.6379
   30.9500   30.9500   31.3467   31.3467   31.3985   31.3985   31.8119   31.8119   32.1740   32.1740
   33.6613   33.6613   33.8480   33.8480   34.2995   34.2995   34.6765   34.6765   34.8000   34.8000
   35.2022   35.2022   35.6205   35.6205   36.2691   36.2691   36.7510   36.7510   36.9880   36.9880
   37.2301   37.2301   37.5372   37.5372   38.4674   38.4674   38.7993   38.7993   39.3527   39.3527
   39.4971   39.4971   40.1091   40.1091   40.3009   40.3009   40.3410   40.3410   40.5924   40.5924
   40.9905   40.9905   41.5544   41.5544   42.0702   42.0702   42.6998   42.6998   42.8007   42.8007
   43.1768   43.1768   43.3558   43.3558   43.3665   43.3665   43.5692   43.5692   43.9688   43.9688
   44.3345   44.3345   45.0050   45.0050   45.3899   45.3899   45.5404   45.5404   45.8680   45.8680
   46.0205   46.0205   46.4653   46.4653   46.9743   46.9743   47.2055   47.2055   47.5884   47.5884
   48.2063   48.2063   48.8309   48.8309   49.7148   49.7148   49.8861   49.8861   50.3798   50.3798
   50.8651   50.8651   50.9499   50.9499   51.7102   51.7102   52.6910   52.6910   52.7032   52.7032
   53.6628   53.6628   53.7487   53.7487   55.0114   55.0114   55.0221   55.0221   55.0941   55.0941
   56.4216   56.4216   56.7445   56.7445   56.7908   56.7908   57.5182   57.5182   58.5214   58.5214
   58.7744   58.7744   58.9518   58.9518   59.1264   59.1264   59.7507   59.7507   60.2972   60.2972
   60.4186   60.4186   61.2936   61.2936   62.1027   62.1027   63.0191   63.0191   63.9645   63.9645
   66.4910   66.4910   66.5271   66.5271   66.7826   66.7826   67.7522   67.7522   68.3859   68.3859
   70.4861   70.4861   71.2325   71.2325   72.9164   72.9164   74.3484   74.3484   77.8759   77.8759
   78.7376   78.7376   80.4323   80.4323   84.3980   84.3980   86.1689   86.1689   91.3161   91.3161
   92.3108   92.3108   93.8698   93.8698   96.2858   96.2858   99.5884   99.5884   99.9718   99.9718
  103.3296  103.3296  103.7064  103.7064  104.6044  104.6044  113.3035  113.3035  116.2479  116.2479
  121.9614  121.9614  124.9375  124.9375  127.4860  127.4860  130.1421  130.1421  142.8503  142.8503
  150.4637  150.4637  151.3528  151.3528
siesta: Fermi energy =      -3.766906 eV

siesta: Program's energy decomposition (eV):
siesta: Ebs     =     -1141.506863
siesta: Eions   =      3585.165840
siesta: Ena     =       387.709230
siesta: Ekin    =      2933.415706
siesta: Enl     =     -2816.237362
siesta: Eso     =        -0.004380
siesta: Edftu   =         0.000000
siesta: DEna    =        48.844533
siesta: DUscf   =        13.958719
siesta: DUext   =         0.000000
siesta: Exc     =     -1127.813554
siesta: eta*DQ  =         0.000000
siesta: Emadel  =         0.000000
siesta: Emeta   =         0.000000
siesta: Emolmec =         0.000000
siesta: Ekinion =         0.000000
siesta: Eharris =     -4145.292948
siesta: Etot    =     -4145.292948
siesta: FreeEng =     -4145.292948

siesta: Final energy (eV):
siesta:  Band Struct. =   -1141.506863
siesta:       Kinetic =    2933.415706
siesta:       Hartree =    9375.270758
siesta:       Edftu   =       0.000000
siesta:       Eso     =      -0.004380
siesta:    Ext. field =       0.000000
siesta:   Exch.-corr. =   -1127.813554
siesta:  Ion-electron =  -21360.969171
siesta:       Ion-ion =    6034.807693
siesta:       Ekinion =       0.000000
siesta:         Total =   -4145.292948
siesta:         Fermi =      -3.766906

siesta: Atomic forces (eV/Ang):
siesta:      1   -6.561109   -6.712220    0.000000
siesta:      2   -0.065468   -0.011814   -0.000000
siesta:      3   -1.537900    0.222902    0.000000
siesta:      4   -1.150885   -0.084463   -0.000000
siesta:      5   -0.114953    0.043165    0.000000
siesta:      6   -4.263023   -2.259650   -0.000000
siesta:      7   -0.084728    0.396119    0.000000
siesta:      8    0.625542   -0.406076   -0.000000
siesta:      9    0.061722   -2.240307    0.000000
siesta:     10    1.443819   -0.499952    0.000000
siesta:     11    0.007649    0.050473    0.000000
siesta:     12    0.464261    0.370422   -0.000000
siesta:     13    0.053868    0.057158   -0.000000
siesta:     14   -0.348487   -0.152027   -0.000000
siesta:     15    0.787259    0.533866   -0.000000
siesta:     16    0.132712    0.167739    0.000000
siesta:     17   -1.474877    1.886486   -0.000000
siesta:     18    0.357660   -0.340644    0.000000
siesta:     19    0.607999    1.897554   -0.000000
siesta:     20    0.039994    0.664131    0.000000
siesta:     21    0.791249   -1.351803    0.000000
siesta:     22    7.257117    4.222112   -0.000000
siesta:     23   -0.412066   -0.790926   -0.000000
siesta:     24   -0.108000    0.099200   -0.000000
siesta:     25   -0.028195   -0.094535   -0.000000
siesta:     26    0.367500    0.444374    0.000000
siesta:     27    0.284184   -0.136590   -0.000000
siesta:     28    7.317589    2.786870    0.000000
siesta:     29    0.096767   -0.006470   -0.000000
siesta: ----------------------------------------
siesta:    Tot    4.547198   -1.244904    0.000000

siesta: Stress tensor (static) (eV/Ang**3):
siesta:    -0.003954   -0.004004   -0.000000
siesta:    -0.004004   -0.002947   -0.000000
siesta:     0.000000   -0.000000   -0.000043

siesta: Cell volume =       4306.895755 Ang**3

siesta: Pressure (static):
siesta:                Solid            Molecule  Units
siesta:           0.00002521         -0.00000542  Ry/Bohr**3
siesta:           0.00231470         -0.00049766  eV/Ang**3
siesta:           3.70860216         -0.79734819  kBar
(Free)E+ p_basis*V_orbitals  =       -4125.442530
(Free)Eharris+ p_basis*V_orbitals  =       -4125.442530
     spin moment: S , {S} =    0.00000   0.00000   0.00000  -0.00000

siesta: Electric dipole (a.u.)  =    1.276972    0.057317    0.000000
siesta: Electric dipole (Debye) =    3.245742    0.145685    0.000000

cite: Please see "GC.bib" for an exhaustive BiBTeX file.
cite: Please clearly indicate Siesta version in published work: v4.1.5-1-g384057250
cite: This calculation has made use of the following articles
cite: which are encouraged to be cited in a published work.
        Primary SIESTA paper
          DOI: www.doi.org/10.1088/0953-8984/14/11/302
        Spin-orbit coupling (on-site approximation)
          DOI: www.doi.org/10.1088/0953-8984/19/19/489001


WARNING: alloc-realloc-dealloc name mismatch
         Name: atomlist isa
         Size:              -116. Bytes
         Node:     0
         Subsequent mismatches will not be reported
>> End of run:  22-MAY-2023  16:32:45
Job completed
