Siesta Version  : v4.1.5-1-g384057250
Architecture    : gcc
Compiler version: GNU Fortran (Ubuntu 11.4.0-1ubuntu1~22.04) 11.4.0
Compiler flags  : mpifort -O2 -fPIC -ftree-vectorize -fallow-argument-mismatch
PP flags        : -DFC_HAVE_ABORT -DMPI -DSIESTA__FLOOK -DSIESTA__METIS -DSIESTA__MUMPS -DCDF -DNCDF -DNCDF_4 -DNCDF_PARALLEL -DSIESTA__MRRR -DSIESTA__ELPA
Libraries       : libncdf.a libfdict.a  -lflookall -ldl -lnetcdff -lnetcdf -lhdf5_hl -lhdf5 -lhdf5_fortran -lz -lscalapack-openmpi -lopenblas -lmetis -lzmumps -lcmumps -ldmumps -lmumps_common -lpord -lsmumps -lesmumps -lscotch -lscotcherr -fopenmp -lelpa
PARALLEL version
NetCDF support
NetCDF-4 support
NetCDF-4 MPI-IO support
METIS ordering support
Lua support

* Running on 8 nodes in parallel
>> Start of run:   1-FEB-2024  18:35:44

                           ***********************       
                           *  WELCOME TO SIESTA  *       
                           ***********************       

reinit: Reading from standard input
reinit: Dumped input in INPUT_TMP.34512
************************** Dump of input data file ****************************
# mpirun -np 4 siesta-4.1.5 < AT.fdf > AT.out &
SystemLabel      AT
NumberOfAtoms    30
NumberOfSpecies  4
%block ChemicalSpeciesLabel
    1    1  H
    2    7  N
    3   14  Si
    4    8  O
%endblock ChemicalSpeciesLabel
############################################
# This overrides Defaults.fdf configuration
############################################
MD.TypeOfRun                Verlet # CG, Verlet
MD.Steps                    0
MaxSCFIterations            200
SCF.MustConverge            F
AtomicCoordinatesFormat NotScaledCartesianAng
%block AtomicCoordinatesAndAtomicSpecies
    2.28494382 -5.19529124 0.0  1  1  H
    1.37433094 -4.6647107 0.0  2  2  N
    -0.21830245 -5.49458215 0.0  3  3  Si
    -0.17484108 -6.98516892 0.0  1  4  H
    -1.66171682 -4.58600741 0.0  2  5  N
    -1.09026419 -2.87456374 0.0  3  6  Si
    -1.53038332 -0.70765692 0.0  3  7  Si
    -3.14415959 -0.09186471 0.0  2  8  N
    -3.40268075 0.95848335 0.0  1  9  H
    -3.95073599 -0.76720972 0.0  1  10  H
    -0.17836637 0.41349951 0.0  2  11  N
    1.49520211 -0.0473996 0.0  3  12  Si
    2.45603905 1.10727302 0.0  1  13  H
    2.30451743 -1.58574382 0.0  2  14  N
    1.10725559 -2.84610319 0.0  3  15  Si
    0.4897046285554161 8.124456556261022 0.0  1  16  H
    -0.31900605144458394 7.43225067626102 0.0  2  17  N
    -1.975595891444584 8.145370776261021 0.0  3  18  Si
    -1.8787307214445839 9.65609598626102 0.0  1  19  H
    -3.701752241444584 6.80232264626102 0.0  3  20  Si
    -6.056206491444584 6.7943357162610205 0.0  3  21  Si
    -6.618624611444584 7.52882536626102 -1.20183078  1  22  H
    -6.356020241444584 5.31524458626102 -0.08618332  1  23  H
    -6.618737071444584 7.35916817626102 1.28814761  1  24  H
    -2.772361601444584 4.73175141626102 0.0  3  25  Si
    -3.721829961444584 3.44321528626102 0.0  4  26  O
    -0.981416731444584 4.558015946261021 0.0  2  27  N
    -0.6504253714445839 3.5256589662610205 0.0  1  28  H
    0.32704148855541604 5.75256236626102 0.0  3  29  Si
    1.892978418555416 5.4853155162610205 0.0  4  30  O
%endblock AtomicCoordinatesAndAtomicSpecies
#############
# Unit Cell
#############
LatticeConstant 1.0 Ang
%block LatticeVectors
    30.00000    0.000000    0.000000
    0.000000    45.00000    0.000000
    0.000000    0.000000    10.00000
%endblock LatticeVectors
%include ../../../../Defaults.fdf
************************** End of input data file *****************************

reinit: -----------------------------------------------------------------------
reinit: System Name: 
reinit: -----------------------------------------------------------------------
reinit: System Label: AT
reinit: -----------------------------------------------------------------------

initatom: Reading input for the pseudopotentials and atomic orbitals ----------
Species number:   1 Atomic number:    1 Label: H
Species number:   2 Atomic number:    7 Label: N
Species number:   3 Atomic number:   14 Label: Si
Species number:   4 Atomic number:    8 Label: O

Ground state valence configuration:   1s01
Reading pseudopotential information in formatted form from H.psf

Pseudopotential generated from a relativistic atomic calculation

Valence configuration for pseudopotential generation:
1s( 1.00) rc: 0.01
2p( 0.00) rc: 0.60
3d( 0.00) rc: 1.99
4f( 0.00) rc: 2.49
Ground state valence configuration:   2s02  2p03
Reading pseudopotential information in formatted form from N.psf

Pseudopotential generated from a relativistic atomic calculation

Valence configuration for pseudopotential generation:
2s( 2.00) rc: 0.94
2p( 3.00) rc: 0.59
3d( 0.00) rc: 3.46
4f( 0.00) rc: 2.47
Ground state valence configuration:   3s02  3p02
Reading pseudopotential information in formatted form from Si.psf

Pseudopotential generated from a relativistic atomic calculation

Valence configuration for pseudopotential generation:
3s( 2.00) rc: 1.67
3p( 2.00) rc: 2.04
3d( 0.00) rc: 2.89
4f( 0.00) rc: 2.49
Ground state valence configuration:   2s02  2p04
Reading pseudopotential information in formatted form from O.psf

Pseudopotential generated from a relativistic atomic calculation

Valence configuration for pseudopotential generation:
2s( 2.00) rc: 0.45
2p( 4.00) rc: 0.92
3d( 0.00) rc: 2.24
4f( 0.00) rc: 0.25
For H, standard SIESTA heuristics set lmxkb to 2
 (one more than the basis l, including polarization orbitals).
Use PS.lmax or PS.KBprojectors blocks to override.
For N, standard SIESTA heuristics set lmxkb to 3
 (one more than the basis l, including polarization orbitals).
Use PS.lmax or PS.KBprojectors blocks to override.
For Si, standard SIESTA heuristics set lmxkb to 3
 (one more than the basis l, including polarization orbitals).
Use PS.lmax or PS.KBprojectors blocks to override.
For O, standard SIESTA heuristics set lmxkb to 3
 (one more than the basis l, including polarization orbitals).
Use PS.lmax or PS.KBprojectors blocks to override.

<basis_specs>
===============================================================================
H                    Z=   1    Mass=  1.0100        Charge= 0.17977+309
Lmxo=0 Lmxkb= 2    BasisType=split      Semic=F
L=0  Nsemic=0  Cnfigmx=1
          i=1  nzeta=2  polorb=1  (1s)
            splnorm:   0.62000    
               vcte:    0.0000    
               rinn:    0.0000    
               qcoe:    0.0000    
               qyuk:    0.0000    
               qwid:   0.10000E-01
                rcs:    0.0000      0.0000    
            lambdas:    1.0000      1.0000    
-------------------------------------------------------------------------------
L=0  Nkbl=1  erefs: 0.17977+309
L=1  Nkbl=1  erefs: 0.17977+309
L=2  Nkbl=1  erefs: 0.17977+309
===============================================================================
</basis_specs>

atom: Called for H                     (Z =   1)

read_vps: Pseudopotential generation method:
read_vps: ATM4.2.7  Troullier-Martins                       
Valence charge for ps generation:    1.00000

xc_check: Exchange-correlation functional:
xc_check: GGA Perdew, Burke & Ernzerhof 1996
V l=0 = -2*Zval/r beyond r=  0.0098
V l=1 = -2*Zval/r beyond r=  0.5817
V l=2 = -2*Zval/r beyond r=  1.9372
All V_l potentials equal beyond r=  1.9372
This should be close to max(r_c) in ps generation
All pots = -2*Zval/r beyond r=  1.9372

VLOCAL1: 99.0% of the norm of Vloc inside     11.567 Ry
VLOCAL1: 99.9% of the norm of Vloc inside     26.362 Ry
atom: Maximum radius for 4*pi*r*r*local-pseudopot. charge    2.25106
atom: Maximum radius for r*vlocal+2*Zval:    1.91306
GHOST: No ghost state for L =  0
GHOST: No ghost state for L =  1
GHOST: No ghost state for L =  2

KBgen: Kleinman-Bylander projectors: 
   l= 0   rc=  2.036604   el= -0.477180   Ekb= -6.081590   kbcos= -0.277285
   l= 1   rc=  2.195416   el=  0.001076   Ekb= -0.926943   kbcos= -0.034643
   l= 2   rc=  2.251056   el=  0.002010   Ekb= -0.130941   kbcos= -0.009788

KBgen: Total number of Kleinman-Bylander projectors:    9
atom: -------------------------------------------------------------------------

atom: SANKEY-TYPE ORBITALS:
atom: Selected multiple-zeta basis: split     

SPLIT: Orbitals with angular momentum L= 0

SPLIT: Basis orbitals for state 1s

SPLIT: PAO cut-off radius determined from an
SPLIT: energy shift=  0.002000 Ry

   izeta = 1
                 lambda =    1.000000
                     rc =    6.518340
                 energy =   -0.475305
                kinetic =    0.912139
    potential(screened) =   -1.387444
       potential(ionic) =   -1.907295

   izeta = 2
                 rmatch =    2.141150
              splitnorm =    0.620000
                 energy =    0.566467
                kinetic =    3.772856
    potential(screened) =   -3.206389
       potential(ionic) =   -3.759093

POLgen: Perturbative polarization orbital with L=  1

POLgen: Polarization orbital for state 1s

   izeta = 1
                     rc =    6.518340
                 energy =    0.533861
                kinetic =    1.121086
    potential(screened) =   -0.587225
       potential(ionic) =   -1.053027
atom: Total number of Sankey-type orbitals:  5

atm_pop: Valence configuration (for local Pseudopot. screening):
 1s( 1.00)                                                            
Vna: chval, zval:    1.00000   1.00000

Vna:  Cut-off radius for the neutral-atom potential:   6.518340

atom: _________________________________________________________________________

<basis_specs>
===============================================================================
N                    Z=   7    Mass=  14.010        Charge= 0.17977+309
Lmxo=1 Lmxkb= 3    BasisType=split      Semic=F
L=0  Nsemic=0  Cnfigmx=2
          i=1  nzeta=2  polorb=0  (2s)
            splnorm:   0.28000    
               vcte:    0.0000    
               rinn:    0.0000    
               qcoe:    0.0000    
               qyuk:    0.0000    
               qwid:   0.10000E-01
                rcs:    0.0000      0.0000    
            lambdas:    1.0000      1.0000    
L=1  Nsemic=0  Cnfigmx=2
          i=1  nzeta=2  polorb=1  (2p)
            splnorm:   0.28000    
               vcte:    0.0000    
               rinn:    0.0000    
               qcoe:    0.0000    
               qyuk:    0.0000    
               qwid:   0.10000E-01
                rcs:    0.0000      0.0000    
            lambdas:    1.0000      1.0000    
-------------------------------------------------------------------------------
L=0  Nkbl=1  erefs: 0.17977+309
L=1  Nkbl=1  erefs: 0.17977+309
L=2  Nkbl=1  erefs: 0.17977+309
L=3  Nkbl=1  erefs: 0.17977+309
===============================================================================
</basis_specs>

atom: Called for N                     (Z =   7)

read_vps: Pseudopotential generation method:
read_vps: ATM4.2.7  Troullier-Martins                       
Valence charge for ps generation:    5.00000

xc_check: Exchange-correlation functional:
xc_check: GGA Perdew, Burke & Ernzerhof 1996
V l=0 = -2*Zval/r beyond r=  1.2889
V l=1 = -2*Zval/r beyond r=  1.2889
V l=2 = -2*Zval/r beyond r=  3.4178
V l=3 = -2*Zval/r beyond r=  2.4084
All V_l potentials equal beyond r=  3.3753
This should be close to max(r_c) in ps generation
All pots = -2*Zval/r beyond r=  3.4178

VLOCAL1: 99.0% of the norm of Vloc inside      3.810 Ry
VLOCAL1: 99.9% of the norm of Vloc inside      8.683 Ry
atom: Maximum radius for 4*pi*r*r*local-pseudopot. charge    4.02088
atom: Maximum radius for r*vlocal+2*Zval:    3.54838
GHOST: No ghost state for L =  0
GHOST: No ghost state for L =  1
GHOST: No ghost state for L =  2
GHOST: No ghost state for L =  3

KBgen: Kleinman-Bylander projectors: 
   l= 0   rc=  3.417763   el= -1.365098   Ekb= -4.433130   kbcos= -0.707855
   l= 1   rc=  3.375302   el= -0.521201   Ekb=-13.264039   kbcos= -0.535594
   l= 2   rc=  3.872880   el=  0.001991   Ekb= -0.641094   kbcos= -0.062456
   l= 3   rc=  3.970931   el=  0.003093   Ekb= -0.474517   kbcos= -0.018236

KBgen: Total number of Kleinman-Bylander projectors:   16
atom: -------------------------------------------------------------------------

atom: SANKEY-TYPE ORBITALS:
atom: Selected multiple-zeta basis: split     

SPLIT: Orbitals with angular momentum L= 0

SPLIT: Basis orbitals for state 2s

SPLIT: PAO cut-off radius determined from an
SPLIT: energy shift=  0.002000 Ry

   izeta = 1
                 lambda =    1.000000
                     rc =    4.730425
                 energy =   -1.363399
                kinetic =    1.245246
    potential(screened) =   -2.608645
       potential(ionic) =   -8.121105

   izeta = 2
                 rmatch =    2.531849
              splitnorm =    0.280000
                 energy =   -0.959908
                kinetic =    2.409435
    potential(screened) =   -3.369343
       potential(ionic) =   -9.427975

SPLIT: Orbitals with angular momentum L= 1

SPLIT: Basis orbitals for state 2p

SPLIT: PAO cut-off radius determined from an
SPLIT: energy shift=  0.002000 Ry

   izeta = 1
                 lambda =    1.000000
                     rc =    5.924108
                 energy =   -0.519262
                kinetic =    3.672940
    potential(screened) =   -4.192202
       potential(ionic) =   -9.518354

   izeta = 2
                 rmatch =    2.531849
              splitnorm =    0.280000
                 energy =   -0.104258
                kinetic =    6.807538
    potential(screened) =   -6.911796
       potential(ionic) =  -13.149920

POLgen: Perturbative polarization orbital with L=  2

POLgen: Polarization orbital for state 2p

   izeta = 1
                     rc =    5.924108
                 energy =    1.427508
                kinetic =    2.872379
    potential(screened) =   -1.444871
       potential(ionic) =   -5.563644
atom: Total number of Sankey-type orbitals: 13

atm_pop: Valence configuration (for local Pseudopot. screening):
 2s( 2.00)                                                            
 2p( 3.00)                                                            
Vna: chval, zval:    5.00000   5.00000

Vna:  Cut-off radius for the neutral-atom potential:   5.924108

atom: _________________________________________________________________________

<basis_specs>
===============================================================================
Si                   Z=  14    Mass=  28.090        Charge= 0.17977+309
Lmxo=1 Lmxkb= 3    BasisType=split      Semic=F
L=0  Nsemic=0  Cnfigmx=3
          i=1  nzeta=2  polorb=0  (3s)
            splnorm:   0.28000    
               vcte:    0.0000    
               rinn:    0.0000    
               qcoe:    0.0000    
               qyuk:    0.0000    
               qwid:   0.10000E-01
                rcs:    0.0000      0.0000    
            lambdas:    1.0000      1.0000    
L=1  Nsemic=0  Cnfigmx=3
          i=1  nzeta=2  polorb=1  (3p)
            splnorm:   0.28000    
               vcte:    0.0000    
               rinn:    0.0000    
               qcoe:    0.0000    
               qyuk:    0.0000    
               qwid:   0.10000E-01
                rcs:    0.0000      0.0000    
            lambdas:    1.0000      1.0000    
-------------------------------------------------------------------------------
L=0  Nkbl=1  erefs: 0.17977+309
L=1  Nkbl=1  erefs: 0.17977+309
L=2  Nkbl=1  erefs: 0.17977+309
L=3  Nkbl=1  erefs: 0.17977+309
===============================================================================
</basis_specs>

atom: Called for Si                    (Z =  14)

read_vps: Pseudopotential generation method:
read_vps: ATM4.2.7  Troullier-Martins                       
Valence charge for ps generation:    4.00000

xc_check: Exchange-correlation functional:
xc_check: GGA Perdew, Burke & Ernzerhof 1996
V l=0 = -2*Zval/r beyond r=  2.7826
V l=1 = -2*Zval/r beyond r=  2.7826
V l=2 = -2*Zval/r beyond r=  2.9253
V l=3 = -2*Zval/r beyond r=  2.7826
All V_l potentials equal beyond r=  2.8530
This should be close to max(r_c) in ps generation
All pots = -2*Zval/r beyond r=  2.9253

VLOCAL1: 99.0% of the norm of Vloc inside      5.333 Ry
VLOCAL1: 99.9% of the norm of Vloc inside     12.154 Ry
atom: Maximum radius for 4*pi*r*r*local-pseudopot. charge    3.39869
atom: Maximum radius for r*vlocal+2*Zval:    2.96205
GHOST: No ghost state for L =  0
GHOST: No ghost state for L =  1
GHOST: No ghost state for L =  2
GHOST: No ghost state for L =  3

KBgen: Kleinman-Bylander projectors: 
   l= 0   rc=  3.075247   el= -0.794092   Ekb=  5.879390   kbcos=  0.167461
   l= 1   rc=  3.153101   el= -0.300068   Ekb=  2.642817   kbcos=  0.058301
   l= 2   rc=  3.273594   el=  0.001958   Ekb= -1.185135   kbcos= -0.104411
   l= 3   rc=  3.232927   el=  0.003046   Ekb= -0.497174   kbcos= -0.015889

KBgen: Total number of Kleinman-Bylander projectors:   16
atom: -------------------------------------------------------------------------

atom: SANKEY-TYPE ORBITALS:
atom: Selected multiple-zeta basis: split     

SPLIT: Orbitals with angular momentum L= 0

SPLIT: Basis orbitals for state 3s

SPLIT: PAO cut-off radius determined from an
SPLIT: energy shift=  0.002000 Ry

   izeta = 1
                 lambda =    1.000000
                     rc =    6.429618
                 energy =   -0.792283
                kinetic =    0.525293
    potential(screened) =   -1.317576
       potential(ionic) =   -3.744923

   izeta = 2
                 rmatch =    3.998416
              splitnorm =    0.280000
                 energy =   -0.583081
                kinetic =    1.069570
    potential(screened) =   -1.652651
       potential(ionic) =   -4.235185

SPLIT: Orbitals with angular momentum L= 1

SPLIT: Basis orbitals for state 3p

SPLIT: PAO cut-off radius determined from an
SPLIT: energy shift=  0.002000 Ry

   izeta = 1
                 lambda =    1.000000
                     rc =    8.464845
                 energy =   -0.298236
                kinetic =    0.785360
    potential(screened) =   -1.083596
       potential(ionic) =   -3.273779

   izeta = 2
                 rmatch =    4.587816
              splitnorm =    0.280000
                 energy =   -0.131871
                kinetic =    1.403687
    potential(screened) =   -1.535557
       potential(ionic) =   -4.015310

POLgen: Perturbative polarization orbital with L=  2

POLgen: Polarization orbital for state 3p

   izeta = 1
                     rc =    8.464845
                 energy =    0.321949
                kinetic =    1.055677
    potential(screened) =   -0.733728
       potential(ionic) =   -2.672950
atom: Total number of Sankey-type orbitals: 13

atm_pop: Valence configuration (for local Pseudopot. screening):
 3s( 2.00)                                                            
 3p( 2.00)                                                            
Vna: chval, zval:    4.00000   4.00000

Vna:  Cut-off radius for the neutral-atom potential:   8.464845

atom: _________________________________________________________________________

<basis_specs>
===============================================================================
O                    Z=   8    Mass=  16.000        Charge= 0.17977+309
Lmxo=1 Lmxkb= 3    BasisType=split      Semic=F
L=0  Nsemic=0  Cnfigmx=2
          i=1  nzeta=2  polorb=0  (2s)
            splnorm:   0.28000    
               vcte:    0.0000    
               rinn:    0.0000    
               qcoe:    0.0000    
               qyuk:    0.0000    
               qwid:   0.10000E-01
                rcs:    0.0000      0.0000    
            lambdas:    1.0000      1.0000    
L=1  Nsemic=0  Cnfigmx=2
          i=1  nzeta=2  polorb=1  (2p)
            splnorm:   0.28000    
               vcte:    0.0000    
               rinn:    0.0000    
               qcoe:    0.0000    
               qyuk:    0.0000    
               qwid:   0.10000E-01
                rcs:    0.0000      0.0000    
            lambdas:    1.0000      1.0000    
-------------------------------------------------------------------------------
L=0  Nkbl=1  erefs: 0.17977+309
L=1  Nkbl=1  erefs: 0.17977+309
L=2  Nkbl=1  erefs: 0.17977+309
L=3  Nkbl=1  erefs: 0.17977+309
===============================================================================
</basis_specs>

atom: Called for O                     (Z =   8)

read_vps: Pseudopotential generation method:
read_vps: ATM4.2.7  Troullier-Martins                       
Valence charge for ps generation:    6.00000

xc_check: Exchange-correlation functional:
xc_check: GGA Perdew, Burke & Ernzerhof 1996
V l=0 = -2*Zval/r beyond r=  1.1000
V l=1 = -2*Zval/r beyond r=  1.1000
V l=2 = -2*Zval/r beyond r=  2.2154
V l=3 = -2*Zval/r beyond r=  1.1000
All V_l potentials equal beyond r=  2.2154
This should be close to max(r_c) in ps generation
All pots = -2*Zval/r beyond r=  2.2154

VLOCAL1: 99.0% of the norm of Vloc inside      8.845 Ry
VLOCAL1: 99.9% of the norm of Vloc inside     20.157 Ry
atom: Maximum radius for 4*pi*r*r*local-pseudopot. charge    2.67231
atom: Maximum radius for r*vlocal+2*Zval:    2.32897
GHOST: No ghost state for L =  0
GHOST: No ghost state for L =  1
GHOST: No ghost state for L =  2
GHOST: No ghost state for L =  3

KBgen: Kleinman-Bylander projectors: 
   l= 0   rc=  2.243238   el= -1.759686   Ekb=**********   kbcos= -0.171774
   l= 1   rc=  2.328968   el= -0.663873   Ekb=-14.506792   kbcos= -0.519897
   l= 2   rc=  2.573941   el=  0.002031   Ekb= -1.137373   kbcos= -0.019581
   l= 3   rc=  2.606321   el=  0.003153   Ekb= -1.013546   kbcos= -0.003122

KBgen: Total number of Kleinman-Bylander projectors:   16
atom: -------------------------------------------------------------------------

atom: SANKEY-TYPE ORBITALS:
atom: Selected multiple-zeta basis: split     

SPLIT: Orbitals with angular momentum L= 0

SPLIT: Basis orbitals for state 2s

SPLIT: PAO cut-off radius determined from an
SPLIT: energy shift=  0.002000 Ry

   izeta = 1
                 lambda =    1.000000
                     rc =    4.243912
                 energy =   -1.758270
                kinetic =    3.286084
    potential(screened) =   -5.044353
       potential(ionic) =  -12.921184

   izeta = 2
                 rmatch =    2.187845
              splitnorm =    0.280000
                 energy =   -0.885018
                kinetic =    8.134434
    potential(screened) =   -9.019452
       potential(ionic) =  -17.710645

SPLIT: Orbitals with angular momentum L= 1

SPLIT: Basis orbitals for state 2p

SPLIT: PAO cut-off radius determined from an
SPLIT: energy shift=  0.002000 Ry

   izeta = 1
                 lambda =    1.000000
                     rc =    5.314825
                 energy =   -0.661986
                kinetic =    4.917472
    potential(screened) =   -5.579458
       potential(ionic) =  -13.236259

   izeta = 2
                 rmatch =    2.160663
              splitnorm =    0.280000
                 energy =   -0.068760
                kinetic =    9.183374
    potential(screened) =   -9.252135
       potential(ionic) =  -18.274251

POLgen: Perturbative polarization orbital with L=  2

POLgen: Polarization orbital for state 2p

   izeta = 1
                     rc =    5.314825
                 energy =    1.970580
                kinetic =    3.886128
    potential(screened) =   -1.915547
       potential(ionic) =   -7.749584
atom: Total number of Sankey-type orbitals: 13

atm_pop: Valence configuration (for local Pseudopot. screening):
 2s( 2.00)                                                            
 2p( 4.00)                                                            
Vna: chval, zval:    6.00000   6.00000

Vna:  Cut-off radius for the neutral-atom potential:   5.314825

atom: _________________________________________________________________________

prinput: Basis input ----------------------------------------------------------

PAO.BasisType split     

%block ChemicalSpeciesLabel
    1    1 H                       # Species index, atomic number, species label
    2    7 N                       # Species index, atomic number, species label
    3   14 Si                      # Species index, atomic number, species label
    4    8 O                       # Species index, atomic number, species label
%endblock ChemicalSpeciesLabel

%block PAO.Basis                 # Define Basis set
H                     1                    # Species label, number of l-shells
 n=1   0   2 P   1                   # n, l, Nzeta, Polarization, NzetaPol
   6.518      2.141   
   1.000      1.000   
N                     2                    # Species label, number of l-shells
 n=2   0   2                         # n, l, Nzeta 
   4.730      2.532   
   1.000      1.000   
 n=2   1   2 P   1                   # n, l, Nzeta, Polarization, NzetaPol
   5.924      2.532   
   1.000      1.000   
Si                    2                    # Species label, number of l-shells
 n=3   0   2                         # n, l, Nzeta 
   6.430      3.998   
   1.000      1.000   
 n=3   1   2 P   1                   # n, l, Nzeta, Polarization, NzetaPol
   8.465      4.588   
   1.000      1.000   
O                     2                    # Species label, number of l-shells
 n=2   0   2                         # n, l, Nzeta 
   4.244      2.188   
   1.000      1.000   
 n=2   1   2 P   1                   # n, l, Nzeta, Polarization, NzetaPol
   5.315      2.161   
   1.000      1.000   
%endblock PAO.Basis

prinput: ----------------------------------------------------------------------

Dumping basis to NetCDF file H.ion.nc
Dumping basis to NetCDF file N.ion.nc
Dumping basis to NetCDF file Si.ion.nc
Dumping basis to NetCDF file O.ion.nc
coor:   Atomic-coordinates input format  =     Cartesian coordinates
coor:                                          (in Angstroms)

siesta: Atomic coordinates (Bohr) and species
siesta:      4.31792  -9.81768   0.00000  1        1
siesta:      2.59711  -8.81503   0.00000  2        2
siesta:     -0.41253 -10.38326   0.00000  3        3
siesta:     -0.33040 -13.20006   0.00000  1        4
siesta:     -3.14019  -8.66630   0.00000  2        5
siesta:     -2.06030  -5.43214   0.00000  3        6
siesta:     -2.89201  -1.33728   0.00000  3        7
siesta:     -5.94160  -0.17360   0.00000  2        8
siesta:     -6.43014   1.81127   0.00000  1        9
siesta:     -7.46581  -1.44982   0.00000  1       10
siesta:     -0.33706   0.78140   0.00000  2       11
siesta:      2.82552  -0.08957   0.00000  3       12
siesta:      4.64124   2.09244   0.00000  1       13
siesta:      4.35491  -2.99662   0.00000  2       14
siesta:      2.09241  -5.37836   0.00000  3       15
siesta:      0.92541  15.35300   0.00000  1       16
siesta:     -0.60283  14.04492   0.00000  2       17
siesta:     -3.73334  15.39253   0.00000  3       18
siesta:     -3.55029  18.24738   0.00000  1       19
siesta:     -6.99530  12.85453   0.00000  3       20
siesta:    -11.44458  12.83944   0.00000  3       21
siesta:    -12.50739  14.22742  -2.27113  1       22
siesta:    -12.01114  10.04436  -0.16286  1       23
siesta:    -12.50761  13.90682   2.43425  1       24
siesta:     -5.23901   8.94172   0.00000  3       25
siesta:     -7.03324   6.50674   0.00000  4       26
siesta:     -1.85461   8.61341   0.00000  2       27
siesta:     -1.22913   6.66253   0.00000  1       28
siesta:      0.61802  10.87077   0.00000  3       29
siesta:      3.57721  10.36575   0.00000  4       30

siesta: System type = molecule  

initatomlists: Number of atoms, orbitals, and projectors:     30   302   403

siesta: ******************** Simulation parameters ****************************
siesta:
siesta: The following are some of the parameters of the simulation.
siesta: A complete list of the parameters used, including default values,
siesta: can be found in file out.fdf
siesta:
redata: Spin configuration                          = spin-orbit
redata: Number of spin components                   = 8
redata: Time-Reversal Symmetry                      = F
redata: Spin spiral                                 = F
############################################################
This spin-orbit implementation uses a local approximation.
From 4.2 and onwards the full non-local approximation is implemented
You are strongly advised to use >=4.2 versions!
############################################################
redata: Long output                                 =   F
redata: Number of Atomic Species                    =        4
redata: Charge density info will appear in .RHO file
redata: Write Mulliken Pop.                         = NO
redata: Matel table size (NRTAB)                    =     1024
redata: Mesh Cutoff                                 =   340.0000 Ry
redata: Net charge of the system                    =     0.0000 |e|
redata: Min. number of SCF Iter                     =        1
redata: Max. number of SCF Iter                     =      200
redata: SCF mix quantity                            = Hamiltonian
redata: Mix DM or H after convergence               =   F
redata: Recompute H after scf cycle                 =   F
redata: Mix DM in first SCF step                    =   T
redata: Write Pulay info on disk                    =   F
redata: New DM Occupancy tolerance                  = 0.000000000001
redata: No kicks to SCF
redata: DM Mixing Weight for Kicks                  =     0.5000
redata: Require Harris convergence for SCF          =   F
redata: Harris energy tolerance for SCF             =     0.000100 eV
redata: Require DM convergence for SCF              =   T
redata: DM tolerance for SCF                        =     0.000008
redata: Require EDM convergence for SCF             =   F
redata: EDM tolerance for SCF                       =     0.001000 eV
redata: Require H convergence for SCF               =   T
redata: Hamiltonian tolerance for SCF               =     0.000001 eV
redata: Require (free) Energy convergence for SCF   =   F
redata: (free) Energy tolerance for SCF             =     0.000100 eV
redata: Using Saved Data (generic)                  =   F
redata: Use continuation files for DM               =   T
redata: Neglect nonoverlap interactions             =   F
redata: Method of Calculation                       = Diagonalization
redata: Electronic Temperature                      =   299.9978 K
redata: Fix the spin of the system                  =   F
redata: Dynamics option                             = Verlet MD run
redata: Initial MD time step                        =        1
redata:   Final MD time step                        =        1
redata: Length of MD time step                      =     0.5000 fs
redata: Initial Temperature of MD run               =     0.0000 K
redata: Perform a MD quench                         =   F
mix.SCF: Pulay mixing                            = Pulay
mix.SCF:    Variant                              = stable
mix.SCF:    History steps                        = 6
mix.SCF:    Linear mixing weight                 =     0.250000
mix.SCF:    Mixing weight                        =     0.250000
mix.SCF:    SVD condition                        = 0.1000E-07
mix.SCF:    Restart steps                        = 24
mix.SCF:    Restart save steps                   = 3
mix.SCF: Spin-component mixing                   all
redata: Save all siesta data in one NC              =   F
redata: ***********************************************************************

%block SCF.Mixers
  Pulay
%endblock SCF.Mixers

%block SCF.Mixer.Pulay
  # Mixing method
  method pulay
  variant stable

  # Mixing options
  weight 0.2500
  weight.linear 0.2500
  history 6
  restart 24
  restart.save 3
%endblock SCF.Mixer.Pulay

Size of DM history Fstack: 3
Total number of electrons:    98.000000
Total ionic charge:    98.000000

* ProcessorY, Blocksize:    2  24


* Orbital distribution balance (max,min):    48    24


Time-reversal symmetry not used.

siesta: k-grid: Number of k-points =     1
siesta: k-grid: Cutoff (effective) =     5.000 Ang
siesta: k-grid: Supercell and displacements
siesta: k-grid:    1   0   0      0.000
siesta: k-grid:    0   1   0      0.000
siesta: k-grid:    0   0   1      0.000

diag: Algorithm                                     = ELPA-1stage
diag: Parallel over k                               =   F
diag: Use parallel 2D distribution                  =   T
diag: Parallel block-size                           = 24
diag: Parallel distribution                         =     2 x     4
diag: Used triangular part                          = Lower
diag: Absolute tolerance                            =  0.100E-15
diag: Orthogonalization factor                      =  0.100E-05
diag: Memory factor                                 =  1.0000


ts: **************************************************************
ts: Save H and S matrices                           =    F
ts: Save DM and EDM matrices                        =    F
ts: Only save the overlap matrix S                  =    F
ts: **************************************************************

************************ Begin: TS CHECKS AND WARNINGS ************************
************************ End: TS CHECKS AND WARNINGS **************************


                     ====================================
                        Begin MD step =      1
                     ====================================

outcoor: Atomic coordinates (Ang):                          
    2.28494382   -5.19529124    0.00000000   1       1  H
    1.37433094   -4.66471070    0.00000000   2       2  N
   -0.21830245   -5.49458215    0.00000000   3       3  Si
   -0.17484108   -6.98516892    0.00000000   1       4  H
   -1.66171682   -4.58600741    0.00000000   2       5  N
   -1.09026419   -2.87456374    0.00000000   3       6  Si
   -1.53038332   -0.70765692    0.00000000   3       7  Si
   -3.14415959   -0.09186471    0.00000000   2       8  N
   -3.40268075    0.95848335    0.00000000   1       9  H
   -3.95073599   -0.76720972    0.00000000   1      10  H
   -0.17836637    0.41349951    0.00000000   2      11  N
    1.49520211   -0.04739960    0.00000000   3      12  Si
    2.45603905    1.10727302    0.00000000   1      13  H
    2.30451743   -1.58574382    0.00000000   2      14  N
    1.10725559   -2.84610319    0.00000000   3      15  Si
    0.48970463    8.12445656    0.00000000   1      16  H
   -0.31900605    7.43225068    0.00000000   2      17  N
   -1.97559589    8.14537078    0.00000000   3      18  Si
   -1.87873072    9.65609599    0.00000000   1      19  H
   -3.70175224    6.80232265    0.00000000   3      20  Si
   -6.05620649    6.79433572    0.00000000   3      21  Si
   -6.61862461    7.52882537   -1.20183078   1      22  H
   -6.35602024    5.31524459   -0.08618332   1      23  H
   -6.61873707    7.35916818    1.28814761   1      24  H
   -2.77236160    4.73175142    0.00000000   3      25  Si
   -3.72182996    3.44321529    0.00000000   4      26  O
   -0.98141673    4.55801595    0.00000000   2      27  N
   -0.65042537    3.52565897    0.00000000   1      28  H
    0.32704149    5.75256237    0.00000000   3      29  Si
    1.89297842    5.48531552    0.00000000   4      30  O

outcell: Unit cell vectors (Ang):
       30.000000    0.000000    0.000000
        0.000000   45.000000    0.000000
        0.000000    0.000000   10.000000

outcell: Cell vector modules (Ang)   :   30.000000   45.000000   10.000000
outcell: Cell angles (23,13,12) (deg):     90.0000     90.0000     90.0000
outcell: Cell volume (Ang**3)        :  13500.0000
<dSpData1D:S at geom step 1
  <sparsity:sparsity for geom step 1
    nrows_g=302 nrows=48 sparsity=.0904 nnzs=8243, refcount: 8>
  <dData1D:(new from dSpData1D) n=8243, refcount: 1>
refcount: 1>
new_DM -- step:     1
Initializing Density Matrix...

Attempting to read DM from file... Failed...
DM filled with atomic data:
<dSpData2D:DM initialized from atoms
  <sparsity:sparsity for geom step 1
    nrows_g=302 nrows=48 sparsity=.0904 nnzs=8243, refcount: 9>
  <dData2D:DM n=8243 m=8, refcount: 1>
refcount: 1>
     spin moment: S , {S} =   56.00000   0.00000   0.00000  56.00000
No. of atoms with KB's overlaping orbs in proc 0. Max # of overlaps:      27     172

Initializing spin-orbit part of the Hamiltonian
  Adding spin-orbit effects for H 
  Adding spin-orbit effects for N 
  Adding spin-orbit effects for Si
  Adding spin-orbit effects for O 


New grid distribution:   1
           1       1:  180    1:  125    1:   15
           2       1:  180    1:  125   16:   30
           3       1:  180    1:  125   31:   45
           4       1:  180    1:  125   46:   60
           5       1:  180  126:  250    1:   15
           6       1:  180  126:  250   16:   30
           7       1:  180  126:  250   31:   45
           8       1:  180  126:  250   46:   60

InitMesh: MESH =   360 x   500 x   120 =    21600000
InitMesh: (bp) =   180 x   250 x    60 =     2700000
InitMesh: Mesh cutoff (required, used) =   340.000   341.206 Ry
ExtMesh (bp) on 0 =   288 x   225 x   123 =     7970400
New grid distribution:   2
           1     153:  180   45:  229    1:   60
           2       1:  159    1:   28    1:   60
           3       1:  159   29:   44    1:   60
           4     160:  180    1:   26    1:   60
           5       1:  152   45:  231    1:   60
           6       1:  152  232:  250    1:   60
           7     153:  180  230:  250    1:   60
           8     160:  180   27:   44    1:   60
New grid distribution:   3
           1     147:  180   51:  219    1:   60
           2       1:  141    1:   28    1:   60
           3       1:  141   29:   50    1:   60
           4     142:  180    1:   27    1:   60
           5       1:  146   51:  222    1:   60
           6       1:  146  223:  250    1:   60
           7     147:  180  220:  250    1:   60
           8     142:  180   28:   50    1:   60
Setting up quadratic distribution...
ExtMesh (bp) on 0 =   136 x   285 x   168 =     6511680
PhiOnMesh: Number of (b)points on node 0 =               310800
PhiOnMesh: nlist on node 0 =              1593701

stepf: Fermi-Dirac step function

siesta: Program's energy decomposition (eV):
siesta: Ebs     =      -614.400507
siesta: Eions   =      3553.971015
siesta: Ena     =       374.950779
siesta: Ekin    =      3168.346877
siesta: Enl     =     -2982.161503
siesta: Eso     =        -0.003896
siesta: Edftu   =         0.000000
siesta: DEna    =       129.531137
siesta: DUscf   =        74.458934
siesta: DUext   =         0.000000
siesta: Exc     =     -1168.041911
siesta: eta*DQ  =         0.000000
siesta: Emadel  =         0.000000
siesta: Emeta   =         0.000000
siesta: Emolmec =         0.000000
siesta: Ekinion =         0.000000
siesta: Eharris =     -3887.888463
siesta: Etot    =     -3956.890597
siesta: FreeEng =     -3956.893905

        iscf     Eharris(eV)        E_KS(eV)     FreeEng(eV)     dDmax    Ef(eV) dHmax(eV)
   scf:    1    -3887.888463    -3956.890597    -3956.893905  0.969975 -4.935641 21.184542
     spin moment: S , {S} =    2.02352  -0.00000  -0.00000   2.02352
timer: Routine,Calls,Time,% = IterSCF        1      11.178  33.22
   scf:    2    -3997.675820    -3989.790521    -3989.790527  0.464584 -4.225847 10.852118
     spin moment: S , {S} =    2.00009   0.00000  -0.00000   2.00009
   scf:    3    -3961.977379    -3986.944883    -3986.985693  0.426136 -4.122150 11.804390
     spin moment: S , {S} =    1.83398  -0.00000  -0.00000   1.83398
   scf:    4    -4002.740513    -3997.684621    -3997.684624  0.229951 -3.850472  4.663787
     spin moment: S , {S} =    0.00011  -0.00000   0.00000   0.00011
   scf:    5    -3999.024545    -3998.418569    -3998.418569  0.035703 -3.728959  2.860676
     spin moment: S , {S} =    0.00006  -0.00000   0.00000   0.00006
   scf:    6    -3999.240747    -3998.826379    -3998.826379  0.028696 -3.698941  1.455170
     spin moment: S , {S} =    0.00003  -0.00000   0.00000   0.00003
   scf:    7    -3999.206368    -3999.011114    -3999.011114  0.022565 -3.756154  0.766806
     spin moment: S , {S} =    0.00001  -0.00000   0.00000   0.00001
   scf:    8    -3999.136115    -3999.071696    -3999.071696  0.011999 -3.794556  0.492973
     spin moment: S , {S} =    0.00000  -0.00000   0.00000   0.00000
   scf:    9    -3999.119948    -3999.094871    -3999.094871  0.006896 -3.809378  0.381022
     spin moment: S , {S} =    0.00000  -0.00000   0.00000   0.00000
   scf:   10    -3999.155202    -3999.117575    -3999.117584  0.021465 -3.838439  0.166196
     spin moment: S , {S} =    0.00002  -0.00000  -0.00000  -0.00002
   scf:   11    -3999.120856    -3999.119307    -3999.119319  0.003818 -3.827090  0.056611
     spin moment: S , {S} =    0.00000  -0.00000  -0.00000  -0.00000
   scf:   12    -3999.120064    -3999.119701    -3999.119714  0.001331 -3.823958  0.031878
     spin moment: S , {S} =    0.00000  -0.00000  -0.00000   0.00000
   scf:   13    -3999.120154    -3999.119926    -3999.119940  0.001080 -3.821624  0.016570
     spin moment: S , {S} =    0.00000  -0.00000  -0.00000   0.00000
   scf:   14    -3999.120138    -3999.120028    -3999.120042  0.000959 -3.820699  0.011903
     spin moment: S , {S} =    0.00000  -0.00000  -0.00000   0.00000
   scf:   15    -3999.120182    -3999.120099    -3999.120114  0.001123 -3.820231  0.009520
     spin moment: S , {S} =    0.00000  -0.00000  -0.00000   0.00000
   scf:   16    -3999.120182    -3999.120136    -3999.120151  0.000970 -3.820123  0.006007
     spin moment: S , {S} =    0.00000  -0.00000  -0.00000   0.00000
   scf:   17    -3999.120160    -3999.120147    -3999.120162  0.000503 -3.820241  0.004817
     spin moment: S , {S} =    0.00000  -0.00000  -0.00000   0.00000
   scf:   18    -3999.120162    -3999.120153    -3999.120168  0.000513 -3.820338  0.002402
     spin moment: S , {S} =    0.00000   0.00000  -0.00000  -0.00000
   scf:   19    -3999.120158    -3999.120155    -3999.120170  0.000290 -3.820354  0.001311
     spin moment: S , {S} =    0.00000   0.00000  -0.00000  -0.00000
   scf:   20    -3999.120156    -3999.120156    -3999.120170  0.000100 -3.820365  0.000888
     spin moment: S , {S} =    0.00000   0.00000  -0.00000  -0.00000
   scf:   21    -3999.120156    -3999.120156    -3999.120171  0.000104 -3.820355  0.000465
     spin moment: S , {S} =    0.00000   0.00000   0.00000  -0.00000
   scf:   22    -3999.120156    -3999.120156    -3999.120171  0.000082 -3.820359  0.000159
     spin moment: S , {S} =    0.00000   0.00000   0.00000  -0.00000
   scf:   23    -3999.120156    -3999.120156    -3999.120171  0.000021 -3.820361  0.000088
     spin moment: S , {S} =    0.00000   0.00000   0.00000  -0.00000
   scf:   24    -3999.120156    -3999.120156    -3999.120171  0.000007 -3.820362  0.000055
     spin moment: S , {S} =    0.00000  -0.00000   0.00000  -0.00000
mix: Pulay -- resetting history
   scf:   25    -3999.120156    -3999.120156    -3999.120171  0.000003 -3.820361  0.000036
     spin moment: S , {S} =    0.00000  -0.00000   0.00000  -0.00000
   scf:   26    -3999.120156    -3999.120156    -3999.120171  0.000002 -3.820360  0.000024
     spin moment: S , {S} =    0.00000  -0.00000   0.00000  -0.00000
   scf:   27    -3999.120156    -3999.120156    -3999.120171  0.000002 -3.820360  0.000013
     spin moment: S , {S} =    0.00000  -0.00000   0.00000  -0.00000
   scf:   28    -3999.120156    -3999.120156    -3999.120171  0.000001 -3.820360  0.000006
     spin moment: S , {S} =    0.00000  -0.00000   0.00000  -0.00000
   scf:   29    -3999.120156    -3999.120156    -3999.120171  0.000000 -3.820360  0.000004
     spin moment: S , {S} =    0.00000  -0.00000   0.00000   0.00000
   scf:   30    -3999.120156    -3999.120156    -3999.120171  0.000001 -3.820360  0.000002
     spin moment: S , {S} =    0.00000  -0.00000   0.00000   0.00000
   scf:   31    -3999.120156    -3999.120156    -3999.120171  0.000000 -3.820360  0.000001
     spin moment: S , {S} =    0.00000  -0.00000  -0.00000   0.00000
   scf:   32    -3999.120156    -3999.120156    -3999.120171  0.000000 -3.820360  0.000001
     spin moment: S , {S} =    0.00000  -0.00000   0.00000   0.00000

SCF Convergence by DM+H criterion
max |DM_out - DM_in|         :     0.0000001124
max |H_out - H_in|      (eV) :     0.0000007508
SCF cycle converged after 32 iterations

Using DM_out to compute the final energy and forces
No. of atoms with KB's overlaping orbs in proc 0. Max # of overlaps:      27     172

siesta: E_KS(eV) =            -3999.1202

siesta: E_KS - E_eggbox =     -3999.1202
     spin moment: S , {S} =    0.00000  -0.00000   0.00000   0.00000

siesta: Atomic forces (eV/Ang):
     1    0.142479   -0.031366   -0.000000
     2   -0.024794    0.037240   -0.000000
     3   -0.022946   -0.016522    0.000000
     4    0.067585   -0.134139    0.000000
     5    0.047230    0.011908   -0.000000
     6   -0.129578    0.013016   -0.000001
     7    0.713585   -0.003133   -0.000004
     8   -0.493227    1.274520    0.000012
     9    0.105847   -0.662610   -0.000026
    10   -0.085339    0.105831    0.000002
    11   -0.115774   -0.206044    0.000004
    12   -0.191126    0.022377    0.000000
    13   -0.124951   -0.041626    0.000000
    14    0.018383   -0.071613   -0.000000
    15    0.073273    0.061633    0.000001
    16   -0.057232   -0.130695   -0.000950
    17    0.006734   -0.045601   -0.000794
    18   -0.077649    0.021243    0.005294
    19    0.044452   -0.152515   -0.001475
    20    0.075217    0.052099   -0.001159
    21    0.058548   -0.013109   -0.006412
    22    0.072018    0.014911    0.116714
    23    0.102418    0.033333   -0.005083
    24    0.068047    0.065232   -0.093270
    25   -0.405857   -0.316613    0.001016
    26   -1.771772   -4.402510    0.000483
    27    0.227625   -0.381270   -0.000550
    28   -0.183892    0.470109   -0.000083
    29    0.138211    0.086590   -0.000198
    30    1.525449    1.314324    0.000239
----------------------------------------
   Tot   -0.197037   -3.024999    0.013759
----------------------------------------
   Max    4.402510
   Res    0.581858    sqrt( Sum f_i^2 / 3N )
----------------------------------------
   Max    4.402510    constrained

Stress tensor Voigt[x,y,z,yz,xz,xy] (kbar):        0.15        0.33       -0.01       -0.01        0.00        0.09
(Free)E + p*V (eV/cell)    -4000.4304
Target enthalpy (eV/cell)    -3999.1202

siesta: Stress tensor (static) (eV/Ang**3):
         0.000091    0.000056    0.000000
         0.000056    0.000209   -0.000004
         0.000000   -0.000004   -0.000009

siesta: Pressure (static):         -0.15550186  kBar

siesta: Stress tensor (total) (eV/Ang**3):
         0.000091    0.000056    0.000000
         0.000056    0.000209   -0.000004
         0.000000   -0.000004   -0.000009

siesta: Pressure (total):         -0.15550186  kBar

siesta: Temp_ion =       0.000 K

siesta: Eigenvalues (eV):
ik =     1
  -22.8282  -22.8282  -22.4819  -22.4819  -21.7258  -21.7258  -21.2323  -21.2323  -20.9339  -20.9339
  -20.6227  -20.6227  -19.3376  -19.3376  -19.1501  -19.1501  -18.5643  -18.5643  -15.0636  -15.0636
  -14.1438  -14.1438  -13.5472  -13.5472  -13.5322  -13.5322  -13.0923  -13.0923  -12.7962  -12.7962
  -12.3943  -12.3943  -11.9119  -11.9119  -11.8981  -11.8981  -11.4507  -11.4507  -11.4444  -11.4444
  -10.8164  -10.8164  -10.6235  -10.6235  -10.1129  -10.1129   -9.6227   -9.6227   -9.3636   -9.3636
   -9.1725   -9.1725   -9.0602   -9.0602   -9.0057   -9.0057   -8.7184   -8.7184   -8.6114   -8.6114
   -8.4125   -8.4125   -8.1651   -8.1651   -8.0463   -8.0463   -8.0080   -8.0080   -7.8902   -7.8902
   -7.8019   -7.8019   -7.2937   -7.2937   -7.2714   -7.2714   -7.2391   -7.2391   -6.8181   -6.8181
   -6.7678   -6.7678   -6.6973   -6.6973   -6.4433   -6.4433   -6.2944   -6.2944   -6.1420   -6.1420
   -5.7495   -5.7495   -5.7201   -5.7201   -5.4913   -5.4913   -4.1147   -4.1147   -3.5260   -3.5260
   -2.7310   -2.7310   -2.2415   -2.2415   -2.1455   -2.1455   -2.0792   -2.0792   -2.0223   -2.0223
   -1.8700   -1.8700   -1.6450   -1.6450   -1.6434   -1.6434   -1.4910   -1.4910   -1.3146   -1.3146
   -1.1489   -1.1489   -0.4174   -0.4174   -0.2478   -0.2478   -0.2018   -0.2018   -0.1248   -0.1248
   -0.0457   -0.0457    0.0127    0.0127    0.2268    0.2268    0.6066    0.6066    0.6579    0.6579
    0.6684    0.6684    0.8531    0.8531    1.2438    1.2438    1.3824    1.3824    1.4127    1.4127
    1.5355    1.5355    1.5882    1.5882    1.8291    1.8291    2.1617    2.1617    2.3060    2.3060
    2.5096    2.5096    2.7593    2.7593    2.8202    2.8202    2.9425    2.9425    3.1278    3.1278
    3.1389    3.1389    3.1477    3.1477    3.2250    3.2250    3.3274    3.3274    3.6332    3.6332
    3.8792    3.8792    3.9502    3.9502    4.1516    4.1516    4.3415    4.3415    4.3704    4.3704
    4.3946    4.3946    4.7410    4.7410    4.8468    4.8468    5.0475    5.0475    5.0652    5.0652
    5.1837    5.1837    5.4663    5.4663    5.5800    5.5800    5.6908    5.6908    5.8381    5.8381
    5.9685    5.9685    6.1246    6.1246    6.2601    6.2601    6.3705    6.3705    6.4102    6.4102
    6.6401    6.6401    6.7991    6.7991    6.9033    6.9033    7.1218    7.1218    7.3305    7.3305
    7.4382    7.4382    7.5981    7.5981    7.7796    7.7796    7.8325    7.8325    8.0837    8.0837
    8.1814    8.1814    8.3274    8.3274    8.4947    8.4947    8.6737    8.6737    8.7017    8.7017
    8.9773    8.9773    9.1372    9.1372    9.1959    9.1959    9.4098    9.4098    9.6655    9.6655
    9.8069    9.8069    9.8183    9.8183    9.9374    9.9374   10.0651   10.0651   10.1642   10.1642
   10.5182   10.5182   10.7173   10.7173   10.8231   10.8231   10.9474   10.9474   11.2183   11.2183
   11.3207   11.3207   11.6024   11.6024   11.7288   11.7288   11.8903   11.8903   11.9658   11.9658
   12.0102   12.0102   12.3591   12.3591   12.5192   12.5192   12.5507   12.5507   12.6707   12.6707
   12.9215   12.9215   13.0344   13.0344   13.3207   13.3207   13.5742   13.5742   13.5971   13.5971
   13.6392   13.6392   13.9658   13.9658   14.5561   14.5561   14.8937   14.8937   14.9589   14.9589
   15.0412   15.0412   15.1436   15.1436   15.2535   15.2535   16.0702   16.0702   16.5180   16.5180
   16.9307   16.9307   16.9850   16.9850   17.1065   17.1065   17.2696   17.2696   17.6956   17.6956
   18.2187   18.2187   18.4544   18.4544   18.7043   18.7043   18.8044   18.8044   18.9210   18.9210
   18.9926   18.9926   19.5981   19.5981   19.6815   19.6815   20.0387   20.0387   20.6990   20.6990
   20.8601   20.8601   21.3436   21.3436   21.6645   21.6645   21.7411   21.7411   22.3083   22.3083
   22.4101   22.4101   23.1450   23.1450   23.1856   23.1856   23.3095   23.3095   24.0658   24.0658
   24.6549   24.6549   24.8742   24.8742   25.0794   25.0794   25.8878   25.8878   25.9608   25.9608
   26.4091   26.4091   26.6611   26.6611   26.7821   26.7821   27.7307   27.7307   27.9513   27.9513
   28.4930   28.4930   29.0316   29.0316   29.5067   29.5067   30.6101   30.6101   30.9255   30.9255
   30.9322   30.9322   31.0196   31.0196   31.3261   31.3261   31.4685   31.4685   31.7522   31.7522
   31.9792   31.9792   32.1189   32.1189   32.4055   32.4055   33.4806   33.4806   33.7964   33.7964
   34.1369   34.1369   34.2299   34.2299   34.7064   34.7064   34.9386   34.9386   36.0324   36.0324
   36.0584   36.0584   36.5173   36.5173   37.2265   37.2265   37.2925   37.2925   38.0506   38.0506
   38.3087   38.3087   38.6066   38.6066   38.8287   38.8287   39.0610   39.0610   39.4288   39.4288
   40.3151   40.3151   40.3915   40.3915   41.0628   41.0628   41.2233   41.2233   41.5626   41.5626
   42.1236   42.1236   42.7793   42.7793   43.2412   43.2412   43.7217   43.7217   44.0114   44.0114
   44.8244   44.8244   45.1329   45.1329   45.3253   45.3253   45.4694   45.4694   45.9047   45.9047
   46.5591   46.5591   46.6094   46.6094   47.0507   47.0507   47.6481   47.6481   47.6599   47.6599
   48.1751   48.1751   48.7602   48.7602   49.3428   49.3428   49.5643   49.5643   50.0700   50.0700
   50.1172   50.1172   50.3858   50.3858   50.5981   50.5981   50.6104   50.6104   51.4095   51.4095
   51.8584   51.8584   53.2717   53.2717   53.8882   53.8882   54.1384   54.1384   54.6280   54.6280
   55.2676   55.2676   55.8254   55.8254   56.0572   56.0572   56.6688   56.6688   56.7266   56.7266
   58.0393   58.0393   58.8498   58.8498   59.0068   59.0068   60.6939   60.6939   60.7816   60.7816
   61.3260   61.3260   62.6616   62.6616   63.0067   63.0067   63.2823   63.2823   63.9312   63.9312
   65.6569   65.6569   65.8381   65.8381   67.3094   67.3094   67.7061   67.7061   68.7386   68.7386
   69.2792   69.2792   70.9865   70.9865   72.1747   72.1747   80.0356   80.0356   88.7624   88.7624
   93.0102   93.0102   93.5016   93.5016   95.4700   95.4700   97.0146   97.0146  100.3059  100.3059
  102.3107  102.3107  102.7944  102.7944  116.4531  116.4531  119.7248  119.7248  123.7731  123.7731
  133.8593  133.8593  141.2363  141.2363
siesta: Fermi energy =      -3.820360 eV

siesta: Program's energy decomposition (eV):
siesta: Ebs     =     -1107.250669
siesta: Eions   =      3553.971015
siesta: Ena     =       374.950779
siesta: Ekin    =      2743.210350
siesta: Enl     =     -2523.160816
siesta: Eso     =        -0.004672
siesta: Edftu   =         0.000000
siesta: DEna    =        37.049068
siesta: DUscf   =        13.767274
siesta: DUext   =         0.000000
siesta: Exc     =     -1090.961125
siesta: eta*DQ  =         0.000000
siesta: Emadel  =         0.000000
siesta: Emeta   =         0.000000
siesta: Emolmec =         0.000000
siesta: Ekinion =         0.000000
siesta: Eharris =     -3999.120156
siesta: Etot    =     -3999.120156
siesta: FreeEng =     -3999.120171

siesta: Final energy (eV):
siesta:  Band Struct. =   -1107.250669
siesta:       Kinetic =    2743.210350
siesta:       Hartree =   14069.763818
siesta:       Edftu   =       0.000000
siesta:       Eso     =      -0.004672
siesta:    Ext. field =       0.000000
siesta:   Exch.-corr. =   -1090.961125
siesta:  Ion-electron =  -30574.135510
siesta:       Ion-ion =   10853.006984
siesta:       Ekinion =       0.000000
siesta:         Total =   -3999.120156
siesta:         Fermi =      -3.820360

siesta: Atomic forces (eV/Ang):
siesta:      1    0.142479   -0.031366   -0.000000
siesta:      2   -0.024794    0.037240   -0.000000
siesta:      3   -0.022946   -0.016522    0.000000
siesta:      4    0.067585   -0.134139    0.000000
siesta:      5    0.047230    0.011908   -0.000000
siesta:      6   -0.129578    0.013016   -0.000001
siesta:      7    0.713585   -0.003133   -0.000004
siesta:      8   -0.493227    1.274520    0.000012
siesta:      9    0.105847   -0.662610   -0.000026
siesta:     10   -0.085339    0.105831    0.000002
siesta:     11   -0.115774   -0.206044    0.000004
siesta:     12   -0.191126    0.022377    0.000000
siesta:     13   -0.124951   -0.041626    0.000000
siesta:     14    0.018383   -0.071613   -0.000000
siesta:     15    0.073273    0.061633    0.000001
siesta:     16   -0.057232   -0.130695   -0.000950
siesta:     17    0.006734   -0.045601   -0.000794
siesta:     18   -0.077649    0.021243    0.005294
siesta:     19    0.044452   -0.152515   -0.001475
siesta:     20    0.075217    0.052099   -0.001159
siesta:     21    0.058548   -0.013109   -0.006412
siesta:     22    0.072018    0.014911    0.116714
siesta:     23    0.102418    0.033333   -0.005083
siesta:     24    0.068047    0.065232   -0.093270
siesta:     25   -0.405857   -0.316613    0.001016
siesta:     26   -1.771772   -4.402510    0.000483
siesta:     27    0.227625   -0.381270   -0.000550
siesta:     28   -0.183892    0.470109   -0.000083
siesta:     29    0.138211    0.086590   -0.000198
siesta:     30    1.525449    1.314324    0.000239
siesta: ----------------------------------------
siesta:    Tot   -0.197037   -3.024999    0.013759

siesta: Stress tensor (static) (eV/Ang**3):
siesta:     0.000091    0.000056    0.000000
siesta:     0.000056    0.000209   -0.000004
siesta:     0.000000   -0.000004   -0.000009

siesta: Cell volume =      13500.000000 Ang**3

siesta: Pressure (static):
siesta:                Solid            Molecule  Units
siesta:          -0.00000106         -0.00000201  Ry/Bohr**3
siesta:          -0.00009706         -0.00018475  eV/Ang**3
siesta:          -0.15550186         -0.29601208  kBar
(Free)E+ p_basis*V_orbitals  =       -3977.992086
(Free)Eharris+ p_basis*V_orbitals  =       -3977.992086
     spin moment: S , {S} =    0.00000  -0.00000   0.00000   0.00000

siesta: Electric dipole (a.u.)  =   -1.168969    1.749738   -0.001792
siesta: Electric dipole (Debye) =   -2.971224    4.447394   -0.004556

cite: Please see "AT.bib" for an exhaustive BiBTeX file.
cite: Please clearly indicate Siesta version in published work: v4.1.5-1-g384057250
cite: This calculation has made use of the following articles
cite: which are encouraged to be cited in a published work.
        Primary SIESTA paper
          DOI: www.doi.org/10.1088/0953-8984/14/11/302
        Spin-orbit coupling (on-site approximation)
          DOI: www.doi.org/10.1088/0953-8984/19/19/489001


WARNING: alloc-realloc-dealloc name mismatch
         Name: atomlist isa
         Size:              -120. Bytes
         Node:     0
         Subsequent mismatches will not be reported
>> End of run:   1-FEB-2024  18:39:28
Job completed
