Siesta Version  : v4.1.5-1-g384057250
Architecture    : gcc
Compiler version: GNU Fortran (Ubuntu 11.3.0-1ubuntu1~22.04) 11.3.0
Compiler flags  : mpifort -O2 -fPIC -ftree-vectorize -fallow-argument-mismatch
PP flags        : -DFC_HAVE_ABORT -DMPI -DSIESTA__FLOOK -DSIESTA__METIS -DSIESTA__MUMPS -DCDF -DNCDF -DNCDF_4 -DNCDF_PARALLEL -DSIESTA__MRRR -DSIESTA__ELPA
Libraries       : libncdf.a libfdict.a  -lflookall -ldl -lnetcdff -lnetcdf -lhdf5_hl -lhdf5 -lhdf5_fortran -lz -lscalapack-openmpi -lopenblas -lmetis -lzmumps -lcmumps -ldmumps -lmumps_common -lpord -lsmumps -lesmumps -lscotch -lscotcherr -fopenmp -lelpa
PARALLEL version
NetCDF support
NetCDF-4 support
NetCDF-4 MPI-IO support
METIS ordering support
Lua support

* Running on 4 nodes in parallel
>> Start of run:   4-JUL-2023   9:26:34

                           ***********************       
                           *  WELCOME TO SIESTA  *       
                           ***********************       

reinit: Reading from standard input
reinit: Dumped input in INPUT_TMP.20883
************************** Dump of input data file ****************************
SystemLabel      GC
NumberOfAtoms    29
NumberOfSpecies  4
%block ChemicalSpeciesLabel
    1    8  O
    2    7  N
    3   14  Si
    4    1  H
%endblock ChemicalSpeciesLabel
# Single point calculation
MD.TypeOfRun                CG
MD.Steps                    0
SCF.MustConverge            F # In case it does not. There can be 2 very close atoms
AtomicCoordinatesFormat NotScaledCartesianAng
%block AtomicCoordinatesAndAtomicSpecies
0.958671510    3.803529300    0.000000000       1
-3.038688210   0.998073330    0.000000000       2
2.066567750    1.099065770    0.000000000       2
1.029569860    -1.834680850   0.000000000       2
-2.108567660   -1.881798240   0.000000000       2
3.912411070    -1.180894430   0.000000000       2
-1.235636790   1.044983000    0.000000000       3
-0.501909240   -1.031832280   0.000000000       3
0.629463280    2.232755840    0.000000000       3
2.280054370    -0.658293540   0.000000000       3
-3.424812990   -0.662324160   0.000000000       3
2.965974160    1.682263990    0.000000000       4
-4.796229390   -1.238728480   0.000000000       4
4.096559410    -2.214148760   0.000000000       4
4.792108680    -0.529147250   0.000000000       4
-2.266861300   -2.922393730   0.000000000       4
4.593503863    4.890536633    0.000000000       3
6.518981613    6.082165963    0.000000000       3
6.054175223    2.155982263    0.000000000       3
8.125355143    4.603028853    0.000000000       3
4.695788403    3.181181943    0.000000000       2
3.014125773    5.560766123    0.000000000       2
7.707245123    2.871145943    0.000000000       2
6.827472433    7.546827323    0.000000000       4
9.617028053    4.803008313    0.000000000       4
2.829499333    6.595639853    0.000000000       4
2.122033983    4.889477393    0.000000000       4
6.044044623    0.557753743    0.000000000       1
8.483843503    2.149315743    0.000000000       4
%endblock AtomicCoordinatesAndAtomicSpecies
%include ../../../Defaults.fdf
************************** End of input data file *****************************

reinit: -----------------------------------------------------------------------
reinit: System Name: 
reinit: -----------------------------------------------------------------------
reinit: System Label: GC
reinit: -----------------------------------------------------------------------

initatom: Reading input for the pseudopotentials and atomic orbitals ----------
Species number:   1 Atomic number:    8 Label: O
Species number:   2 Atomic number:    7 Label: N
Species number:   3 Atomic number:   14 Label: Si
Species number:   4 Atomic number:    1 Label: H

Ground state valence configuration:   2s02  2p04
Reading pseudopotential information in formatted form from O.psf

Pseudopotential generated from a relativistic atomic calculation

Valence configuration for pseudopotential generation:
2s( 2.00) rc: 0.45
2p( 4.00) rc: 0.92
3d( 0.00) rc: 2.24
4f( 0.00) rc: 0.25
Ground state valence configuration:   2s02  2p03
Reading pseudopotential information in formatted form from N.psf

Pseudopotential generated from a relativistic atomic calculation

Valence configuration for pseudopotential generation:
2s( 2.00) rc: 0.94
2p( 3.00) rc: 0.59
3d( 0.00) rc: 3.46
4f( 0.00) rc: 2.47
Ground state valence configuration:   3s02  3p02
Reading pseudopotential information in formatted form from Si.psf

Pseudopotential generated from a relativistic atomic calculation

Valence configuration for pseudopotential generation:
3s( 2.00) rc: 1.67
3p( 2.00) rc: 2.04
3d( 0.00) rc: 2.89
4f( 0.00) rc: 2.49
Ground state valence configuration:   1s01
Reading pseudopotential information in formatted form from H.psf

Pseudopotential generated from a relativistic atomic calculation

Valence configuration for pseudopotential generation:
1s( 1.00) rc: 0.01
2p( 0.00) rc: 0.60
3d( 0.00) rc: 1.99
4f( 0.00) rc: 2.49
For O, standard SIESTA heuristics set lmxkb to 3
 (one more than the basis l, including polarization orbitals).
Use PS.lmax or PS.KBprojectors blocks to override.
For N, standard SIESTA heuristics set lmxkb to 3
 (one more than the basis l, including polarization orbitals).
Use PS.lmax or PS.KBprojectors blocks to override.
For Si, standard SIESTA heuristics set lmxkb to 3
 (one more than the basis l, including polarization orbitals).
Use PS.lmax or PS.KBprojectors blocks to override.
For H, standard SIESTA heuristics set lmxkb to 2
 (one more than the basis l, including polarization orbitals).
Use PS.lmax or PS.KBprojectors blocks to override.

<basis_specs>
===============================================================================
O                    Z=   8    Mass=  16.000        Charge= 0.17977+309
Lmxo=1 Lmxkb= 3    BasisType=split      Semic=F
L=0  Nsemic=0  Cnfigmx=2
          i=1  nzeta=2  polorb=0  (2s)
            splnorm:   0.28000    
               vcte:    0.0000    
               rinn:    0.0000    
               qcoe:    0.0000    
               qyuk:    0.0000    
               qwid:   0.10000E-01
                rcs:    0.0000      0.0000    
            lambdas:    1.0000      1.0000    
L=1  Nsemic=0  Cnfigmx=2
          i=1  nzeta=2  polorb=1  (2p)
            splnorm:   0.28000    
               vcte:    0.0000    
               rinn:    0.0000    
               qcoe:    0.0000    
               qyuk:    0.0000    
               qwid:   0.10000E-01
                rcs:    0.0000      0.0000    
            lambdas:    1.0000      1.0000    
-------------------------------------------------------------------------------
L=0  Nkbl=1  erefs: 0.17977+309
L=1  Nkbl=1  erefs: 0.17977+309
L=2  Nkbl=1  erefs: 0.17977+309
L=3  Nkbl=1  erefs: 0.17977+309
===============================================================================
</basis_specs>

atom: Called for O                     (Z =   8)

read_vps: Pseudopotential generation method:
read_vps: ATM4.2.7  Troullier-Martins                       
Valence charge for ps generation:    6.00000

xc_check: Exchange-correlation functional:
xc_check: GGA Perdew, Burke & Ernzerhof 1996
V l=0 = -2*Zval/r beyond r=  1.1000
V l=1 = -2*Zval/r beyond r=  1.1000
V l=2 = -2*Zval/r beyond r=  2.2154
V l=3 = -2*Zval/r beyond r=  1.1000
All V_l potentials equal beyond r=  2.2154
This should be close to max(r_c) in ps generation
All pots = -2*Zval/r beyond r=  2.2154

VLOCAL1: 99.0% of the norm of Vloc inside      8.845 Ry
VLOCAL1: 99.9% of the norm of Vloc inside     20.157 Ry
atom: Maximum radius for 4*pi*r*r*local-pseudopot. charge    2.67231
atom: Maximum radius for r*vlocal+2*Zval:    2.32897
GHOST: No ghost state for L =  0
GHOST: No ghost state for L =  1
GHOST: No ghost state for L =  2
GHOST: No ghost state for L =  3

KBgen: Kleinman-Bylander projectors: 
   l= 0   rc=  2.243238   el= -1.759686   Ekb=**********   kbcos= -0.171774
   l= 1   rc=  2.328968   el= -0.663873   Ekb=-14.506792   kbcos= -0.519897
   l= 2   rc=  2.573941   el=  0.002031   Ekb= -1.137373   kbcos= -0.019581
   l= 3   rc=  2.606321   el=  0.003153   Ekb= -1.013546   kbcos= -0.003122

KBgen: Total number of Kleinman-Bylander projectors:   16
atom: -------------------------------------------------------------------------

atom: SANKEY-TYPE ORBITALS:
atom: Selected multiple-zeta basis: split     

SPLIT: Orbitals with angular momentum L= 0

SPLIT: Basis orbitals for state 2s

SPLIT: PAO cut-off radius determined from an
SPLIT: energy shift=  0.002000 Ry

   izeta = 1
                 lambda =    1.000000
                     rc =    4.243912
                 energy =   -1.758270
                kinetic =    3.286084
    potential(screened) =   -5.044353
       potential(ionic) =  -12.921184

   izeta = 2
                 rmatch =    2.187845
              splitnorm =    0.280000
                 energy =   -0.885018
                kinetic =    8.134434
    potential(screened) =   -9.019452
       potential(ionic) =  -17.710645

SPLIT: Orbitals with angular momentum L= 1

SPLIT: Basis orbitals for state 2p

SPLIT: PAO cut-off radius determined from an
SPLIT: energy shift=  0.002000 Ry

   izeta = 1
                 lambda =    1.000000
                     rc =    5.314825
                 energy =   -0.661986
                kinetic =    4.917472
    potential(screened) =   -5.579458
       potential(ionic) =  -13.236259

   izeta = 2
                 rmatch =    2.160663
              splitnorm =    0.280000
                 energy =   -0.068760
                kinetic =    9.183374
    potential(screened) =   -9.252135
       potential(ionic) =  -18.274251

POLgen: Perturbative polarization orbital with L=  2

POLgen: Polarization orbital for state 2p

   izeta = 1
                     rc =    5.314825
                 energy =    1.970580
                kinetic =    3.886128
    potential(screened) =   -1.915547
       potential(ionic) =   -7.749584
atom: Total number of Sankey-type orbitals: 13

atm_pop: Valence configuration (for local Pseudopot. screening):
 2s( 2.00)                                                            
 2p( 4.00)                                                            
Vna: chval, zval:    6.00000   6.00000

Vna:  Cut-off radius for the neutral-atom potential:   5.314825

atom: _________________________________________________________________________

<basis_specs>
===============================================================================
N                    Z=   7    Mass=  14.010        Charge= 0.17977+309
Lmxo=1 Lmxkb= 3    BasisType=split      Semic=F
L=0  Nsemic=0  Cnfigmx=2
          i=1  nzeta=2  polorb=0  (2s)
            splnorm:   0.28000    
               vcte:    0.0000    
               rinn:    0.0000    
               qcoe:    0.0000    
               qyuk:    0.0000    
               qwid:   0.10000E-01
                rcs:    0.0000      0.0000    
            lambdas:    1.0000      1.0000    
L=1  Nsemic=0  Cnfigmx=2
          i=1  nzeta=2  polorb=1  (2p)
            splnorm:   0.28000    
               vcte:    0.0000    
               rinn:    0.0000    
               qcoe:    0.0000    
               qyuk:    0.0000    
               qwid:   0.10000E-01
                rcs:    0.0000      0.0000    
            lambdas:    1.0000      1.0000    
-------------------------------------------------------------------------------
L=0  Nkbl=1  erefs: 0.17977+309
L=1  Nkbl=1  erefs: 0.17977+309
L=2  Nkbl=1  erefs: 0.17977+309
L=3  Nkbl=1  erefs: 0.17977+309
===============================================================================
</basis_specs>

atom: Called for N                     (Z =   7)

read_vps: Pseudopotential generation method:
read_vps: ATM4.2.7  Troullier-Martins                       
Valence charge for ps generation:    5.00000

xc_check: Exchange-correlation functional:
xc_check: GGA Perdew, Burke & Ernzerhof 1996
V l=0 = -2*Zval/r beyond r=  1.2889
V l=1 = -2*Zval/r beyond r=  1.2889
V l=2 = -2*Zval/r beyond r=  3.4178
V l=3 = -2*Zval/r beyond r=  2.4084
All V_l potentials equal beyond r=  3.3753
This should be close to max(r_c) in ps generation
All pots = -2*Zval/r beyond r=  3.4178

VLOCAL1: 99.0% of the norm of Vloc inside      3.810 Ry
VLOCAL1: 99.9% of the norm of Vloc inside      8.683 Ry
atom: Maximum radius for 4*pi*r*r*local-pseudopot. charge    4.02088
atom: Maximum radius for r*vlocal+2*Zval:    3.54838
GHOST: No ghost state for L =  0
GHOST: No ghost state for L =  1
GHOST: No ghost state for L =  2
GHOST: No ghost state for L =  3

KBgen: Kleinman-Bylander projectors: 
   l= 0   rc=  3.417763   el= -1.365098   Ekb= -4.433130   kbcos= -0.707855
   l= 1   rc=  3.375302   el= -0.521201   Ekb=-13.264039   kbcos= -0.535594
   l= 2   rc=  3.872880   el=  0.001991   Ekb= -0.641094   kbcos= -0.062456
   l= 3   rc=  3.970931   el=  0.003093   Ekb= -0.474517   kbcos= -0.018236

KBgen: Total number of Kleinman-Bylander projectors:   16
atom: -------------------------------------------------------------------------

atom: SANKEY-TYPE ORBITALS:
atom: Selected multiple-zeta basis: split     

SPLIT: Orbitals with angular momentum L= 0

SPLIT: Basis orbitals for state 2s

SPLIT: PAO cut-off radius determined from an
SPLIT: energy shift=  0.002000 Ry

   izeta = 1
                 lambda =    1.000000
                     rc =    4.730425
                 energy =   -1.363399
                kinetic =    1.245246
    potential(screened) =   -2.608645
       potential(ionic) =   -8.121105

   izeta = 2
                 rmatch =    2.531849
              splitnorm =    0.280000
                 energy =   -0.959908
                kinetic =    2.409435
    potential(screened) =   -3.369343
       potential(ionic) =   -9.427975

SPLIT: Orbitals with angular momentum L= 1

SPLIT: Basis orbitals for state 2p

SPLIT: PAO cut-off radius determined from an
SPLIT: energy shift=  0.002000 Ry

   izeta = 1
                 lambda =    1.000000
                     rc =    5.924108
                 energy =   -0.519262
                kinetic =    3.672940
    potential(screened) =   -4.192202
       potential(ionic) =   -9.518354

   izeta = 2
                 rmatch =    2.531849
              splitnorm =    0.280000
                 energy =   -0.104258
                kinetic =    6.807538
    potential(screened) =   -6.911796
       potential(ionic) =  -13.149920

POLgen: Perturbative polarization orbital with L=  2

POLgen: Polarization orbital for state 2p

   izeta = 1
                     rc =    5.924108
                 energy =    1.427508
                kinetic =    2.872379
    potential(screened) =   -1.444871
       potential(ionic) =   -5.563644
atom: Total number of Sankey-type orbitals: 13

atm_pop: Valence configuration (for local Pseudopot. screening):
 2s( 2.00)                                                            
 2p( 3.00)                                                            
Vna: chval, zval:    5.00000   5.00000

Vna:  Cut-off radius for the neutral-atom potential:   5.924108

atom: _________________________________________________________________________

<basis_specs>
===============================================================================
Si                   Z=  14    Mass=  28.090        Charge= 0.17977+309
Lmxo=1 Lmxkb= 3    BasisType=split      Semic=F
L=0  Nsemic=0  Cnfigmx=3
          i=1  nzeta=2  polorb=0  (3s)
            splnorm:   0.28000    
               vcte:    0.0000    
               rinn:    0.0000    
               qcoe:    0.0000    
               qyuk:    0.0000    
               qwid:   0.10000E-01
                rcs:    0.0000      0.0000    
            lambdas:    1.0000      1.0000    
L=1  Nsemic=0  Cnfigmx=3
          i=1  nzeta=2  polorb=1  (3p)
            splnorm:   0.28000    
               vcte:    0.0000    
               rinn:    0.0000    
               qcoe:    0.0000    
               qyuk:    0.0000    
               qwid:   0.10000E-01
                rcs:    0.0000      0.0000    
            lambdas:    1.0000      1.0000    
-------------------------------------------------------------------------------
L=0  Nkbl=1  erefs: 0.17977+309
L=1  Nkbl=1  erefs: 0.17977+309
L=2  Nkbl=1  erefs: 0.17977+309
L=3  Nkbl=1  erefs: 0.17977+309
===============================================================================
</basis_specs>

atom: Called for Si                    (Z =  14)

read_vps: Pseudopotential generation method:
read_vps: ATM4.2.7  Troullier-Martins                       
Valence charge for ps generation:    4.00000

xc_check: Exchange-correlation functional:
xc_check: GGA Perdew, Burke & Ernzerhof 1996
V l=0 = -2*Zval/r beyond r=  2.7826
V l=1 = -2*Zval/r beyond r=  2.7826
V l=2 = -2*Zval/r beyond r=  2.9253
V l=3 = -2*Zval/r beyond r=  2.7826
All V_l potentials equal beyond r=  2.8530
This should be close to max(r_c) in ps generation
All pots = -2*Zval/r beyond r=  2.9253

VLOCAL1: 99.0% of the norm of Vloc inside      5.333 Ry
VLOCAL1: 99.9% of the norm of Vloc inside     12.154 Ry
atom: Maximum radius for 4*pi*r*r*local-pseudopot. charge    3.39869
atom: Maximum radius for r*vlocal+2*Zval:    2.96205
GHOST: No ghost state for L =  0
GHOST: No ghost state for L =  1
GHOST: No ghost state for L =  2
GHOST: No ghost state for L =  3

KBgen: Kleinman-Bylander projectors: 
   l= 0   rc=  3.075247   el= -0.794092   Ekb=  5.879390   kbcos=  0.167461
   l= 1   rc=  3.153101   el= -0.300068   Ekb=  2.642817   kbcos=  0.058301
   l= 2   rc=  3.273594   el=  0.001958   Ekb= -1.185135   kbcos= -0.104411
   l= 3   rc=  3.232927   el=  0.003046   Ekb= -0.497174   kbcos= -0.015889

KBgen: Total number of Kleinman-Bylander projectors:   16
atom: -------------------------------------------------------------------------

atom: SANKEY-TYPE ORBITALS:
atom: Selected multiple-zeta basis: split     

SPLIT: Orbitals with angular momentum L= 0

SPLIT: Basis orbitals for state 3s

SPLIT: PAO cut-off radius determined from an
SPLIT: energy shift=  0.002000 Ry

   izeta = 1
                 lambda =    1.000000
                     rc =    6.429618
                 energy =   -0.792283
                kinetic =    0.525293
    potential(screened) =   -1.317576
       potential(ionic) =   -3.744923

   izeta = 2
                 rmatch =    3.998416
              splitnorm =    0.280000
                 energy =   -0.583081
                kinetic =    1.069570
    potential(screened) =   -1.652651
       potential(ionic) =   -4.235185

SPLIT: Orbitals with angular momentum L= 1

SPLIT: Basis orbitals for state 3p

SPLIT: PAO cut-off radius determined from an
SPLIT: energy shift=  0.002000 Ry

   izeta = 1
                 lambda =    1.000000
                     rc =    8.464845
                 energy =   -0.298236
                kinetic =    0.785360
    potential(screened) =   -1.083596
       potential(ionic) =   -3.273779

   izeta = 2
                 rmatch =    4.587816
              splitnorm =    0.280000
                 energy =   -0.131871
                kinetic =    1.403687
    potential(screened) =   -1.535557
       potential(ionic) =   -4.015310

POLgen: Perturbative polarization orbital with L=  2

POLgen: Polarization orbital for state 3p

   izeta = 1
                     rc =    8.464845
                 energy =    0.321949
                kinetic =    1.055677
    potential(screened) =   -0.733728
       potential(ionic) =   -2.672950
atom: Total number of Sankey-type orbitals: 13

atm_pop: Valence configuration (for local Pseudopot. screening):
 3s( 2.00)                                                            
 3p( 2.00)                                                            
Vna: chval, zval:    4.00000   4.00000

Vna:  Cut-off radius for the neutral-atom potential:   8.464845

atom: _________________________________________________________________________

<basis_specs>
===============================================================================
H                    Z=   1    Mass=  1.0100        Charge= 0.17977+309
Lmxo=0 Lmxkb= 2    BasisType=split      Semic=F
L=0  Nsemic=0  Cnfigmx=1
          i=1  nzeta=2  polorb=1  (1s)
            splnorm:   0.62000    
               vcte:    0.0000    
               rinn:    0.0000    
               qcoe:    0.0000    
               qyuk:    0.0000    
               qwid:   0.10000E-01
                rcs:    0.0000      0.0000    
            lambdas:    1.0000      1.0000    
-------------------------------------------------------------------------------
L=0  Nkbl=1  erefs: 0.17977+309
L=1  Nkbl=1  erefs: 0.17977+309
L=2  Nkbl=1  erefs: 0.17977+309
===============================================================================
</basis_specs>

atom: Called for H                     (Z =   1)

read_vps: Pseudopotential generation method:
read_vps: ATM4.2.7  Troullier-Martins                       
Valence charge for ps generation:    1.00000

xc_check: Exchange-correlation functional:
xc_check: GGA Perdew, Burke & Ernzerhof 1996
V l=0 = -2*Zval/r beyond r=  0.0098
V l=1 = -2*Zval/r beyond r=  0.5817
V l=2 = -2*Zval/r beyond r=  1.9372
All V_l potentials equal beyond r=  1.9372
This should be close to max(r_c) in ps generation
All pots = -2*Zval/r beyond r=  1.9372

VLOCAL1: 99.0% of the norm of Vloc inside     11.567 Ry
VLOCAL1: 99.9% of the norm of Vloc inside     26.362 Ry
atom: Maximum radius for 4*pi*r*r*local-pseudopot. charge    2.25106
atom: Maximum radius for r*vlocal+2*Zval:    1.91306
GHOST: No ghost state for L =  0
GHOST: No ghost state for L =  1
GHOST: No ghost state for L =  2

KBgen: Kleinman-Bylander projectors: 
   l= 0   rc=  2.036604   el= -0.477180   Ekb= -6.081590   kbcos= -0.277285
   l= 1   rc=  2.195416   el=  0.001076   Ekb= -0.926943   kbcos= -0.034643
   l= 2   rc=  2.251056   el=  0.002010   Ekb= -0.130941   kbcos= -0.009788

KBgen: Total number of Kleinman-Bylander projectors:    9
atom: -------------------------------------------------------------------------

atom: SANKEY-TYPE ORBITALS:
atom: Selected multiple-zeta basis: split     

SPLIT: Orbitals with angular momentum L= 0

SPLIT: Basis orbitals for state 1s

SPLIT: PAO cut-off radius determined from an
SPLIT: energy shift=  0.002000 Ry

   izeta = 1
                 lambda =    1.000000
                     rc =    6.518340
                 energy =   -0.475305
                kinetic =    0.912139
    potential(screened) =   -1.387444
       potential(ionic) =   -1.907295

   izeta = 2
                 rmatch =    2.141150
              splitnorm =    0.620000
                 energy =    0.566467
                kinetic =    3.772856
    potential(screened) =   -3.206389
       potential(ionic) =   -3.759093

POLgen: Perturbative polarization orbital with L=  1

POLgen: Polarization orbital for state 1s

   izeta = 1
                     rc =    6.518340
                 energy =    0.533861
                kinetic =    1.121086
    potential(screened) =   -0.587225
       potential(ionic) =   -1.053027
atom: Total number of Sankey-type orbitals:  5

atm_pop: Valence configuration (for local Pseudopot. screening):
 1s( 1.00)                                                            
Vna: chval, zval:    1.00000   1.00000

Vna:  Cut-off radius for the neutral-atom potential:   6.518340

atom: _________________________________________________________________________

prinput: Basis input ----------------------------------------------------------

PAO.BasisType split     

%block ChemicalSpeciesLabel
    1    8 O                       # Species index, atomic number, species label
    2    7 N                       # Species index, atomic number, species label
    3   14 Si                      # Species index, atomic number, species label
    4    1 H                       # Species index, atomic number, species label
%endblock ChemicalSpeciesLabel

%block PAO.Basis                 # Define Basis set
O                     2                    # Species label, number of l-shells
 n=2   0   2                         # n, l, Nzeta 
   4.244      2.188   
   1.000      1.000   
 n=2   1   2 P   1                   # n, l, Nzeta, Polarization, NzetaPol
   5.315      2.161   
   1.000      1.000   
N                     2                    # Species label, number of l-shells
 n=2   0   2                         # n, l, Nzeta 
   4.730      2.532   
   1.000      1.000   
 n=2   1   2 P   1                   # n, l, Nzeta, Polarization, NzetaPol
   5.924      2.532   
   1.000      1.000   
Si                    2                    # Species label, number of l-shells
 n=3   0   2                         # n, l, Nzeta 
   6.430      3.998   
   1.000      1.000   
 n=3   1   2 P   1                   # n, l, Nzeta, Polarization, NzetaPol
   8.465      4.588   
   1.000      1.000   
H                     1                    # Species label, number of l-shells
 n=1   0   2 P   1                   # n, l, Nzeta, Polarization, NzetaPol
   6.518      2.141   
   1.000      1.000   
%endblock PAO.Basis

prinput: ----------------------------------------------------------------------

Dumping basis to NetCDF file O.ion.nc
Dumping basis to NetCDF file N.ion.nc
Dumping basis to NetCDF file Si.ion.nc
Dumping basis to NetCDF file H.ion.nc
coor:   Atomic-coordinates input format  =     Cartesian coordinates
coor:                                          (in Angstroms)

siesta: Atomic coordinates (Bohr) and species
siesta:      1.81163   7.18763   0.00000  1        1
siesta:     -5.74229   1.88609   0.00000  2        2
siesta:      3.90525   2.07693   0.00000  2        3
siesta:      1.94561  -3.46705   0.00000  2        4
siesta:     -3.98462  -3.55608   0.00000  2        5
siesta:      7.39339  -2.23157   0.00000  2        6
siesta:     -2.33502   1.97473   0.00000  3        7
siesta:     -0.94847  -1.94988   0.00000  3        8
siesta:      1.18951   4.21930   0.00000  3        9
siesta:      4.30868  -1.24399   0.00000  3       10
siesta:     -6.47196  -1.25161   0.00000  3       11
siesta:      5.60488   3.17902   0.00000  4       12
siesta:     -9.06356  -2.34086   0.00000  4       13
siesta:      7.74138  -4.18414   0.00000  4       14
siesta:      9.05578  -0.99994   0.00000  4       15
siesta:     -4.28375  -5.52253   0.00000  4       16
siesta:      8.68047   9.24178   0.00000  3       17
siesta:     12.31909  11.49363   0.00000  3       18
siesta:     11.44074   4.07422   0.00000  3       19
siesta:     15.35470   8.69847   0.00000  3       20
siesta:      8.87376   6.01157   0.00000  2       21
siesta:      5.69587  10.50833   0.00000  2       22
siesta:     14.56459   5.42568   0.00000  2       23
siesta:     12.90206  14.26144   0.00000  4       24
siesta:     18.17356   9.07637   0.00000  4       25
siesta:      5.34698  12.46396   0.00000  4       26
siesta:      4.01006   9.23978   0.00000  4       27
siesta:     11.42159   1.05400   0.00000  1       28
siesta:     16.03215   4.06162   0.00000  4       29

siesta: Automatic unit cell vectors (Ang):
siesta:   23.443166    0.000000    0.000000
siesta:    0.000000   19.104726    0.000000
siesta:    0.000000    0.000000    9.854683

siesta: System type = molecule  

initatomlists: Number of atoms, orbitals, and projectors:     29   297   394

siesta: ******************** Simulation parameters ****************************
siesta:
siesta: The following are some of the parameters of the simulation.
siesta: A complete list of the parameters used, including default values,
siesta: can be found in file out.fdf
siesta:
redata: Spin configuration                          = spin-orbit
redata: Number of spin components                   = 8
redata: Time-Reversal Symmetry                      = F
redata: Spin spiral                                 = F
############################################################
This spin-orbit implementation uses a local approximation.
From 4.2 and onwards the full non-local approximation is implemented
You are strongly advised to use >=4.2 versions!
############################################################
redata: Long output                                 =   F
redata: Number of Atomic Species                    =        4
redata: Charge density info will appear in .RHO file
redata: Write Mulliken Pop.                         = Atomic and Orbital charges
redata: Matel table size (NRTAB)                    =     1024
redata: Mesh Cutoff                                 =   340.0000 Ry
redata: Net charge of the system                    =     0.0000 |e|
redata: Min. number of SCF Iter                     =        1
redata: Max. number of SCF Iter                     =      200
redata: SCF mix quantity                            = Hamiltonian
redata: Mix DM or H after convergence               =   F
redata: Recompute H after scf cycle                 =   F
redata: Mix DM in first SCF step                    =   T
redata: Write Pulay info on disk                    =   F
redata: New DM Occupancy tolerance                  = 0.000000000001
redata: No kicks to SCF
redata: DM Mixing Weight for Kicks                  =     0.5000
redata: Require Harris convergence for SCF          =   F
redata: Harris energy tolerance for SCF             =     0.000100 eV
redata: Require DM convergence for SCF              =   T
redata: DM tolerance for SCF                        =     0.000008
redata: Require EDM convergence for SCF             =   F
redata: EDM tolerance for SCF                       =     0.001000 eV
redata: Require H convergence for SCF               =   T
redata: Hamiltonian tolerance for SCF               =     0.000001 eV
redata: Require (free) Energy convergence for SCF   =   F
redata: (free) Energy tolerance for SCF             =     0.000100 eV
redata: Using Saved Data (generic)                  =   F
redata: Use continuation files for DM               =   F
redata: Neglect nonoverlap interactions             =   F
redata: Method of Calculation                       = Diagonalization
redata: Electronic Temperature                      =   299.9978 K
redata: Fix the spin of the system                  =   F
redata: Dynamics option                             = Single-point calculation
mix.SCF: Pulay mixing                            = Pulay
mix.SCF:    Variant                              = stable
mix.SCF:    History steps                        = 6
mix.SCF:    Linear mixing weight                 =     0.250000
mix.SCF:    Mixing weight                        =     0.250000
mix.SCF:    SVD condition                        = 0.1000E-07
mix.SCF:    Restart steps                        = 24
mix.SCF:    Restart save steps                   = 3
mix.SCF: Spin-component mixing                   all
redata: Save all siesta data in one NC              =   F
redata: ***********************************************************************

%block SCF.Mixers
  Pulay
%endblock SCF.Mixers

%block SCF.Mixer.Pulay
  # Mixing method
  method pulay
  variant stable

  # Mixing options
  weight 0.2500
  weight.linear 0.2500
  history 6
  restart 24
  restart.save 3
%endblock SCF.Mixer.Pulay

DM_history_depth set to one: no extrapolation allowed by default for geometry relaxation
Size of DM history Fstack: 1
Total number of electrons:    98.000000
Total ionic charge:    98.000000

* ProcessorY, Blocksize:    2  24


* Orbital distribution balance (max,min):    81    72


Time-reversal symmetry not used.

siesta: k-grid: Number of k-points =     1
siesta: k-grid: Cutoff (effective) =     4.927 Ang
siesta: k-grid: Supercell and displacements
siesta: k-grid:    1   0   0      0.000
siesta: k-grid:    0   1   0      0.000
siesta: k-grid:    0   0   1      0.000

diag: Algorithm                                     = ELPA-1stage
diag: Parallel over k                               =   F
diag: Use parallel 2D distribution                  =   T
diag: Parallel block-size                           = 24
diag: Parallel distribution                         =     2 x     2
diag: Used triangular part                          = Lower
diag: Absolute tolerance                            =  0.100E-15
diag: Orthogonalization factor                      =  0.100E-05
diag: Memory factor                                 =  1.0000


ts: **************************************************************
ts: Save H and S matrices                           =    F
ts: Save DM and EDM matrices                        =    F
ts: Only save the overlap matrix S                  =    F
ts: **************************************************************

************************ Begin: TS CHECKS AND WARNINGS ************************
************************ End: TS CHECKS AND WARNINGS **************************


                     ====================================
                        Single-point calculation
                     ====================================

outcoor: Atomic coordinates (Ang):                          
    0.95867151    3.80352930    0.00000000   1       1  O
   -3.03868821    0.99807333    0.00000000   2       2  N
    2.06656775    1.09906577    0.00000000   2       3  N
    1.02956986   -1.83468085    0.00000000   2       4  N
   -2.10856766   -1.88179824    0.00000000   2       5  N
    3.91241107   -1.18089443    0.00000000   2       6  N
   -1.23563679    1.04498300    0.00000000   3       7  Si
   -0.50190924   -1.03183228    0.00000000   3       8  Si
    0.62946328    2.23275584    0.00000000   3       9  Si
    2.28005437   -0.65829354    0.00000000   3      10  Si
   -3.42481299   -0.66232416    0.00000000   3      11  Si
    2.96597416    1.68226399    0.00000000   4      12  H
   -4.79622939   -1.23872848    0.00000000   4      13  H
    4.09655941   -2.21414876    0.00000000   4      14  H
    4.79210868   -0.52914725    0.00000000   4      15  H
   -2.26686130   -2.92239373    0.00000000   4      16  H
    4.59350386    4.89053663    0.00000000   3      17  Si
    6.51898161    6.08216596    0.00000000   3      18  Si
    6.05417522    2.15598226    0.00000000   3      19  Si
    8.12535514    4.60302885    0.00000000   3      20  Si
    4.69578840    3.18118194    0.00000000   2      21  N
    3.01412577    5.56076612    0.00000000   2      22  N
    7.70724512    2.87114594    0.00000000   2      23  N
    6.82747243    7.54682732    0.00000000   4      24  H
    9.61702805    4.80300831    0.00000000   4      25  H
    2.82949933    6.59563985    0.00000000   4      26  H
    2.12203398    4.88947739    0.00000000   4      27  H
    6.04404462    0.55775374    0.00000000   1      28  O
    8.48384350    2.14931574    0.00000000   4      29  H

outcell: Unit cell vectors (Ang):
       23.443166    0.000000    0.000000
        0.000000   19.104726    0.000000
        0.000000    0.000000    9.854683

outcell: Cell vector modules (Ang)   :   23.443166   19.104726    9.854683
outcell: Cell angles (23,13,12) (deg):     90.0000     90.0000     90.0000
outcell: Cell volume (Ang**3)        :   4413.6689
<dSpData1D:S at geom step 0
  <sparsity:sparsity for geom step 0
    nrows_g=297 nrows=81 sparsity=.2320 nnzs=20467, refcount: 8>
  <dData1D:(new from dSpData1D) n=20467, refcount: 1>
refcount: 1>
new_DM -- step:     1
Initializing Density Matrix...
DM filled with atomic data:
<dSpData2D:DM initialized from atoms
  <sparsity:sparsity for geom step 0
    nrows_g=297 nrows=81 sparsity=.2320 nnzs=20467, refcount: 9>
  <dData2D:DM n=20467 m=8, refcount: 1>
refcount: 1>
     spin moment: S , {S} =   56.00000   0.00000   0.00000  56.00000
No. of atoms with KB's overlaping orbs in proc 0. Max # of overlaps:      29     203

Initializing spin-orbit part of the Hamiltonian
  Adding spin-orbit effects for O 
  Adding spin-orbit effects for N 
  Adding spin-orbit effects for Si
  Adding spin-orbit effects for H 


New grid distribution:   1
           1       1:  135    1:   54    1:   30
           2       1:  135    1:   54   31:   60
           3       1:  135   55:  108    1:   30
           4       1:  135   55:  108   31:   60

InitMesh: MESH =   270 x   216 x   120 =     6998400
InitMesh: (bp) =   135 x   108 x    60 =      874800
InitMesh: Mesh cutoff (required, used) =   340.000   353.287 Ry
ExtMesh (bp) on 0 =   239 x   158 x   142 =     5362204
New grid distribution:   2
           1      32:  135    1:   25    1:   60
           2       1:   31    1:   23    1:   60
           3      32:  135   26:  108    1:   60
           4       1:   31   24:  108    1:   60
New grid distribution:   3
           1      44:  135    1:   32    1:   60
           2       1:   43    1:   37    1:   60
           3      44:  135   33:  108    1:   60
           4       1:   43   38:  108    1:   60
Setting up quadratic distribution...
ExtMesh (bp) on 0 =   208 x   129 x   172 =     4615104
PhiOnMesh: Number of (b)points on node 0 =               156000
PhiOnMesh: nlist on node 0 =              2636073

stepf: Fermi-Dirac step function

siesta: Program's energy decomposition (eV):
siesta: Ebs     =      -612.854574
siesta: Eions   =      3585.165840
siesta: Ena     =       382.828467
siesta: Ekin    =      3367.313629
siesta: Enl     =     -3297.437370
siesta: Eso     =        -0.003468
siesta: Edftu   =         0.000000
siesta: DEna    =       154.453080
siesta: DUscf   =        77.992845
siesta: DUext   =         0.000000
siesta: Exc     =     -1204.602975
siesta: eta*DQ  =         0.000000
siesta: Emadel  =         0.000000
siesta: Emeta   =         0.000000
siesta: Emolmec =         0.000000
siesta: Ekinion =         0.000000
siesta: Eharris =     -4028.781313
siesta: Etot    =     -4104.621631
siesta: FreeEng =     -4104.623326

        iscf     Eharris(eV)        E_KS(eV)     FreeEng(eV)     dDmax    Ef(eV) dHmax(eV)
   scf:    1    -4028.781313    -4104.621631    -4104.623326  0.957302 -4.902736 20.041444
     spin moment: S , {S} =    2.01041   0.00000  -0.00000   2.01041
timer: Routine,Calls,Time,% = IterSCF        1      11.929  16.31
   scf:    2    -4150.684476    -4138.705970    -4138.707768  0.459857 -4.202305 10.781239
     spin moment: S , {S} =    1.98920  -0.00000   0.00000   1.98920
   scf:    3    -4112.051809    -4135.937631    -4135.955355  0.424886 -4.257577 11.390072
     spin moment: S , {S} =    2.00011   0.00000  -0.00000   2.00011
   scf:    4    -4151.546375    -4146.692596    -4146.692597  0.308802 -3.876656  5.849400
     spin moment: S , {S} =    0.00009   0.00000   0.00000   0.00009
   scf:    5    -4147.833955    -4147.351890    -4147.351890  0.038273 -3.686574  4.208251
     spin moment: S , {S} =    0.00005   0.00000   0.00000   0.00005
   scf:    6    -4148.124028    -4147.740982    -4147.740982  0.025752 -3.603958  2.007651
     spin moment: S , {S} =    0.00003  -0.00000   0.00000   0.00003
   scf:    7    -4148.087833    -4147.913935    -4147.913935  0.021433 -3.729779  0.850452
     spin moment: S , {S} =    0.00001   0.00000  -0.00000   0.00001
   scf:    8    -4148.028059    -4147.969599    -4147.969599  0.012050 -3.744023  0.452024
     spin moment: S , {S} =    0.00000   0.00000  -0.00000   0.00000
   scf:    9    -4148.007981    -4147.988197    -4147.988197  0.006770 -3.769713  0.299247
     spin moment: S , {S} =    0.00000   0.00000  -0.00000   0.00000
   scf:   10    -4148.033770    -4148.007642    -4148.007642  0.016406 -3.798003  0.129784
     spin moment: S , {S} =    0.00000   0.00000   0.00000  -0.00000
   scf:   11    -4148.010846    -4148.009158    -4148.009158  0.004745 -3.790569  0.052055
     spin moment: S , {S} =    0.00000   0.00000  -0.00000   0.00000
   scf:   12    -4148.010038    -4148.009591    -4148.009591  0.002099 -3.787336  0.032070
     spin moment: S , {S} =    0.00000   0.00000  -0.00000   0.00000
   scf:   13    -4148.010183    -4148.009870    -4148.009870  0.001968 -3.785074  0.024856
     spin moment: S , {S} =    0.00000   0.00000  -0.00000   0.00000
   scf:   14    -4148.010349    -4148.010087    -4148.010087  0.002230 -3.784385  0.017552
     spin moment: S , {S} =    0.00000   0.00000  -0.00000   0.00000
   scf:   15    -4148.010431    -4148.010231    -4148.010231  0.002457 -3.784500  0.009643
     spin moment: S , {S} =    0.00000   0.00000   0.00000   0.00000
   scf:   16    -4148.010350    -4148.010277    -4148.010277  0.001730 -3.784635  0.004184
     spin moment: S , {S} =    0.00000   0.00000   0.00000   0.00000
   scf:   17    -4148.010292    -4148.010283    -4148.010283  0.000588 -3.784833  0.002268
     spin moment: S , {S} =    0.00000   0.00000   0.00000   0.00000
   scf:   18    -4148.010287    -4148.010285    -4148.010285  0.000267 -3.784930  0.001142
     spin moment: S , {S} =    0.00000   0.00000   0.00000   0.00000
   scf:   19    -4148.010286    -4148.010285    -4148.010285  0.000116 -3.784925  0.000621
     spin moment: S , {S} =    0.00000   0.00000   0.00000  -0.00000
   scf:   20    -4148.010286    -4148.010286    -4148.010286  0.000050 -3.784877  0.000393
     spin moment: S , {S} =    0.00000   0.00000   0.00000  -0.00000
   scf:   21    -4148.010286    -4148.010286    -4148.010286  0.000068 -3.784828  0.000207
     spin moment: S , {S} =    0.00000   0.00000   0.00000  -0.00000
   scf:   22    -4148.010286    -4148.010286    -4148.010286  0.000016 -3.784809  0.000075
     spin moment: S , {S} =    0.00000   0.00000   0.00000  -0.00000
   scf:   23    -4148.010286    -4148.010286    -4148.010286  0.000005 -3.784808  0.000042
     spin moment: S , {S} =    0.00000   0.00000   0.00000  -0.00000
   scf:   24    -4148.010286    -4148.010286    -4148.010286  0.000003 -3.784805  0.000020
     spin moment: S , {S} =    0.00000   0.00000   0.00000  -0.00000
mix: Pulay -- resetting history
   scf:   25    -4148.010286    -4148.010286    -4148.010286  0.000002 -3.784803  0.000009
     spin moment: S , {S} =    0.00000   0.00000   0.00000  -0.00000
   scf:   26    -4148.010286    -4148.010286    -4148.010286  0.000001 -3.784802  0.000005
     spin moment: S , {S} =    0.00000   0.00000   0.00000   0.00000
   scf:   27    -4148.010286    -4148.010286    -4148.010286  0.000000 -3.784802  0.000003
     spin moment: S , {S} =    0.00000   0.00000   0.00000   0.00000
   scf:   28    -4148.010286    -4148.010286    -4148.010286  0.000000 -3.784802  0.000002
     spin moment: S , {S} =    0.00000   0.00000   0.00000   0.00000
   scf:   29    -4148.010286    -4148.010286    -4148.010286  0.000000 -3.784802  0.000001
     spin moment: S , {S} =    0.00000   0.00000   0.00000   0.00000
   scf:   30    -4148.010286    -4148.010286    -4148.010286  0.000000 -3.784802  0.000001
     spin moment: S , {S} =    0.00000   0.00000   0.00000  -0.00000

SCF Convergence by DM+H criterion
max |DM_out - DM_in|         :     0.0000001486
max |H_out - H_in|      (eV) :     0.0000005016
SCF cycle converged after 30 iterations

Using DM_out to compute the final energy and forces
No. of atoms with KB's overlaping orbs in proc 0. Max # of overlaps:      29     203

siesta: E_KS(eV) =            -4148.0103

siesta: E_KS - E_eggbox =     -4148.0103
     spin moment: S , {S} =    0.00000   0.00000   0.00000  -0.00000

siesta: Atomic forces (eV/Ang):
     1   -0.620387   -0.118231   -0.000000
     2   -0.010194    0.005626   -0.000000
     3    0.038863   -0.004630   -0.000000
     4    0.035017   -0.000249   -0.000000
     5    0.005548   -0.005360    0.000000
     6    0.139009    0.082357    0.000000
     7    0.000039   -0.010542   -0.000000
     8   -0.017796    0.012408    0.000000
     9    0.003994    0.056580    0.000000
    10   -0.038588    0.023204    0.000000
    11   -0.000195   -0.001373    0.000000
    12    0.010841    0.045811   -0.000000
    13   -0.049536   -0.009674    0.000000
    14   -0.092891   -0.125131   -0.000000
    15   -0.229592    0.041804    0.000000
    16    0.090822   -0.118357   -0.000000
    17    0.040021   -0.055476   -0.000000
    18   -0.009345    0.005874   -0.000000
    19   -0.015985   -0.045755   -0.000000
    20   -0.006916   -0.018031   -0.000000
    21    0.045976    0.037062    0.000000
    22   -0.178557   -0.114212    0.000000
    23   -0.015429    0.000945    0.000000
    24   -0.011764    0.069830    0.000000
    25    0.034229   -0.037143   -0.000000
    26    0.031461    0.077927    0.000000
    27    0.087213   -0.062641   -0.000000
    28    2.088048   -4.232597    0.000000
    29    0.022483   -0.011809    0.000000
----------------------------------------
   Tot    1.376389   -4.511781    0.000000
----------------------------------------
   Max    4.232597
   Res    0.513018    sqrt( Sum f_i^2 / 3N )
----------------------------------------
   Max    4.232597    constrained

Stress tensor Voigt[x,y,z,yz,xz,xy] (kbar):       -0.26       -0.79       -0.11        0.00       -0.00       -0.02
(Free)E + p*V (eV/cell)    -4146.9395
Target enthalpy (eV/cell)    -4148.0103

mulliken: Atomic and Orbital Populations:

Species: O                   

Atom      Orb        Charge      Spin       Svec
----------------------------------------------------------------
    1  1 2s         1.72395   0.00000      0.000  -0.000   0.000
    1  2 2s         0.06611   0.00000     -0.000  -0.000   0.000
    1  3 2py        1.36184   0.00000     -0.000  -0.000   0.000
    1  4 2pz        1.61371   0.00000     -0.000  -0.000   0.000
    1  5 2px        1.64954   0.00000      0.000  -0.000   0.000
    1  6 2py        0.08242   0.00000     -0.000   0.000   0.000
    1  7 2pz       -0.01643   0.00000      0.000   0.000   0.000
    1  8 2px       -0.00089   0.00000     -0.000   0.000   0.000
    1  9 3Pdxy      0.00889   0.00000      0.000  -0.000  -0.000
    1 10 3Pdyz      0.00759   0.00000     -0.000   0.000   0.000
    1 11 3Pdz2      0.00197   0.00000      0.000  -0.000   0.000
    1 12 3Pdxz     -0.00002   0.00000     -0.000   0.000   0.000
    1 13 3Pdx2-y2   0.00539   0.00000      0.000   0.000  -0.000
    1     Total     6.50407   0.00000     -0.000  -0.000   0.000

   28  1 2s         1.74054   0.00000     -0.000  -0.000   0.000
   28  2 2s         0.05781   0.00000      0.000   0.000  -0.000
   28  3 2py        1.36268   0.00000     -0.000  -0.000   0.000
   28  4 2pz        1.60398   0.00000     -0.000  -0.000   0.000
   28  5 2px        1.66396   0.00000     -0.000  -0.000  -0.000
   28  6 2py        0.07670   0.00000     -0.000  -0.000  -0.000
   28  7 2pz       -0.01525   0.00000      0.000  -0.000  -0.000
   28  8 2px       -0.00191   0.00000      0.000   0.000   0.000
   28  9 3Pdxy      0.00867   0.00000      0.000   0.000   0.000
   28 10 3Pdyz      0.00848   0.00000     -0.000  -0.000  -0.000
   28 11 3Pdz2      0.00157   0.00000      0.000  -0.000  -0.000
   28 12 3Pdxz     -0.00012   0.00000      0.000   0.000  -0.000
   28 13 3Pdx2-y2   0.00661   0.00000     -0.000   0.000  -0.000
   28     Total     6.51373   0.00000     -0.000  -0.000   0.000

----------------------------------------------------------------
Total              13.01780   0.00000     -0.000  -0.000   0.000


Species: N                   

Atom      Orb        Charge      Spin       Svec
----------------------------------------------------------------
    2  1 2s         1.55410   0.00000      0.000   0.000   0.000
    2  2 2s         0.08358   0.00000     -0.000  -0.000   0.000
    2  3 2py        1.04148   0.00000      0.000  -0.000   0.000
    2  4 2pz        1.22478   0.00000     -0.000   0.000   0.000
    2  5 2px        0.98708   0.00000      0.000  -0.000   0.000
    2  6 2py        0.18854   0.00000      0.000   0.000   0.000
    2  7 2pz        0.05627   0.00000      0.000   0.000  -0.000
    2  8 2px        0.19560   0.00000     -0.000   0.000  -0.000
    2  9 3Pdxy      0.00856   0.00000     -0.000   0.000   0.000
    2 10 3Pdyz      0.01121   0.00000     -0.000   0.000  -0.000
    2 11 3Pdz2      0.00193   0.00000     -0.000  -0.000  -0.000
    2 12 3Pdxz      0.00763   0.00000      0.000   0.000  -0.000
    2 13 3Pdx2-y2   0.00929   0.00000      0.000  -0.000   0.000
    2     Total     5.37005   0.00000      0.000   0.000   0.000

    3  1 2s         1.37989   0.00000     -0.000  -0.000  -0.000
    3  2 2s         0.12521   0.00000      0.000   0.000   0.000
    3  3 2py        0.93821   0.00000      0.000   0.000   0.000
    3  4 2pz        1.53969   0.00000      0.000   0.000  -0.000
    3  5 2px        1.07110   0.00000      0.000   0.000  -0.000
    3  6 2py        0.25544   0.00000     -0.000   0.000   0.000
    3  7 2pz        0.00554   0.00000     -0.000   0.000   0.000
    3  8 2px        0.18929   0.00000     -0.000  -0.000   0.000
    3  9 3Pdxy      0.00406   0.00000     -0.000  -0.000   0.000
    3 10 3Pdyz      0.00386   0.00000      0.000  -0.000   0.000
    3 11 3Pdz2      0.00052   0.00000      0.000  -0.000  -0.000
    3 12 3Pdxz      0.00281   0.00000     -0.000  -0.000   0.000
    3 13 3Pdx2-y2   0.00245   0.00000     -0.000  -0.000  -0.000
    3     Total     5.51807   0.00000     -0.000   0.000   0.000

    4  1 2s         1.46252   0.00000     -0.000   0.000  -0.000
    4  2 2s         0.11869   0.00000      0.000  -0.000   0.000
    4  3 2py        1.13021   0.00000      0.000  -0.000  -0.000
    4  4 2pz        1.29258   0.00000      0.000   0.000  -0.000
    4  5 2px        0.82503   0.00000      0.000   0.000   0.000
    4  6 2py        0.15051   0.00000     -0.000   0.000   0.000
    4  7 2pz        0.05364   0.00000     -0.000  -0.000   0.000
    4  8 2px        0.29149   0.00000     -0.000  -0.000  -0.000
    4  9 3Pdxy      0.00876   0.00000     -0.000  -0.000  -0.000
    4 10 3Pdyz      0.01045   0.00000      0.000   0.000   0.000
    4 11 3Pdz2      0.00129   0.00000     -0.000   0.000  -0.000
    4 12 3Pdxz      0.00477   0.00000     -0.000  -0.000  -0.000
    4 13 3Pdx2-y2   0.00796   0.00000     -0.000  -0.000  -0.000
    4     Total     5.35789   0.00000      0.000   0.000  -0.000

    5  1 2s         1.37160   0.00000      0.000   0.000   0.000
    5  2 2s         0.12987   0.00000     -0.000  -0.000   0.000
    5  3 2py        1.02699   0.00000     -0.000   0.000   0.000
    5  4 2pz        1.49836   0.00000      0.000   0.000   0.000
    5  5 2px        1.05676   0.00000      0.000   0.000   0.000
    5  6 2py        0.20601   0.00000      0.000  -0.000   0.000
    5  7 2pz        0.01379   0.00000     -0.000  -0.000   0.000
    5  8 2px        0.20521   0.00000     -0.000  -0.000  -0.000
    5  9 3Pdxy      0.00389   0.00000     -0.000  -0.000   0.000
    5 10 3Pdyz      0.00242   0.00000      0.000   0.000  -0.000
    5 11 3Pdz2      0.00141   0.00000      0.000  -0.000  -0.000
    5 12 3Pdxz      0.00672   0.00000      0.000  -0.000  -0.000
    5 13 3Pdx2-y2   0.00552   0.00000      0.000   0.000  -0.000
    5     Total     5.52854   0.00000      0.000   0.000   0.000

    6  1 2s         1.26446   0.00000     -0.000   0.000  -0.000
    6  2 2s         0.18187   0.00000      0.000  -0.000   0.000
    6  3 2py        1.06935   0.00000     -0.000  -0.000  -0.000
    6  4 2pz        1.51705   0.00000      0.000  -0.000   0.000
    6  5 2px        0.97178   0.00000     -0.000   0.000   0.000
    6  6 2py        0.19544   0.00000      0.000   0.000   0.000
    6  7 2pz        0.03468   0.00000     -0.000   0.000   0.000
    6  8 2px        0.25818   0.00000      0.000  -0.000   0.000
    6  9 3Pdxy      0.00240   0.00000     -0.000  -0.000   0.000
    6 10 3Pdyz      0.00000   0.00000      0.000  -0.000  -0.000
    6 11 3Pdz2      0.00163   0.00000      0.000   0.000  -0.000
    6 12 3Pdxz      0.00394   0.00000      0.000   0.000  -0.000
    6 13 3Pdx2-y2   0.00433   0.00000      0.000   0.000   0.000
    6     Total     5.50512   0.00000      0.000  -0.000   0.000

   21  1 2s         1.41172   0.00000      0.000  -0.000   0.000
   21  2 2s         0.12971   0.00000     -0.000   0.000   0.000
   21  3 2py        0.89230   0.00000      0.000  -0.000   0.000
   21  4 2pz        1.32289   0.00000     -0.000   0.000   0.000
   21  5 2px        1.15448   0.00000     -0.000   0.000   0.000
   21  6 2py        0.27208   0.00000     -0.000   0.000   0.000
   21  7 2pz        0.04301   0.00000      0.000   0.000   0.000
   21  8 2px        0.16343   0.00000      0.000  -0.000   0.000
   21  9 3Pdxy      0.00609   0.00000      0.000  -0.000  -0.000
   21 10 3Pdyz      0.00455   0.00000     -0.000  -0.000  -0.000
   21 11 3Pdz2     -0.00014   0.00000     -0.000   0.000   0.000
   21 12 3Pdxz      0.00574   0.00000     -0.000   0.000  -0.000
   21 13 3Pdx2-y2   0.00596   0.00000      0.000  -0.000   0.000
   21     Total     5.41182   0.00000      0.000   0.000   0.000

   22  1 2s         1.28693   0.00000      0.000  -0.000   0.000
   22  2 2s         0.17311   0.00000     -0.000   0.000  -0.000
   22  3 2py        1.06718   0.00000      0.000  -0.000  -0.000
   22  4 2pz        1.47829   0.00000     -0.000  -0.000   0.000
   22  5 2px        1.01045   0.00000      0.000  -0.000   0.000
   22  6 2py        0.19801   0.00000     -0.000   0.000   0.000
   22  7 2pz        0.03415   0.00000     -0.000   0.000   0.000
   22  8 2px        0.23572   0.00000     -0.000   0.000   0.000
   22  9 3Pdxy      0.00359   0.00000     -0.000   0.000  -0.000
   22 10 3Pdyz      0.00008   0.00000      0.000  -0.000  -0.000
   22 11 3Pdz2      0.00231   0.00000     -0.000  -0.000  -0.000
   22 12 3Pdxz      0.00415   0.00000     -0.000  -0.000  -0.000
   22 13 3Pdx2-y2   0.00469   0.00000      0.000   0.000   0.000
   22     Total     5.49865   0.00000      0.000  -0.000   0.000

   23  1 2s         1.36854   0.00000      0.000   0.000   0.000
   23  2 2s         0.13146   0.00000     -0.000  -0.000   0.000
   23  3 2py        1.00940   0.00000     -0.000  -0.000  -0.000
   23  4 2pz        1.53457   0.00000     -0.000   0.000   0.000
   23  5 2px        1.04880   0.00000     -0.000  -0.000   0.000
   23  6 2py        0.21678   0.00000      0.000   0.000   0.000
   23  7 2pz        0.00448   0.00000      0.000  -0.000   0.000
   23  8 2px        0.20482   0.00000      0.000   0.000  -0.000
   23  9 3Pdxy      0.00518   0.00000      0.000  -0.000  -0.000
   23 10 3Pdyz      0.00459   0.00000      0.000   0.000   0.000
   23 11 3Pdz2      0.00066   0.00000      0.000   0.000  -0.000
   23 12 3Pdxz      0.00243   0.00000      0.000  -0.000   0.000
   23 13 3Pdx2-y2   0.00148   0.00000     -0.000  -0.000  -0.000
   23     Total     5.53321   0.00000     -0.000  -0.000   0.000

----------------------------------------------------------------
Total              56.74115   0.00000      0.000  -0.000   0.000


Species: Si                  

Atom      Orb        Charge      Spin       Svec
----------------------------------------------------------------
    7  1 3s         0.64057   0.00000      0.000  -0.000  -0.000
    7  2 3s         0.37672   0.00000     -0.000   0.000  -0.000
    7  3 3py        0.46732   0.00000      0.000   0.000  -0.000
    7  4 3pz        0.68405   0.00000     -0.000   0.000  -0.000
    7  5 3px        0.10757   0.00000     -0.000  -0.000  -0.000
    7  6 3py        0.28193   0.00000     -0.000  -0.000  -0.000
    7  7 3pz        0.26683   0.00000     -0.000   0.000  -0.000
    7  8 3px        0.45260   0.00000     -0.000   0.000  -0.000
    7  9 3Pdxy      0.25224   0.00000     -0.000  -0.000  -0.000
    7 10 3Pdyz      0.02875   0.00000      0.000   0.000   0.000
    7 11 3Pdz2      0.01061   0.00000     -0.000  -0.000   0.000
    7 12 3Pdxz      0.15267   0.00000     -0.000  -0.000   0.000
    7 13 3Pdx2-y2   0.11138   0.00000      0.000   0.000   0.000
    7     Total     3.83323   0.00000     -0.000   0.000  -0.000

    8  1 3s         0.65361   0.00000      0.000  -0.000   0.000
    8  2 3s         0.36979   0.00000     -0.000   0.000  -0.000
    8  3 3py        0.39632   0.00000     -0.000   0.000  -0.000
    8  4 3pz        0.50344   0.00000      0.000  -0.000   0.000
    8  5 3px       -0.01966   0.00000      0.000  -0.000   0.000
    8  6 3py        0.30518   0.00000      0.000   0.000   0.000
    8  7 3pz        0.20630   0.00000     -0.000   0.000   0.000
    8  8 3px        0.51216   0.00000     -0.000   0.000  -0.000
    8  9 3Pdxy      0.24895   0.00000      0.000  -0.000  -0.000
    8 10 3Pdyz      0.11206   0.00000     -0.000   0.000   0.000
    8 11 3Pdz2      0.01404   0.00000     -0.000  -0.000   0.000
    8 12 3Pdxz      0.15711   0.00000     -0.000  -0.000  -0.000
    8 13 3Pdx2-y2   0.20205   0.00000     -0.000   0.000  -0.000
    8     Total     3.66133   0.00000     -0.000   0.000   0.000

    9  1 3s         0.58025   0.00000     -0.000  -0.000   0.000
    9  2 3s         0.37757   0.00000      0.000   0.000  -0.000
    9  3 3py        0.10285   0.00000      0.000  -0.000  -0.000
    9  4 3pz        0.46756   0.00000      0.000  -0.000   0.000
    9  5 3px        0.34632   0.00000     -0.000   0.000   0.000
    9  6 3py        0.41345   0.00000     -0.000   0.000   0.000
    9  7 3pz        0.19521   0.00000     -0.000  -0.000   0.000
    9  8 3px        0.29280   0.00000      0.000  -0.000   0.000
    9  9 3Pdxy      0.29249   0.00000      0.000   0.000   0.000
    9 10 3Pdyz      0.19135   0.00000      0.000   0.000   0.000
    9 11 3Pdz2      0.01117   0.00000      0.000   0.000   0.000
    9 12 3Pdxz      0.10709   0.00000      0.000   0.000   0.000
    9 13 3Pdx2-y2   0.17750   0.00000      0.000   0.000  -0.000
    9     Total     3.55560   0.00000      0.000   0.000   0.000

   10  1 3s         0.48369   0.00000     -0.000  -0.000  -0.000
   10  2 3s         0.37650   0.00000     -0.000   0.000   0.000
   10  3 3py        0.24526   0.00000     -0.000  -0.000   0.000
   10  4 3pz        0.41799   0.00000     -0.000  -0.000  -0.000
   10  5 3px        0.09309   0.00000      0.000   0.000  -0.000
   10  6 3py        0.31840   0.00000      0.000   0.000  -0.000
   10  7 3pz        0.21815   0.00000      0.000   0.000  -0.000
   10  8 3px        0.44663   0.00000     -0.000  -0.000  -0.000
   10  9 3Pdxy      0.17624   0.00000     -0.000  -0.000  -0.000
   10 10 3Pdyz      0.13060   0.00000     -0.000  -0.000  -0.000
   10 11 3Pdz2      0.00919   0.00000      0.000  -0.000   0.000
   10 12 3Pdxz      0.18457   0.00000     -0.000  -0.000  -0.000
   10 13 3Pdx2-y2   0.30710   0.00000      0.000  -0.000  -0.000
   10     Total     3.40742   0.00000     -0.000  -0.000  -0.000

   11  1 3s         0.55103   0.00000      0.000   0.000  -0.000
   11  2 3s         0.38658   0.00000     -0.000  -0.000  -0.000
   11  3 3py        0.31020   0.00000      0.000  -0.000  -0.000
   11  4 3pz        0.53064   0.00000      0.000  -0.000  -0.000
   11  5 3px        0.13136   0.00000      0.000  -0.000  -0.000
   11  6 3py        0.29935   0.00000     -0.000   0.000  -0.000
   11  7 3pz        0.17962   0.00000     -0.000  -0.000  -0.000
   11  8 3px        0.44263   0.00000     -0.000   0.000   0.000
   11  9 3Pdxy      0.23587   0.00000      0.000  -0.000  -0.000
   11 10 3Pdyz      0.12944   0.00000      0.000   0.000  -0.000
   11 11 3Pdz2      0.00996   0.00000      0.000   0.000  -0.000
   11 12 3Pdxz      0.05437   0.00000     -0.000   0.000  -0.000
   11 13 3Pdx2-y2   0.19806   0.00000     -0.000   0.000  -0.000
   11     Total     3.45911   0.00000      0.000  -0.000  -0.000

   17  1 3s         0.64330   0.00000      0.000  -0.000   0.000
   17  2 3s         0.35642   0.00000     -0.000   0.000  -0.000
   17  3 3py        0.23799   0.00000     -0.000   0.000   0.000
   17  4 3pz        0.42497   0.00000      0.000   0.000  -0.000
   17  5 3px        0.22661   0.00000      0.000  -0.000   0.000
   17  6 3py        0.36162   0.00000     -0.000   0.000  -0.000
   17  7 3pz        0.21449   0.00000      0.000  -0.000  -0.000
   17  8 3px        0.38948   0.00000     -0.000  -0.000  -0.000
   17  9 3Pdxy      0.28087   0.00000     -0.000  -0.000  -0.000
   17 10 3Pdyz      0.13175   0.00000      0.000   0.000  -0.000
   17 11 3Pdz2      0.00784   0.00000      0.000   0.000   0.000
   17 12 3Pdxz      0.15094   0.00000     -0.000  -0.000  -0.000
   17 13 3Pdx2-y2   0.17702   0.00000     -0.000   0.000  -0.000
   17     Total     3.60330   0.00000      0.000   0.000  -0.000

   18  1 3s         0.75331   0.00000     -0.000  -0.000  -0.000
   18  2 3s         0.33871   0.00000      0.000   0.000   0.000
   18  3 3py        0.08587   0.00000      0.000   0.000  -0.000
   18  4 3pz        0.80633   0.00000      0.000   0.000  -0.000
   18  5 3px        0.53501   0.00000      0.000   0.000  -0.000
   18  6 3py        0.51459   0.00000     -0.000  -0.000  -0.000
   18  7 3pz        0.19700   0.00000     -0.000  -0.000  -0.000
   18  8 3px        0.26349   0.00000     -0.000  -0.000  -0.000
   18  9 3Pdxy      0.10671   0.00000      0.000   0.000   0.000
   18 10 3Pdyz      0.02640   0.00000      0.000   0.000   0.000
   18 11 3Pdz2      0.00900   0.00000     -0.000   0.000   0.000
   18 12 3Pdxz      0.03229   0.00000     -0.000   0.000   0.000
   18 13 3Pdx2-y2   0.10495   0.00000     -0.000   0.000  -0.000
   18     Total     3.77366   0.00000     -0.000   0.000  -0.000

   19  1 3s         0.45198   0.00000     -0.000  -0.000  -0.000
   19  2 3s         0.36560   0.00000      0.000   0.000   0.000
   19  3 3py        0.08548   0.00000     -0.000   0.000  -0.000
   19  4 3pz        0.40413   0.00000      0.000  -0.000  -0.000
   19  5 3px        0.27356   0.00000      0.000  -0.000   0.000
   19  6 3py        0.45048   0.00000      0.000   0.000   0.000
   19  7 3pz        0.19359   0.00000      0.000   0.000  -0.000
   19  8 3px        0.29208   0.00000     -0.000   0.000  -0.000
   19  9 3Pdxy      0.32111   0.00000      0.000   0.000  -0.000
   19 10 3Pdyz      0.18464   0.00000      0.000  -0.000  -0.000
   19 11 3Pdz2      0.01157   0.00000     -0.000   0.000  -0.000
   19 12 3Pdxz      0.10137   0.00000      0.000   0.000  -0.000
   19 13 3Pdx2-y2   0.24659   0.00000     -0.000  -0.000  -0.000
   19     Total     3.38218   0.00000      0.000   0.000  -0.000

   20  1 3s         0.67963   0.00000     -0.000  -0.000   0.000
   20  2 3s         0.37636   0.00000      0.000  -0.000   0.000
   20  3 3py        0.33738   0.00000     -0.000  -0.000   0.000
   20  4 3pz        0.60846   0.00000      0.000  -0.000   0.000
   20  5 3px        0.13715   0.00000      0.000   0.000   0.000
   20  6 3py        0.28284   0.00000      0.000   0.000  -0.000
   20  7 3pz        0.16100   0.00000     -0.000   0.000   0.000
   20  8 3px        0.50307   0.00000     -0.000  -0.000  -0.000
   20  9 3Pdxy      0.09917   0.00000     -0.000  -0.000  -0.000
   20 10 3Pdyz      0.12944   0.00000     -0.000   0.000   0.000
   20 11 3Pdz2      0.00722   0.00000     -0.000  -0.000  -0.000
   20 12 3Pdxz      0.02702   0.00000      0.000   0.000  -0.000
   20 13 3Pdx2-y2   0.17452   0.00000      0.000  -0.000  -0.000
   20     Total     3.52325   0.00000     -0.000  -0.000   0.000

----------------------------------------------------------------
Total              88.94023   0.00000     -0.000  -0.000  -0.000


Species: H                   

Atom      Orb        Charge      Spin       Svec
----------------------------------------------------------------
   12  1 1s         0.47737   0.00000      0.000  -0.000   0.000
   12  2 1s         0.18210   0.00000      0.000   0.000   0.000
   12  3 2Ppy       0.03996   0.00000     -0.000   0.000  -0.000
   12  4 2Ppz       0.03091   0.00000      0.000   0.000   0.000
   12  5 2Ppx       0.04378   0.00000      0.000   0.000  -0.000
   12     Total     0.77412   0.00000      0.000  -0.000  -0.000

   13  1 1s         1.01853   0.00000     -0.000   0.000   0.000
   13  2 1s         0.09724   0.00000      0.000  -0.000  -0.000
   13  3 2Ppy       0.01915   0.00000     -0.000   0.000   0.000
   13  4 2Ppz       0.02018   0.00000     -0.000  -0.000  -0.000
   13  5 2Ppx       0.03328   0.00000      0.000  -0.000   0.000
   13     Total     1.18839   0.00000     -0.000   0.000   0.000

   14  1 1s         0.48721   0.00000      0.000  -0.000  -0.000
   14  2 1s         0.19623   0.00000     -0.000   0.000  -0.000
   14  3 2Ppy       0.01984   0.00000     -0.000  -0.000   0.000
   14  4 2Ppz       0.04847   0.00000     -0.000   0.000  -0.000
   14  5 2Ppx       0.02103   0.00000     -0.000  -0.000  -0.000
   14     Total     0.77277   0.00000     -0.000   0.000  -0.000

   15  1 1s         0.44547   0.00000      0.000   0.000   0.000
   15  2 1s         0.17752   0.00000     -0.000   0.000   0.000
   15  3 2Ppy       0.04493   0.00000      0.000  -0.000   0.000
   15  4 2Ppz       0.04385   0.00000      0.000   0.000  -0.000
   15  5 2Ppx       0.07976   0.00000      0.000  -0.000   0.000
   15     Total     0.79153   0.00000      0.000   0.000   0.000

   16  1 1s         0.50457   0.00000     -0.000  -0.000  -0.000
   16  2 1s         0.19064   0.00000      0.000  -0.000   0.000
   16  3 2Ppy       0.02900   0.00000     -0.000  -0.000  -0.000
   16  4 2Ppz       0.03957   0.00000     -0.000  -0.000  -0.000
   16  5 2Ppx       0.02423   0.00000     -0.000  -0.000  -0.000
   16     Total     0.78801   0.00000     -0.000  -0.000  -0.000

   24  1 1s         1.05805   0.00000     -0.000  -0.000   0.000
   24  2 1s         0.07601   0.00000      0.000   0.000   0.000
   24  3 2Ppy       0.03067   0.00000     -0.000  -0.000  -0.000
   24  4 2Ppz       0.03025   0.00000      0.000   0.000  -0.000
   24  5 2Ppx       0.01786   0.00000      0.000   0.000  -0.000
   24     Total     1.21285   0.00000     -0.000  -0.000   0.000

   25  1 1s         1.04574   0.00000     -0.000   0.000  -0.000
   25  2 1s         0.08510   0.00000      0.000   0.000   0.000
   25  3 2Ppy       0.01141   0.00000     -0.000   0.000  -0.000
   25  4 2Ppz       0.01896   0.00000     -0.000   0.000   0.000
   25  5 2Ppx       0.03591   0.00000      0.000  -0.000   0.000
   25     Total     1.19712   0.00000     -0.000   0.000   0.000

   26  1 1s         0.49277   0.00000     -0.000   0.000  -0.000
   26  2 1s         0.19455   0.00000      0.000  -0.000  -0.000
   26  3 2Ppy       0.02236   0.00000      0.000   0.000  -0.000
   26  4 2Ppz       0.04882   0.00000     -0.000  -0.000  -0.000
   26  5 2Ppx       0.02032   0.00000     -0.000   0.000  -0.000
   26     Total     0.77882   0.00000     -0.000   0.000  -0.000

   27  1 1s         0.43907   0.00000      0.000   0.000   0.000
   27  2 1s         0.17288   0.00000     -0.000  -0.000  -0.000
   27  3 2Ppy       0.05423   0.00000     -0.000   0.000  -0.000
   27  4 2Ppz       0.04147   0.00000     -0.000   0.000  -0.000
   27  5 2Ppx       0.08482   0.00000     -0.000  -0.000  -0.000
   27     Total     0.79247   0.00000     -0.000   0.000   0.000

   29  1 1s         0.48894   0.00000      0.000   0.000  -0.000
   29  2 1s         0.18823   0.00000      0.000  -0.000  -0.000
   29  3 2Ppy       0.02468   0.00000     -0.000  -0.000   0.000
   29  4 2Ppz       0.03482   0.00000      0.000  -0.000   0.000
   29  5 2Ppx       0.02704   0.00000      0.000   0.000  -0.000
   29     Total     0.76370   0.00000      0.000   0.000  -0.000

----------------------------------------------------------------
Total              98.00000   0.00000      0.000   0.000  -0.000


siesta: Eigenvalues (eV):
ik =     1
  -22.7425  -22.7425  -22.3271  -22.3271  -21.4131  -21.4131  -21.2749  -21.2749  -21.0037  -21.0037
  -20.7876  -20.7876  -20.3072  -20.3072  -19.6296  -19.6296  -19.5265  -19.5265  -19.4107  -19.4107
  -14.7654  -14.7654  -13.8333  -13.8333  -13.2812  -13.2812  -13.1099  -13.1099  -12.9383  -12.9383
  -12.6593  -12.6593  -12.5863  -12.5863  -12.1342  -12.1342  -11.8511  -11.8511  -11.7081  -11.7081
  -11.0513  -11.0513  -10.8280  -10.8280  -10.5909  -10.5909  -10.3960  -10.3960  -10.1724  -10.1724
   -9.6651   -9.6651   -9.1041   -9.1041   -8.9437   -8.9437   -8.8159   -8.8159   -8.6607   -8.6607
   -8.5286   -8.5286   -8.4290   -8.4290   -8.3344   -8.3344   -7.9883   -7.9883   -7.8405   -7.8405
   -7.6114   -7.6114   -7.3886   -7.3886   -7.2375   -7.2375   -7.1038   -7.1038   -6.9108   -6.9108
   -6.6397   -6.6397   -6.6226   -6.6226   -6.3956   -6.3956   -6.3449   -6.3449   -6.2984   -6.2984
   -6.1041   -6.1041   -5.9688   -5.9688   -5.5491   -5.5491   -4.3138   -4.3138   -3.2556   -3.2556
   -2.3380   -2.3380   -2.2720   -2.2720   -2.1723   -2.1723   -1.8923   -1.8923   -1.8576   -1.8576
   -1.8084   -1.8084   -1.6549   -1.6549   -1.6066   -1.6066   -1.1406   -1.1406   -1.1236   -1.1236
   -0.9044   -0.9044   -0.4917   -0.4917   -0.4221   -0.4221   -0.3075   -0.3075    0.3896    0.3896
    0.5107    0.5107    0.5479    0.5479    0.7084    0.7084    1.0633    1.0633    1.1671    1.1671
    1.3446    1.3446    1.4026    1.4026    1.4785    1.4785    1.6101    1.6101    1.9953    1.9953
    2.0415    2.0415    2.6798    2.6798    2.7309    2.7309    2.7580    2.7580    2.8929    2.8929
    2.9149    2.9149    3.0116    3.0116    3.1941    3.1941    3.4590    3.4590    3.6177    3.6177
    3.8188    3.8188    4.0718    4.0718    4.1798    4.1798    4.2553    4.2553    4.5102    4.5102
    4.6333    4.6333    4.7525    4.7525    4.7771    4.7771    4.9958    4.9958    5.2993    5.2993
    5.3086    5.3086    5.4753    5.4753    5.7373    5.7373    5.8341    5.8341    5.9335    5.9335
    6.0150    6.0150    6.3375    6.3375    6.4179    6.4179    6.5183    6.5183    6.6434    6.6434
    6.7257    6.7257    6.8498    6.8498    6.9994    6.9994    7.1274    7.1274    7.1590    7.1590
    7.2451    7.2451    7.7175    7.7175    7.7487    7.7487    7.9139    7.9139    8.0476    8.0476
    8.1223    8.1223    8.4650    8.4650    8.5241    8.5241    8.5529    8.5529    8.6513    8.6513
    8.8016    8.8016    8.8537    8.8537    9.0956    9.0956    9.1135    9.1135    9.4800    9.4800
    9.5524    9.5524    9.8220    9.8220   10.0017   10.0017   10.0029   10.0029   10.2166   10.2166
   10.2348   10.2348   10.6224   10.6224   10.8958   10.8958   11.2475   11.2475   11.3736   11.3736
   11.3795   11.3795   11.5080   11.5080   12.2804   12.2804   12.3814   12.3814   12.4130   12.4130
   12.5204   12.5204   12.6544   12.6544   12.7713   12.7713   13.0593   13.0593   13.1922   13.1922
   13.6199   13.6199   13.7442   13.7442   13.7733   13.7733   14.0152   14.0152   14.0722   14.0722
   14.3322   14.3322   14.5191   14.5191   15.0203   15.0203   15.1741   15.1741   15.2055   15.2055
   15.5870   15.5870   16.3504   16.3504   16.7539   16.7539   16.7938   16.7938   17.1683   17.1683
   17.2758   17.2758   17.7357   17.7357   18.2653   18.2653   18.7832   18.7832   19.0640   19.0640
   19.5085   19.5085   19.9338   19.9338   20.2283   20.2283   20.6854   20.6854   20.8028   20.8028
   21.3092   21.3092   21.9209   21.9209   22.4396   22.4396   22.9991   22.9991   23.2100   23.2100
   23.8284   23.8284   24.0184   24.0184   24.2110   24.2110   24.5438   24.5438   25.1866   25.1866
   25.8333   25.8333   26.1817   26.1817   26.7480   26.7480   27.8167   27.8167   28.9294   28.9294
   29.3077   29.3077   29.4975   29.4975   30.1536   30.1536   30.3161   30.3161   30.7002   30.7002
   30.9385   30.9385   30.9722   30.9722   31.3135   31.3135   31.5217   31.5217   31.6643   31.6643
   32.2645   32.2645   33.4695   33.4695   33.8201   33.8201   34.0883   34.0883   34.1729   34.1729
   35.3527   35.3527   35.5319   35.5319   35.7795   35.7795   36.0944   36.0944   36.4370   36.4370
   36.7096   36.7096   37.0636   37.0636   37.1185   37.1185   37.2835   37.2835   38.5941   38.5941
   38.8155   38.8155   39.2017   39.2017   39.4972   39.4972   39.7860   39.7860   40.3734   40.3734
   40.5896   40.5896   40.8445   40.8445   41.4400   41.4400   41.5864   41.5864   41.7142   41.7142
   42.1239   42.1239   42.5274   42.5274   42.6820   42.6820   43.3892   43.3892   43.6453   43.6453
   43.8166   43.8166   44.1026   44.1026   44.2902   44.2902   44.5177   44.5177   44.9044   44.9044
   45.1471   45.1471   45.3646   45.3646   45.7154   45.7154   46.0520   46.0520   46.3573   46.3573
   46.6737   46.6737   47.6158   47.6158   47.8584   47.8584   48.3088   48.3088   49.3552   49.3552
   49.9100   49.9100   50.1983   50.1983   50.5431   50.5431   50.5465   50.5465   50.8814   50.8814
   51.4926   51.4926   51.8488   51.8488   52.5209   52.5209   52.5285   52.5285   54.1882   54.1882
   54.2009   54.2009   54.5592   54.5592   55.4416   55.4416   55.8181   55.8181   56.3104   56.3104
   56.4980   56.4980   57.0269   57.0269   58.3013   58.3013   58.6124   58.6124   58.6247   58.6247
   60.1396   60.1396   60.5283   60.5283   60.6233   60.6233   61.4190   61.4190   61.7701   61.7701
   62.4550   62.4550   62.6632   62.6632   63.1273   63.1273   63.4556   63.4556   66.2028   66.2028
   67.1290   67.1290   68.3496   68.3496   68.7089   68.7089   69.4808   69.4808   70.0654   70.0654
   70.8936   70.8936   70.9346   70.9346   71.6244   71.6244   75.7508   75.7508   87.1176   87.1176
   87.9291   87.9291   89.7285   89.7285   94.6906   94.6906   94.9967   94.9967   95.7287   95.7287
   99.9535   99.9535  101.6533  101.6533  102.7368  102.7368  104.4639  104.4639  105.8361  105.8361
  115.2997  115.2997  117.1386  117.1386  125.7963  125.7963  128.0838  128.0838  138.5799  138.5799
  144.7587  144.7587  146.7136  146.7136
siesta: Fermi energy =      -3.784802 eV

siesta: Program's energy decomposition (eV):
siesta: Ebs     =     -1134.255696
siesta: Eions   =      3585.165840
siesta: Ena     =       382.828467
siesta: Ekin    =      2912.932075
siesta: Enl     =     -2797.348591
siesta: Eso     =        -0.004338
siesta: Edftu   =         0.000000
siesta: DEna    =        48.006952
siesta: DUscf   =        13.795815
siesta: DUext   =         0.000000
siesta: Exc     =     -1123.054827
siesta: eta*DQ  =         0.000000
siesta: Emadel  =         0.000000
siesta: Emeta   =         0.000000
siesta: Emolmec =         0.000000
siesta: Ekinion =         0.000000
siesta: Eharris =     -4148.010286
siesta: Etot    =     -4148.010286
siesta: FreeEng =     -4148.010286

siesta: Final energy (eV):
siesta:  Band Struct. =   -1134.255696
siesta:       Kinetic =    2912.932075
siesta:       Hartree =    9041.929704
siesta:       Edftu   =       0.000000
siesta:       Eso     =      -0.004338
siesta:    Ext. field =       0.000000
siesta:   Exch.-corr. =   -1123.054827
siesta:  Ion-electron =  -20672.995921
siesta:       Ion-ion =    5693.183021
siesta:       Ekinion =       0.000000
siesta:         Total =   -4148.010286
siesta:         Fermi =      -3.784802

siesta: Atomic forces (eV/Ang):
siesta:      1   -0.620387   -0.118231   -0.000000
siesta:      2   -0.010194    0.005626   -0.000000
siesta:      3    0.038863   -0.004630   -0.000000
siesta:      4    0.035017   -0.000249   -0.000000
siesta:      5    0.005548   -0.005360    0.000000
siesta:      6    0.139009    0.082357    0.000000
siesta:      7    0.000039   -0.010542   -0.000000
siesta:      8   -0.017796    0.012408    0.000000
siesta:      9    0.003994    0.056580    0.000000
siesta:     10   -0.038588    0.023204    0.000000
siesta:     11   -0.000195   -0.001373    0.000000
siesta:     12    0.010841    0.045811   -0.000000
siesta:     13   -0.049536   -0.009674    0.000000
siesta:     14   -0.092891   -0.125131   -0.000000
siesta:     15   -0.229592    0.041804    0.000000
siesta:     16    0.090822   -0.118357   -0.000000
siesta:     17    0.040021   -0.055476   -0.000000
siesta:     18   -0.009345    0.005874   -0.000000
siesta:     19   -0.015985   -0.045755   -0.000000
siesta:     20   -0.006916   -0.018031   -0.000000
siesta:     21    0.045976    0.037062    0.000000
siesta:     22   -0.178557   -0.114212    0.000000
siesta:     23   -0.015429    0.000945    0.000000
siesta:     24   -0.011764    0.069830    0.000000
siesta:     25    0.034229   -0.037143   -0.000000
siesta:     26    0.031461    0.077927    0.000000
siesta:     27    0.087213   -0.062641   -0.000000
siesta:     28    2.088048   -4.232597    0.000000
siesta:     29    0.022483   -0.011809    0.000000
siesta: ----------------------------------------
siesta:    Tot    1.376389   -4.511781    0.000000

siesta: Stress tensor (static) (eV/Ang**3):
siesta:    -0.000164   -0.000013   -0.000000
siesta:    -0.000013   -0.000496   -0.000000
siesta:    -0.000000    0.000000   -0.000068

siesta: Cell volume =       4413.668851 Ang**3

siesta: Pressure (static):
siesta:                Solid            Molecule  Units
siesta:           0.00000264         -0.00000824  Ry/Bohr**3
siesta:           0.00024261         -0.00075626  eV/Ang**3
siesta:           0.38871564         -1.21167741  kBar
(Free)E+ p_basis*V_orbitals  =       -4128.159868
(Free)Eharris+ p_basis*V_orbitals  =       -4128.159868
     spin moment: S , {S} =    0.00000   0.00000   0.00000  -0.00000

siesta: Electric dipole (a.u.)  =    1.646723    0.168579    0.000000
siesta: Electric dipole (Debye) =    4.185556    0.428487    0.000000

cite: Please see "GC.bib" for an exhaustive BiBTeX file.
cite: Please clearly indicate Siesta version in published work: v4.1.5-1-g384057250
cite: This calculation has made use of the following articles
cite: which are encouraged to be cited in a published work.
        Primary SIESTA paper
          DOI: www.doi.org/10.1088/0953-8984/14/11/302
        Spin-orbit coupling (on-site approximation)
          DOI: www.doi.org/10.1088/0953-8984/19/19/489001


WARNING: alloc-realloc-dealloc name mismatch
         Name: atomlist isa
         Size:              -116. Bytes
         Node:     0
         Subsequent mismatches will not be reported
>> End of run:   4-JUL-2023   9:31:03
Job completed
