Executable      : siesta-5
Version         : 5.1-MaX-41-g6ad11e234
Architecture    : x86_64
Compiler version: GNU-11.4.0
Compiler flags  : -DSIESTA__METIS -fallow-argument-mismatch -O3 -march=native
Parallelisations: MPI, OpenMP
* OpenMP version: 201511
NetCDF support
NetCDF-4 support
NetCDF-4 MPI-IO support
METIS ordering support
Lua support
Native ELPA support
DFT-D3 support
Wannier90 wrapper support

Runtime information:
* Directory : /home/wind/Documents/Si_DNA2/C/Base_Pairs/AT_GGA_OP
* Running on 8 nodes in parallel.
* Running 1 OpenMP threads.
* Running 8 processes.
* OpenMP NOT bound (please bind threads!)
* OpenMP runtime schedule DYNAMIC, chunks 1
** Changing chunk size:
** OpenMP runtime schedule DYNAMIC, chunks 32
** OpenMP (trying to FORCE nesting)
* OpenMP allows 255 nested levels.
>> Start of run:   2-SEP-2024  20:58:08

                           *********************** 
                           *  WELCOME TO SIESTA  * 
                           *********************** 

 NOTE: Siesta V5 introduces some new defaults for basis-set generation
 NOTE: which might lead to slightly different numerical results.
 NOTE: Please see the manual for full details and compatibility measures.


reinit: Reading from standard input
reinit: Dumping input in INPUT_TMP.47026
************************** Dump of input data file ****************************
# mpirun -np 8 siesta-5 < AT.fdf > AT.out
SystemLabel      AT
NumberOfAtoms    30
NumberOfSpecies  4
%block ChemicalSpeciesLabel
    1    1  H   ../../../Pseudos/PBE/H/H.psml
    2    7  N   ../../../Pseudos/PBE/N/N.psml
    3    6  C   ../../../Pseudos/PBE/C/C.psml
    4    8  O   ../../../Pseudos/PBE/O/O.psml
%endblock ChemicalSpeciesLabel
############################################
# This overrides Defaults.fdf configuration
############################################
MD.Steps                    1000
%block Geometry.Constraints
    atom [6]
%endblock
AtomicCoordinatesFormat NotScaledCartesianAng
%block AtomicCoordinatesAndAtomicSpecies
     6.958000000    -5.037000000     2.040000000    1
     5.785000000    -4.219000000     1.620000000    2
     4.470000000    -4.580000000     1.610000000    3
     4.172000000    -5.550000000     1.980000000    1
     3.676000000    -3.650000000     1.190000000    2
     4.530000000    -2.594000000     0.910000000    3
     4.301000000    -1.290000000     0.430000000    3
     3.084000000    -0.815000000     0.130000000    2
     2.981000000     0.130000000    -0.211000000    1
     2.270000000    -1.402000000     0.245000000    1
     5.377000000    -0.499000000     0.260000000    2
     6.579000000    -0.971000000     0.560000000    3
     7.448000000    -0.343000000     0.431000000    1
     6.922000000    -2.156000000     1.020000000    2
     5.825000000    -2.930000000     1.170000000    3
     6.958000000     5.037000000    -2.040000000    1
     5.785000000     4.219000000    -1.620000000    2
     4.517000000     4.743000000    -1.670000000    3
     4.357000000     5.742000000    -2.047000000    1
     3.456000000     4.018000000    -1.300000000    3
     2.049000000     4.539000000    -1.330000000    3
     1.788000000     4.823000000    -2.349000000    1 #
     1.366000000     3.763000000    -0.983000000    1 #
     1.969000000     5.410000000    -0.679000000    1 #
     3.606000000     2.659000000    -0.830000000    3
     2.687000000     1.916000000    -0.470000000    4
     4.912000000     2.218000000    -0.820000000    2
     5.081000000     1.199000000    -0.471000000    1
     6.031000000     2.941000000    -1.200000000    3
     7.148000000     2.461000000    -1.150000000    4
%endblock AtomicCoordinatesAndAtomicSpecies
%include ../../../Defaults.fdf
************************** End of input data file *****************************

reinit: -----------------------------------------------------------------------
reinit: System Name: 
reinit: -----------------------------------------------------------------------
reinit: System Label: AT
reinit: -----------------------------------------------------------------------

NOTE on units for spin output: 
{S} is the spin magnetic moment, in units of the Bohr magneton,
assuming a g-factor for the electron spin of exactly 2.
The spin magnetic moment is then numerically equal to the charge inbalance,
in units of electrons, between the spin-up and -down channels.


initatom: Reading input for the pseudopotentials and atomic orbitals ----------
Species number:   1 Atomic number:    1 Label: H
Species number:   2 Atomic number:    7 Label: N
Species number:   3 Atomic number:    6 Label: C
Species number:   4 Atomic number:    8 Label: O

Ground state valence configuration (from tables):   1s01  2p00  3d00  4f00
Ground state valence configuration (from tables):   2s02  2p03  3d00  4f00
Ground state valence configuration (from tables):   2s02  2p02  3d00  4f00
Ground state valence configuration (from tables):   2s02  2p04  3d00  4f00

---- Processing specs for species: H
Reading pseudopotential information in PSML from:
  ../../../Pseudos/PBE/H/H.psml
PSML file version: 1.1
Using libxc ids:  101 130
GGA--PBE XC_GGA_X_PBE--XC_GGA_C_PBE pb
PSML uuid: d073b020-3e16-11ef-6770-6689b1f74d2d

---- Processing specs for species: N
Reading pseudopotential information in PSML from:
  ../../../Pseudos/PBE/N/N.psml
PSML file version: 1.1
Using libxc ids:  101 130
GGA--PBE XC_GGA_X_PBE--XC_GGA_C_PBE pb
PSML uuid: c22083e0-3e3e-11ef-7253-eaffe77f5605

---- Processing specs for species: C
Reading pseudopotential information in PSML from:
  ../../../Pseudos/PBE/C/C.psml
PSML file version: 1.1
Using libxc ids:  101 130
GGA--PBE XC_GGA_X_PBE--XC_GGA_C_PBE pb
PSML uuid: b2c727b0-3e65-11ef-7b18-4b3656dbbbdf

---- Processing specs for species: O
Reading pseudopotential information in PSML from:
  ../../../Pseudos/PBE/O/O.psml
PSML file version: 1.1
Using libxc ids:  101 130
GGA--PBE XC_GGA_X_PBE--XC_GGA_C_PBE pb
PSML uuid: 09fbd140-685d-11ef-4271-a98e77ff8e27

---- Pseudopotential check for H 

Pseudopotential generated from a fully relativistic atomic calculation
There are spin-orbit semi-local pseudopotentials available

Pseudized shells:
1s( 1.00) rc: 0.05
Valence configuration for ps generation: 1s: Total charge:   1.000000

---- Pseudopotential check for N 

Pseudopotential generated from a fully relativistic atomic calculation
There are spin-orbit semi-local pseudopotentials available

Pseudized shells:
2s( 2.00) rc: 1.02
2p( 3.00) rc: 1.36
3d( 0.00) rc: 3.29
Valence configuration for ps generation: 2s:2p: Total charge:   5.000000

---- Pseudopotential check for C 

Pseudopotential generated from a fully relativistic atomic calculation
There are spin-orbit semi-local pseudopotentials available

Pseudized shells:
2s( 2.00) rc: 1.10
2p( 2.00) rc: 1.00
3d( 0.00) rc: 0.96
Valence configuration for ps generation: 2s:2p: Total charge:   4.000000

---- Pseudopotential check for O 

Pseudopotential generated from a fully relativistic atomic calculation
There are spin-orbit semi-local pseudopotentials available

Pseudized shells:
2s( 2.00) rc: 1.05
2p( 4.00) rc: 1.02
Valence configuration for ps generation: 2s:2p: Total charge:   6.000000
For H, standard SIESTA heuristics set lmxkb to 2
 (one more than the basis l, including polarization orbitals).
Use PS.lmax or PS.KBprojectors blocks to override.
For N, standard SIESTA heuristics set lmxkb to 3
 (one more than the basis l, including polarization orbitals).
Use PS.lmax or PS.KBprojectors blocks to override.
For C, standard SIESTA heuristics set lmxkb to 3
 (one more than the basis l, including polarization orbitals).
Use PS.lmax or PS.KBprojectors blocks to override.
For O, standard SIESTA heuristics set lmxkb to 3
 (one more than the basis l, including polarization orbitals).
Use PS.lmax or PS.KBprojectors blocks to override.
../../../Pseudos/PBE/H/H.psml pseudopotential only contains V_ls up to l=0 -- lmxkb reset.
../../../Pseudos/PBE/N/N.psml pseudopotential only contains V_ls up to l=2 -- lmxkb reset.
../../../Pseudos/PBE/C/C.psml pseudopotential only contains V_ls up to l=2 -- lmxkb reset.
../../../Pseudos/PBE/O/O.psml pseudopotential only contains V_ls up to l=1 -- lmxkb reset.

<basis_specs>
===============================================================================
H                    Z=   1    Mass=  1.0080        Charge= 0.17977+309
Lmxo=1 Lmxkb= 0    BasisType=split      Semic=F
L=0  Nsemic=0  Cnfigmx=1
          i=1  nzeta=2  polorb=1  (1s)  (to be polarized perturbatively)
            splnorm:   0.62000    
               vcte:    40.000    
               rinn:  -0.90000    
               qcoe:    0.0000    
               qyuk:    0.0000    
               qwid:   0.10000E-01
                rcs:    0.0000      0.0000    
            lambdas:    1.0000      1.0000    
L=1  Nsemic=0  Cnfigmx=2
          i=1  nzeta=0  polorb=0  (2p)  (perturbative polarization orbital) (from 1s)
===============================================================================
</basis_specs>

Filter: Requested cutoff:  290.000000 Ry
Using PAO.SplitTailNorm
atom: Called for H                     (Z =   1)
NOTE: H pseudopotential has channels up to l= 0
NOTE: PAOs with higher l will be generated with V_local
Maximum radius (at nrval) set to   50.00000 8518

read_vps: Pseudopotential generation method:
read_vps: ATM4.2.7  Troullier-Martins                       
Valence charge in pseudo generation:    1.00000

xc_check: Exchange-correlation functional:
xc_check: GGA Perdew, Burke & Ernzerhof 1996
V l=0 = -2*Zval/r beyond r=  0.0665
All V_l potentials equal beyond r=  0.0665
This should be close to max(r_c) in ps generation
All pots = -2*Zval/r beyond r=  0.0665
Using small-core scheme (local charge) for Vlocal

VLOCAL_FROM_CHLOCAL: 99.0% of the norm of Vloc inside   9809.099 Ry
VLOCAL_FROM_CHLOCAL: 99.9% of the norm of Vloc inside  22355.118 Ry
atom: Maximum radius for chlocal:    0.08171
atom: Maximum radius for r*vlocal+2*Zval:    0.07045

KBgen: Kleinman-Bylander projectors: 
GHOST: No ghost state for L =  0
KBproj: WARNING: Rc(0)=      0.2584
KBproj: WARNING: Cut off radius for the KB projector too small
   l= 0   rc=  0.258429   el= -0.477182   Ekb=-40.187490   kbcos= -0.006063

KBgen: Total number of Kleinman-Bylander projectors:   1
atom: -------------------------------------------------------------------------

atom: SANKEY-TYPE ORBITALS:
atom: Selected multiple-zeta basis: split     

SPLIT: Orbitals with angular momentum L= 0

SPLIT: Basis orbitals for state 1s

SPLIT: PAO cut-off radius determined from an
SPLIT: energy shift=  0.005000 Ry
Split based on tail norm

   izeta = 1
                 lambda =    1.000000
                     rc =    5.772464
                 energy =   -0.471503
                kinetic =    0.941611
    potential(screened) =   -1.413114
       potential(ionic) =   -1.936122
PAO Filter: Cutoff used:  142.10 Ry
PAO Filter: diagnostic kin energy tol:    0.003000 Ry
PAO Filter: Nominal cutoff (before filtering):  107.24 Ry
Filter:    Number of eigenfunctions  of the
           filtering kernel (total, used)= 55 20

   izeta = 2
                 rmatch =    1.661681
              splitnorm =    0.620000
                 energy =    1.741021
                kinetic =    5.838313
    potential(screened) =   -4.097292
       potential(ionic) =   -4.634502
PAO Filter: Cutoff used:  142.10 Ry
PAO Filter: diagnostic kin energy tol:    0.003000 Ry
PAO Filter: Nominal cutoff (before filtering):  829.51 Ry
Filter:    Number of eigenfunctions  of the
           filtering kernel (total, used)= 23  5
*Note: V_local used for l= 1

** Using vlocal for PAOs with L= 1

POLgen: Perturbative polarization orbital with L=  1

POLgen: Polarization orbital for state 1s
*Note: V_local used for lpol= 1

** Using vlocal for PAOs with L= 1
Split based on tail norm

   izeta = 1
                     rc =    5.772464
                 energy =    0.606793
                kinetic =    1.227790
    potential(screened) =   -0.620997
       potential(ionic) =   -1.099517
PAO Filter: diagnostic kin energy tol:    0.003000 Ry
PAO Filter: Nominal cutoff (before filtering):   49.50 Ry
Filter:    Number of eigenfunctions  of the
           filtering kernel (total, used)= 55 20
atom: Total number of Sankey-type orbitals:  5

atm_pop: Valence configuration (for local Pseudopot. screening):
 1s( 1.00)                                                            
 2p( 0.00)                                                            
Vna: chval, zval:    1.00000   1.00000

Vna:  Cut-off radius for the neutral-atom potential:   5.772464
VNA Filter: diagnostic kinetic energy tol:    0.003000 Ry
VNA Filter: Nominal cutoff (before filtering):22953.69 Ry
VNA Filter: Cutoff used:   290.00 Ry
Filter:    Number of eigenfunctions  of the
           filtering kernel (total, used)= 74 30

atom: _________________________________________________________________________

<basis_specs>
===============================================================================
N                    Z=   7    Mass=  14.007        Charge= 0.17977+309
Lmxo=2 Lmxkb= 2    BasisType=split      Semic=F
L=0  Nsemic=0  Cnfigmx=2
          i=1  nzeta=2  polorb=0  (2s)
            splnorm:   0.28000    
               vcte:    40.000    
               rinn:  -0.90000    
               qcoe:    0.0000    
               qyuk:    0.0000    
               qwid:   0.10000E-01
                rcs:    0.0000      0.0000    
            lambdas:    1.0000      1.0000    
L=1  Nsemic=0  Cnfigmx=2
          i=1  nzeta=2  polorb=1  (2p)  (to be polarized perturbatively)
            splnorm:   0.28000    
               vcte:    40.000    
               rinn:  -0.90000    
               qcoe:    0.0000    
               qyuk:    0.0000    
               qwid:   0.10000E-01
                rcs:    0.0000      0.0000    
            lambdas:    1.0000      1.0000    
L=2  Nsemic=0  Cnfigmx=3
          i=1  nzeta=0  polorb=0  (3d)  (perturbative polarization orbital) (from 2p)
-------------------------------------------------------------------------------
L=0  Nkbl=1  erefs: 0.17977+309
L=1  Nkbl=1  erefs: 0.17977+309
L=2  Nkbl=1  erefs: 0.17977+309
===============================================================================
</basis_specs>

Filter: Requested cutoff:  290.000000 Ry
Using PAO.SplitTailNorm
atom: Called for N                     (Z =   7)
Maximum radius (at nrval) set to   50.00000 8518

read_vps: Pseudopotential generation method:
read_vps: ATM4.2.7  Troullier-Martins                       
Valence charge in pseudo generation:    5.00000

xc_check: Exchange-correlation functional:
xc_check: GGA Perdew, Burke & Ernzerhof 1996
V l=0 = -2*Zval/r beyond r=  1.3505
V l=1 = -2*Zval/r beyond r=  1.3655
V l=2 = -2*Zval/r beyond r=  3.2536
All V_l potentials equal beyond r=  3.2406
This should be close to max(r_c) in ps generation
All pots = -2*Zval/r beyond r=  3.2536
Using small-core scheme (local charge) for Vlocal

VLOCAL_FROM_CHLOCAL: 99.0% of the norm of Vloc inside      4.134 Ry
VLOCAL_FROM_CHLOCAL: 99.9% of the norm of Vloc inside      9.420 Ry
atom: Maximum radius for chlocal:    3.83522
atom: Maximum radius for r*vlocal+2*Zval:    3.56452

KBgen: Kleinman-Bylander projectors: 
GHOST: No ghost state for L =  0
   l= 0   rc=  3.286396   el= -1.364990   Ekb= -4.084395   kbcos= -0.707149
GHOST: No ghost state for L =  1
j- l= 1   rc=  3.273237   el= -0.522099   Ekb= -9.337483   kbcos= -0.603568
GHOST: No ghost state for L =  1
j+ l= 1   rc=  3.273237   el= -0.520710   Ekb= -9.322891   kbcos= -0.603256
GHOST: No ghost state for L =  2
j- l= 2   rc=  3.699250   el=  0.012944   Ekb= -0.680922   kbcos= -0.059812
GHOST: No ghost state for L =  2
j+ l= 2   rc=  3.699250   el=  0.012944   Ekb= -0.679799   kbcos= -0.059842

KBgen: Total number of Kleinman-Bylander projectors:  17
atom: -------------------------------------------------------------------------

atom: SANKEY-TYPE ORBITALS:
atom: Selected multiple-zeta basis: split     

SPLIT: Orbitals with angular momentum L= 0

SPLIT: Basis orbitals for state 2s

SPLIT: PAO cut-off radius determined from an
SPLIT: energy shift=  0.005000 Ry
Split based on tail norm

   izeta = 1
                 lambda =    1.000000
                     rc =    4.256654
                 energy =   -1.359295
                kinetic =    1.255415
    potential(screened) =   -2.614710
       potential(ionic) =   -8.142669
PAO Filter: Cutoff used:  142.10 Ry
PAO Filter: diagnostic kin energy tol:    0.003000 Ry
PAO Filter: Nominal cutoff (before filtering):   67.41 Ry
Filter:    Number of eigenfunctions  of the
           filtering kernel (total, used)= 43 14

   izeta = 2
                 rmatch =    2.177654
              splitnorm =    0.280000
                 energy =   -0.492898
                kinetic =    3.145026
    potential(screened) =   -3.637923
       potential(ionic) =   -9.831650
PAO Filter: Cutoff used:  142.10 Ry
PAO Filter: diagnostic kin energy tol:    0.003000 Ry
PAO Filter: Nominal cutoff (before filtering):  127.34 Ry
Filter:    Number of eigenfunctions  of the
           filtering kernel (total, used)= 27  7

SPLIT: Orbitals with angular momentum L= 1

SPLIT: Basis orbitals for state 2p

SPLIT: PAO cut-off radius determined from an
SPLIT: energy shift=  0.005000 Ry
Split based on tail norm

   izeta = 1
                 lambda =    1.000000
                     rc =    5.274774
                 energy =   -0.515520
                kinetic =    3.486851
    potential(screened) =   -4.002371
       potential(ionic) =   -9.345231
PAO Filter: Cutoff used:  142.10 Ry
PAO Filter: diagnostic kin energy tol:    0.003000 Ry
PAO Filter: Nominal cutoff (before filtering):   56.62 Ry
Filter:    Number of eigenfunctions  of the
           filtering kernel (total, used)= 51 18

   izeta = 2
                 rmatch =    2.619595
              splitnorm =    0.280000
                 energy =   -0.135315
                kinetic =    6.112412
    potential(screened) =   -6.247726
       potential(ionic) =  -12.409759
PAO Filter: Cutoff used:  142.10 Ry
PAO Filter: diagnostic kin energy tol:    0.003000 Ry
PAO Filter: Nominal cutoff (before filtering):   63.34 Ry
Filter:    Number of eigenfunctions  of the
           filtering kernel (total, used)= 30  8

POLgen: Perturbative polarization orbital with L=  2

POLgen: Polarization orbital for state 2p
Split based on tail norm

   izeta = 1
                     rc =    5.274774
                 energy =    1.560155
                kinetic =    2.548459
    potential(screened) =   -0.988304
       potential(ionic) =   -5.056663
PAO Filter: diagnostic kin energy tol:    0.003000 Ry
PAO Filter: Nominal cutoff (before filtering):   61.33 Ry
Filter:    Number of eigenfunctions  of the
           filtering kernel (total, used)= 51 17
atom: Total number of Sankey-type orbitals: 13

atm_pop: Valence configuration (for local Pseudopot. screening):
 2s( 2.00)                                                            
 2p( 3.00)                                                            
 3d( 0.00)                                                            
Vna: chval, zval:    5.00000   5.00000

Vna:  Cut-off radius for the neutral-atom potential:   5.274774
VNA Filter: diagnostic kinetic energy tol:    0.003000 Ry
VNA Filter: Nominal cutoff (before filtering):   50.50 Ry
VNA Filter: Cutoff used:   290.00 Ry
Filter:    Number of eigenfunctions  of the
           filtering kernel (total, used)= 68 27

atom: _________________________________________________________________________

<basis_specs>
===============================================================================
C                    Z=   6    Mass=  12.011        Charge= 0.17977+309
Lmxo=2 Lmxkb= 2    BasisType=split      Semic=F
L=0  Nsemic=0  Cnfigmx=2
          i=1  nzeta=2  polorb=0  (2s)
            splnorm:   0.28000    
               vcte:    40.000    
               rinn:  -0.90000    
               qcoe:    0.0000    
               qyuk:    0.0000    
               qwid:   0.10000E-01
                rcs:    0.0000      0.0000    
            lambdas:    1.0000      1.0000    
L=1  Nsemic=0  Cnfigmx=2
          i=1  nzeta=2  polorb=1  (2p)  (to be polarized perturbatively)
            splnorm:   0.28000    
               vcte:    40.000    
               rinn:  -0.90000    
               qcoe:    0.0000    
               qyuk:    0.0000    
               qwid:   0.10000E-01
                rcs:    0.0000      0.0000    
            lambdas:    1.0000      1.0000    
L=2  Nsemic=0  Cnfigmx=3
          i=1  nzeta=0  polorb=0  (3d)  (perturbative polarization orbital) (from 2p)
-------------------------------------------------------------------------------
L=0  Nkbl=1  erefs: 0.17977+309
L=1  Nkbl=1  erefs: 0.17977+309
L=2  Nkbl=1  erefs: 0.17977+309
===============================================================================
</basis_specs>

Filter: Requested cutoff:  290.000000 Ry
Using PAO.SplitTailNorm
atom: Called for C                     (Z =   6)
Maximum radius (at nrval) set to   50.00000 8518

read_vps: Pseudopotential generation method:
read_vps: ATM4.2.7  Troullier-Martins                       
Valence charge in pseudo generation:    4.00000

xc_check: Exchange-correlation functional:
xc_check: GGA Perdew, Burke & Ernzerhof 1996
V l=0 = -2*Zval/r beyond r=  1.5440
V l=1 = -2*Zval/r beyond r=  1.5440
V l=2 = -2*Zval/r beyond r=  1.5440
All V_l potentials equal beyond r=  1.0917
This should be close to max(r_c) in ps generation
All pots = -2*Zval/r beyond r=  1.5440
Using large-core scheme (fit) for Vlocal

atom: Estimated core radius    1.54400

atom: Including non-local core corrections could be a good idea
Fit of Vlocal with continuous 2nd derivative
Fitting vlocal at       1.0950
Choosing vlocal chloc cutoff:  5160  1.729904
qtot up to nchloc:    3.99992261
atom: Maximum radius for chlocal:    1.72990
atom: Maximum radius for r*vlocal+2*Zval:    1.72990

KBgen: Kleinman-Bylander projectors: 
GHOST: No ghost state for L =  0
   l= 0   rc=  1.092775   el= -1.010231   Ekb=  9.458959   kbcos=  0.268546
GHOST: No ghost state for L =  1
j- l= 1   rc=  1.124089   el= -0.388958   Ekb= -6.558040   kbcos= -0.208835
GHOST: No ghost state for L =  1
j+ l= 1   rc=  1.124089   el= -0.388361   Ekb= -6.536878   kbcos= -0.208625
GHOST: No ghost state for L =  2
j- l= 2   rc=  1.141229   el=  0.012917   Ekb= -2.945149   kbcos= -0.002285
GHOST: No ghost state for L =  2
j+ l= 2   rc=  1.141229   el=  0.012917   Ekb= -2.779662   kbcos= -0.002340

KBgen: Total number of Kleinman-Bylander projectors:  17
atom: -------------------------------------------------------------------------

atom: SANKEY-TYPE ORBITALS:
atom: Selected multiple-zeta basis: split     

SPLIT: Orbitals with angular momentum L= 0

SPLIT: Basis orbitals for state 2s

SPLIT: PAO cut-off radius determined from an
SPLIT: energy shift=  0.005000 Ry
Split based on tail norm

   izeta = 1
                 lambda =    1.000000
                     rc =    4.858714
                 energy =   -1.004485
                kinetic =    0.905437
    potential(screened) =   -1.909922
       potential(ionic) =   -5.480972
PAO Filter: Cutoff used:  142.10 Ry
PAO Filter: diagnostic kin energy tol:    0.003000 Ry
PAO Filter: Nominal cutoff (before filtering):   37.27 Ry
Filter:    Number of eigenfunctions  of the
           filtering kernel (total, used)= 48 17

   izeta = 2
                 rmatch =    2.567525
              splitnorm =    0.280000
                 energy =   -0.342998
                kinetic =    2.329205
    potential(screened) =   -2.672203
       potential(ionic) =   -6.653639
PAO Filter: Cutoff used:  142.10 Ry
PAO Filter: diagnostic kin energy tol:    0.003000 Ry
PAO Filter: Nominal cutoff (before filtering):   92.37 Ry
Filter:    Number of eigenfunctions  of the
           filtering kernel (total, used)= 30  8

SPLIT: Orbitals with angular momentum L= 1

SPLIT: Basis orbitals for state 2p

SPLIT: PAO cut-off radius determined from an
SPLIT: energy shift=  0.005000 Ry
Split based on tail norm

   izeta = 1
                 lambda =    1.000000
                     rc =    6.008450
                 energy =   -0.382852
                kinetic =    2.496059
    potential(screened) =   -2.878912
       potential(ionic) =   -6.319668
PAO Filter: Cutoff used:  142.10 Ry
PAO Filter: diagnostic kin energy tol:    0.003000 Ry
PAO Filter: Nominal cutoff (before filtering):   75.63 Ry
Filter:    Number of eigenfunctions  of the
           filtering kernel (total, used)= 57 21

   izeta = 2
                 rmatch =    3.113112
              splitnorm =    0.280000
                 energy =   -0.102258
                kinetic =    4.484352
    potential(screened) =   -4.586610
       potential(ionic) =   -8.555446
PAO Filter: Cutoff used:  142.10 Ry
PAO Filter: diagnostic kin energy tol:    0.003000 Ry
PAO Filter: Nominal cutoff (before filtering):   84.16 Ry
Filter:    Number of eigenfunctions  of the
           filtering kernel (total, used)= 34 10

POLgen: Perturbative polarization orbital with L=  2

POLgen: Polarization orbital for state 2p
Split based on tail norm

   izeta = 1
                     rc =    6.008450
                 energy =    1.072034
                kinetic =    2.197141
    potential(screened) =   -1.125106
       potential(ionic) =   -3.913062
PAO Filter: diagnostic kin energy tol:    0.003000 Ry
PAO Filter: Nominal cutoff (before filtering):   65.81 Ry
Filter:    Number of eigenfunctions  of the
           filtering kernel (total, used)= 57 20
atom: Total number of Sankey-type orbitals: 13

atm_pop: Valence configuration (for local Pseudopot. screening):
 2s( 2.00)                                                            
 2p( 2.00)                                                            
 3d( 0.00)                                                            
Vna: chval, zval:    4.00000   4.00000

Vna:  Cut-off radius for the neutral-atom potential:   6.008450
VNA Filter: diagnostic kinetic energy tol:    0.003000 Ry
VNA Filter: Nominal cutoff (before filtering):   48.87 Ry
VNA Filter: Cutoff used:   290.00 Ry
Filter:    Number of eigenfunctions  of the
           filtering kernel (total, used)= 77 31

atom: _________________________________________________________________________

<basis_specs>
===============================================================================
O                    Z=   8    Mass=  15.999        Charge= 0.17977+309
Lmxo=2 Lmxkb= 1    BasisType=split      Semic=F
L=0  Nsemic=0  Cnfigmx=2
          i=1  nzeta=2  polorb=0  (2s)
            splnorm:   0.28000    
               vcte:    40.000    
               rinn:  -0.90000    
               qcoe:    0.0000    
               qyuk:    0.0000    
               qwid:   0.10000E-01
                rcs:    0.0000      0.0000    
            lambdas:    1.0000      1.0000    
L=1  Nsemic=0  Cnfigmx=2
          i=1  nzeta=2  polorb=1  (2p)  (to be polarized perturbatively)
            splnorm:   0.28000    
               vcte:    40.000    
               rinn:  -0.90000    
               qcoe:    0.0000    
               qyuk:    0.0000    
               qwid:   0.10000E-01
                rcs:    0.0000      0.0000    
            lambdas:    1.0000      1.0000    
L=2  Nsemic=0  Cnfigmx=3
          i=1  nzeta=0  polorb=0  (3d)  (perturbative polarization orbital) (from 2p)
-------------------------------------------------------------------------------
L=0  Nkbl=1  erefs: 0.17977+309
L=1  Nkbl=1  erefs: 0.17977+309
===============================================================================
</basis_specs>

Filter: Requested cutoff:  290.000000 Ry
Using PAO.SplitTailNorm
atom: Called for O                     (Z =   8)
NOTE: O pseudopotential has channels up to l= 1
NOTE: PAOs with higher l will be generated with V_local
Maximum radius (at nrval) set to   50.00000 8518

read_vps: Pseudopotential generation method:
read_vps: ATM4.2.7  Troullier-Martins                       
Valence charge in pseudo generation:    6.00000

xc_check: Exchange-correlation functional:
xc_check: GGA Perdew, Burke & Ernzerhof 1996
V l=0 = -2*Zval/r beyond r=  1.1230
V l=1 = -2*Zval/r beyond r=  1.1184
All V_l potentials equal beyond r=  1.0390
This should be close to max(r_c) in ps generation
All pots = -2*Zval/r beyond r=  1.1230
Using small-core scheme (local charge) for Vlocal

VLOCAL_FROM_CHLOCAL: 99.0% of the norm of Vloc inside     40.211 Ry
VLOCAL_FROM_CHLOCAL: 99.9% of the norm of Vloc inside     91.641 Ry
atom: Maximum radius for chlocal:    1.25723
atom: Maximum radius for r*vlocal+2*Zval:    1.14816

KBgen: Kleinman-Bylander projectors: 
GHOST: No ghost state for L =  0
   l= 0   rc=  1.272524   el= -1.759797   Ekb= 11.287271   kbcos=  0.312215
GHOST: No ghost state for L =  1
j- l= 1   rc=  1.269961   el= -0.665560   Ekb= -8.895322   kbcos= -0.351626
GHOST: No ghost state for L =  1
j+ l= 1   rc=  1.271242   el= -0.662923   Ekb= -8.864233   kbcos= -0.351011

KBgen: Total number of Kleinman-Bylander projectors:   7
atom: -------------------------------------------------------------------------

atom: SANKEY-TYPE ORBITALS:
atom: Selected multiple-zeta basis: split     

SPLIT: Orbitals with angular momentum L= 0

SPLIT: Basis orbitals for state 2s

SPLIT: PAO cut-off radius determined from an
SPLIT: energy shift=  0.005000 Ry
Split based on tail norm

   izeta = 1
                 lambda =    1.000000
                     rc =    3.812214
                 energy =   -1.754187
                kinetic =    1.612054
    potential(screened) =   -3.366241
       potential(ionic) =  -11.288798
PAO Filter: Cutoff used:  142.10 Ry
PAO Filter: diagnostic kin energy tol:    0.003000 Ry
PAO Filter: Nominal cutoff (before filtering):   62.68 Ry
Filter:    Number of eigenfunctions  of the
           filtering kernel (total, used)= 40 13

   izeta = 2
                 rmatch =    1.895663
              splitnorm =    0.280000
                 energy =   -0.709709
                kinetic =    3.823914
    potential(screened) =   -4.533623
       potential(ionic) =  -13.470361
PAO Filter: Cutoff used:  142.10 Ry
PAO Filter: diagnostic kin energy tol:    0.003000 Ry
PAO Filter: Nominal cutoff (before filtering):  121.35 Ry
Filter:    Number of eigenfunctions  of the
           filtering kernel (total, used)= 25  6

SPLIT: Orbitals with angular momentum L= 1

SPLIT: Basis orbitals for state 2p

SPLIT: PAO cut-off radius determined from an
SPLIT: energy shift=  0.005000 Ry
Split based on tail norm

   izeta = 1
                 lambda =    1.000000
                     rc =    4.733759
                 energy =   -0.658185
                kinetic =    4.925190
    potential(screened) =   -5.583375
       potential(ionic) =  -13.277097
PAO Filter: Cutoff used:  142.10 Ry
PAO Filter: diagnostic kin energy tol:    0.003000 Ry
PAO Filter: Nominal cutoff (before filtering):   97.34 Ry
Filter:    Number of eigenfunctions  of the
           filtering kernel (total, used)= 47 16

   izeta = 2
                 rmatch =    2.269212
              splitnorm =    0.280000
                 energy =   -0.173027
                kinetic =    8.566037
    potential(screened) =   -8.739063
       potential(ionic) =  -17.643478
PAO Filter: Cutoff used:  142.10 Ry
PAO Filter: diagnostic kin energy tol:    0.003000 Ry
PAO Filter: Nominal cutoff (before filtering):  105.19 Ry
Filter:    Number of eigenfunctions  of the
           filtering kernel (total, used)= 28  6
*Note: V_local used for l= 2

** Using vlocal for PAOs with L= 2

POLgen: Perturbative polarization orbital with L=  2

POLgen: Polarization orbital for state 2p
*Note: V_local used for lpol= 2

** Using vlocal for PAOs with L= 2
Split based on tail norm

   izeta = 1
                     rc =    4.733759
                 energy =    2.106194
                kinetic =    3.893912
    potential(screened) =   -1.787718
       potential(ionic) =   -7.731298
PAO Filter: diagnostic kin energy tol:    0.003000 Ry
PAO Filter: Nominal cutoff (before filtering):  104.86 Ry
Filter:    Number of eigenfunctions  of the
           filtering kernel (total, used)= 47 15
atom: Total number of Sankey-type orbitals: 13

atm_pop: Valence configuration (for local Pseudopot. screening):
 2s( 2.00)                                                            
 2p( 4.00)                                                            
 3d( 0.00)                                                            
Vna: chval, zval:    6.00000   6.00000

Vna:  Cut-off radius for the neutral-atom potential:   4.733759
VNA Filter: diagnostic kinetic energy tol:    0.003000 Ry
VNA Filter: Nominal cutoff (before filtering):   51.69 Ry
VNA Filter: Cutoff used:   290.00 Ry
Filter:    Number of eigenfunctions  of the
           filtering kernel (total, used)= 62 24

atom: _________________________________________________________________________

prinput: Basis input 

PAO.BasisType split     

%block ChemicalSpeciesLabel
    1    1 H                       # Species index, atomic number, species label
    2    7 N                       # Species index, atomic number, species label
    3    6 C                       # Species index, atomic number, species label
    4    8 O                       # Species index, atomic number, species label
%endblock ChemicalSpeciesLabel

%block PAO.Basis                 # Define Basis set
# WARNING: This information might be incomplete!
H                     1                    # Species label, number of l-shells
 n=1   0   2 P   1                   # n, l, Nzeta, Polarization, NzetaPol
   5.772      1.662   
   1.000      1.000   
N                     2                    # Species label, number of l-shells
 n=2   0   2                         # n, l, Nzeta 
   4.257      2.178   
   1.000      1.000   
 n=2   1   2 P   1                   # n, l, Nzeta, Polarization, NzetaPol
   5.275      2.620   
   1.000      1.000   
C                     2                    # Species label, number of l-shells
 n=2   0   2                         # n, l, Nzeta 
   4.859      2.568   
   1.000      1.000   
 n=2   1   2 P   1                   # n, l, Nzeta, Polarization, NzetaPol
   6.008      3.113   
   1.000      1.000   
O                     2                    # Species label, number of l-shells
 n=2   0   2                         # n, l, Nzeta 
   3.812      1.896   
   1.000      1.000   
 n=2   1   2 P   1                   # n, l, Nzeta, Polarization, NzetaPol
   4.734      2.269   
   1.000      1.000   
%endblock PAO.Basis

prinput: ----------------------------------------------------------------------

Dumping basis to NetCDF file H.ion.nc
Dumping basis to NetCDF file N.ion.nc
Dumping basis to NetCDF file C.ion.nc
Dumping basis to NetCDF file O.ion.nc
coor:   Atomic-coordinates input format  =     Cartesian coordinates
coor:                                          (in Angstroms)

siesta: Atomic coordinates (Bohr) and species
siesta:     13.14871  -9.51855   3.85504  1        1
siesta:     10.93207  -7.97275   3.06136  2        2
siesta:      8.44708  -8.65495   3.04246  3        3
siesta:      7.88394 -10.48798   3.74166  1        4
siesta:      6.94663  -6.89750   2.24877  2        5
siesta:      8.56046  -4.90195   1.71965  3        6
siesta:      8.12771  -2.43775   0.81258  3        7
siesta:      5.82792  -1.54013   0.24566  2        8
siesta:      5.63327   0.24566  -0.39873  1        9
siesta:      4.28968  -2.64940   0.46298  1       10
siesta:     10.16106  -0.94297   0.49133  2       11
siesta:     12.43251  -1.83492   1.05825  3       12
siesta:     14.07468  -0.64818   0.81447  1       13
siesta:     13.08068  -4.07425   1.92752  2       14
siesta:     11.00765  -5.53690   2.21098  3       15
siesta:     13.14871   9.51855  -3.85504  1       16
siesta:     10.93207   7.97275  -3.06136  2       17
siesta:      8.53589   8.96297  -3.15584  3       18
siesta:      8.23354  10.85081  -3.86827  1       19
siesta:      6.53089   7.59292  -2.45664  3       20
siesta:      3.87205   8.57747  -2.51334  3       21
siesta:      3.37883   9.11415  -4.43897  1       22
siesta:      2.58137   7.11104  -1.85760  1       23
siesta:      3.72087  10.22342  -1.28312  1       24
siesta:      6.81435   5.02478  -1.56847  3       25
siesta:      5.07769   3.62072  -0.88817  4       26
siesta:      9.28233   4.19141  -1.54958  2       27
siesta:      9.60170   2.26578  -0.89006  1       28
siesta:     11.39694   5.55768  -2.26767  3       29
siesta:     13.50776   4.65062  -2.17319  4       30

siesta: Automatic unit cell vectors (Ang):
siesta:   13.410444    0.000000    0.000000
siesta:    0.000000   19.141444    0.000000
siesta:    0.000000    0.000000   11.548144

siesta: System type = molecule  

initatomlists: Number of atoms, orbitals, and projectors:     30   302   314

siesta: ******************** Simulation parameters ****************************
siesta:
siesta: The following are some of the parameters of the simulation.
siesta: A complete list of the parameters used, including default values,
siesta: can be found in file out.fdf
siesta:
redata: Spin configuration                          = spin-orbit+offsite
redata: Number of spin components                   = 8
redata: Time-Reversal Symmetry                      = F
redata: Spin spiral                                 = F
redata: Long output                                 =   F
redata: Number of Atomic Species                    =        4
redata: Charge density info will appear in .RHO file
redata: Write Mulliken Pop.                         = NO
redata: Matel table size (NRTAB)                    =     1024
redata: Mesh Cutoff                                 =   300.0000 Ry
redata: Net charge of the system                    =     0.0000 |e|
redata: Min. number of SCF Iter                     =        1
redata: Max. number of SCF Iter                     =      200
redata: SCF convergence failure will abort job
redata: SCF mix quantity                            = Hamiltonian
redata: Mix DM or H after convergence               =   F
redata: Recompute H after scf cycle                 =   F
redata: Mix DM in first SCF step                    =   T
redata: Write Pulay info on disk                    =   F
redata: New DM Occupancy tolerance                  = 0.000000000001
redata: No kicks to SCF
redata: DM Mixing Weight for Kicks                  =     0.5000
redata: Require Harris convergence for SCF          =   F
redata: Harris energy tolerance for SCF             =     0.000100 eV
redata: Require DM convergence for SCF              =   T
redata: DM tolerance for SCF                        =     0.000008
redata: Require EDM convergence for SCF             =   F
redata: EDM tolerance for SCF                       =     0.001000 eV
redata: Require H convergence for SCF               =   T
redata: Hamiltonian tolerance for SCF               =     0.000001 eV
redata: Require (free) Energy convergence for SCF   =   F
redata: (free) Energy tolerance for SCF             =     0.000100 eV
redata: Using DFT-D3 dispersion                     =   F
redata: Using Saved Data (generic)                  =   F
redata: Use continuation files for DM               =   T
redata: Neglect nonoverlap interactions             =   F
redata: Method of Calculation                       = Diagonalization
redata: Electronic Temperature                      =     0.0000 K
redata: Fix the spin of the system                  =   F
redata: Split SR and SO contributions               =   F
redata: Max. number of TDED Iter                    =        1
redata: Number of TDED substeps                     =        3
redata: Dynamics option                             = Broyden coord. optimization
redata: Variable cell                               =   F
redata: Maximum number of optimization moves        =     1000
redata: Force tolerance                             =     0.0080 eV/Ang
mix.SCF: Pulay mixing                            = Pulay
mix.SCF:    Variant                              = stable
mix.SCF:    History steps                        = 6
mix.SCF:    Linear mixing weight                 =     0.250000
mix.SCF:    Mixing weight                        =     0.250000
mix.SCF:    SVD condition                        = 0.1000E-07
mix.SCF:    Restart steps                        = 24
mix.SCF:    Restart save steps                   = 3
mix.SCF: Spin-component mixing                   all
redata: Save all siesta data in one NC              =   F
redata: ***********************************************************************

%block SCF.Mixers
  Pulay
%endblock SCF.Mixers

%block SCF.Mixer.Pulay
  # Mixing method
  method pulay
  variant stable

  # Mixing options
  weight 0.2500
  weight.linear 0.2500
  history 6
  restart 24
  restart.save 3
%endblock SCF.Mixer.Pulay

DM_history_depth set to one: no extrapolation allowed by default for geometry relaxation
Size of DM history Fstack: 1
Total number of electrons:    98.000000
Total ionic charge:    98.000000

* ProcessorY, Blocksize:    4  38


* Orbital distribution balance (max,min):    38    36


siesta: k-grid: Number of k-points = 1
siesta: k-point is Gamma-only

diag: Algorithm                                     = ELPA-2stage
diag: ELPA GPU string key                           = nvidia-gpu
diag: Parallel over k                               =   F
diag: Use parallel 2D distribution                  =   T
diag: Parallel block-size                           = 38
diag: Parallel distribution                         =     2 x     4
diag: Used triangular part                          = Lower
diag: Absolute tolerance                            =  0.100E-15
diag: Orthogonalization factor                      =  0.100E-05
diag: Memory factor                                 =  1.0000

siesta: Constraint (1): pos
  [ 6 ]


ts: **************************************************************
ts: Save H and S matrices                           =    F
ts: Save DM and EDM matrices                        =    F
ts: Only save the overlap matrix S                  =    F
ts: **************************************************************

************************ Begin: TS CHECKS AND WARNINGS ************************
************************ End: TS CHECKS AND WARNINGS **************************


                     ====================================
                        Begin Broyden opt. move =      0
                     ====================================

outcell: Unit cell vectors (Ang):
       13.410444    0.000000    0.000000
        0.000000   19.141444    0.000000
        0.000000    0.000000   11.548144

outcell: Cell vector modules (Ang)   :   13.410444   19.141444   11.548144
outcell: Cell angles (23,13,12) (deg):     90.0000     90.0000     90.0000
outcell: Cell volume (Ang**3)        :   2964.3536
<dSpData1D:S at geom step 0
  <sparsity:sparsity for geom step 0
    nrows_g=302 nrows=38 sparsity=.0789 nnzs=7194, refcount: 8>
  <dData1D:(new from dSpData1D) n=7194, refcount: 1>
refcount: 1>
new_DM -- step:     1
Initializing Density Matrix...

Attempting to read DM from file... Failed...
DM filled with atomic data:
<dSpData2D:DM initialized from atoms
  <sparsity:sparsity for geom step 0
    nrows_g=302 nrows=38 sparsity=.0789 nnzs=7194, refcount: 9>
  <dData2D:DM n=7194 m=8, refcount: 1>
refcount: 1>
     spin moment: {S} , |S| = {    0.00000    0.00000   56.00000 }    56.00000

InitMesh: MESH = 144 x 200 x 128 = 3686400
InitMesh: Mesh cutoff (required, used) =   300.000   301.726 Ry
New grid distribution [1]: sub = 2
New grid distribution [2]: sub = 2
New grid distribution [3]: sub = 2
Setting up quadratic distribution...

stepf: Fermi-Dirac step function

siesta: Program's energy decomposition (eV):
siesta: Ebs     =      -947.502837
siesta: Eions   =     10763.861729
siesta: Ena     =      3527.566199
siesta: Ekin    =      3591.529709
siesta: Enl(+so)=     -1925.792863
siesta: Eso(nil)=         0.000000
siesta: Edftu   =         0.000000
siesta: DEna    =       -87.849978
siesta: DUscf   =        43.133973
siesta: DUext   =         0.000000
siesta: Ex      =     -1195.838121
siesta: Ec      =      -103.428906
siesta: Exc     =     -1299.267026
siesta: EbV     =         0.000000
siesta: eta*DQ  =         0.000000
siesta: Emadel  =         0.000000
siesta: Emeta   =         0.000000
siesta: Emolmec =         0.000000
siesta: Ekinion =         0.000000
siesta: Eharris =     -6869.350405
siesta: Etot    =     -6914.541715
siesta: FreeEng =     -6914.541715

        iscf     Eharris(eV)        E_KS(eV)     FreeEng(eV)     dDmax    Ef(eV) dHmax(eV)
   scf:    1    -6869.350405    -6914.541715    -6914.541715  0.924985 -5.263701189.772357
     spin moment: {S} , |S| = {    0.00004    0.00001    2.00004 }     2.00004
timer: Routine,Calls,Time,% = IterSCF        1       1.417   7.70
   scf:    2    -6909.619177    -6925.915777    -6925.915777  1.090036 -4.400634138.694518
     spin moment: {S} , |S| = {    0.00006    0.00000    2.00003 }     2.00003
   scf:    3    -6907.621923    -6929.948698    -6929.948698  0.948618 -4.355085116.405564
     spin moment: {S} , |S| = {    0.00002    0.00001    2.00003 }     2.00003
   scf:    4    -6935.591912    -6937.786702    -6937.786702  0.857127 -3.767058 44.353733
     spin moment: {S} , |S| = {    0.00004    0.00000    0.00001 }     0.00004
   scf:    5    -6941.412132    -6940.037675    -6940.037675  0.079340 -4.277253  9.182496
     spin moment: {S} , |S| = {    0.00004   -0.00000    0.00001 }     0.00004
   scf:    6    -6941.639901    -6940.947093    -6940.947093  0.051382 -4.461691  2.159713
     spin moment: {S} , |S| = {    0.00003   -0.00001    0.00000 }     0.00003
   scf:    7    -6941.310175    -6941.131255    -6941.131255  0.045333 -4.599859  1.023336
     spin moment: {S} , |S| = {    0.00002   -0.00000    0.00000 }     0.00002
   scf:    8    -6941.213592    -6941.176166    -6941.176166  0.028473 -3.415388  0.734127
     spin moment: {S} , |S| = {    0.00002   -0.00000    0.00000 }     0.00002
   scf:    9    -6941.196176    -6941.187488    -6941.187488  0.005990 -3.396825  0.723983
     spin moment: {S} , |S| = {    0.00002   -0.00000    0.00000 }     0.00002
   scf:   10    -6941.223286    -6941.204217    -6941.204217  0.016108 -3.416875  0.466450
     spin moment: {S} , |S| = {    0.00001   -0.00000    0.00000 }     0.00001
   scf:   11    -6941.230545    -6941.216518    -6941.216518  0.016180 -3.438121  0.300485
     spin moment: {S} , |S| = {    0.00001    0.00000    0.00000 }     0.00001
   scf:   12    -6941.229800    -6941.222293    -6941.222293  0.011192 -3.431442  0.136265
     spin moment: {S} , |S| = {    0.00000    0.00000    0.00000 }     0.00000
   scf:   13    -6941.225951    -6941.223896    -6941.223896  0.006423 -3.427441  0.058865
     spin moment: {S} , |S| = {    0.00000    0.00000    0.00000 }     0.00000
   scf:   14    -6941.224810    -6941.224290    -6941.224290  0.003207 -3.424792  0.017447
     spin moment: {S} , |S| = {    0.00000    0.00000    0.00000 }     0.00000
   scf:   15    -6941.224476    -6941.224372    -6941.224372  0.001242 -3.423944  0.011557
     spin moment: {S} , |S| = {    0.00000    0.00000    0.00000 }     0.00000
   scf:   16    -6941.224413    -6941.224391    -6941.224391  0.000442 -3.423399  0.009209
     spin moment: {S} , |S| = {    0.00000    0.00000    0.00000 }     0.00000
   scf:   17    -6941.224419    -6941.224404    -6941.224404  0.000374 -3.422886  0.006294
     spin moment: {S} , |S| = {    0.00000   -0.00000    0.00000 }     0.00000
   scf:   18    -6941.224410    -6941.224406    -6941.224406  0.000138 -3.422970  0.004665
     spin moment: {S} , |S| = {    0.00000   -0.00000    0.00000 }     0.00000
   scf:   19    -6941.224414    -6941.224410    -6941.224410  0.000273 -3.423411  0.002400
     spin moment: {S} , |S| = {    0.00000   -0.00000    0.00000 }     0.00000
   scf:   20    -6941.224411    -6941.224410    -6941.224410  0.000088 -3.423466  0.001489
     spin moment: {S} , |S| = {    0.00000   -0.00000    0.00000 }     0.00000
   scf:   21    -6941.224411    -6941.224410    -6941.224410  0.000083 -3.423495  0.000494
     spin moment: {S} , |S| = {    0.00000   -0.00000    0.00000 }     0.00000
   scf:   22    -6941.224410    -6941.224410    -6941.224410  0.000027 -3.423462  0.000141
     spin moment: {S} , |S| = {    0.00000   -0.00000    0.00000 }     0.00000
   scf:   23    -6941.224410    -6941.224410    -6941.224410  0.000010 -3.423461  0.000041
     spin moment: {S} , |S| = {    0.00000   -0.00000    0.00000 }     0.00000
   scf:   24    -6941.224410    -6941.224410    -6941.224410  0.000002 -3.423456  0.000023
     spin moment: {S} , |S| = {    0.00000   -0.00000    0.00000 }     0.00000
mix: Pulay -- resetting history
   scf:   25    -6941.224410    -6941.224410    -6941.224410  0.000001 -3.423455  0.000015
     spin moment: {S} , |S| = {    0.00000   -0.00000    0.00000 }     0.00000
   scf:   26    -6941.224410    -6941.224410    -6941.224410  0.000001 -3.423455  0.000009
     spin moment: {S} , |S| = {    0.00000   -0.00000    0.00000 }     0.00000
   scf:   27    -6941.224410    -6941.224410    -6941.224410  0.000001 -3.423455  0.000003
     spin moment: {S} , |S| = {    0.00000   -0.00000    0.00000 }     0.00000
   scf:   28    -6941.224410    -6941.224410    -6941.224410  0.000000 -3.423455  0.000003
     spin moment: {S} , |S| = {    0.00000   -0.00000    0.00000 }     0.00000
   scf:   29    -6941.224410    -6941.224410    -6941.224410  0.000000 -3.423455  0.000003
     spin moment: {S} , |S| = {    0.00000   -0.00000    0.00000 }     0.00000
   scf:   30    -6941.224410    -6941.224410    -6941.224410  0.000000 -3.423455  0.000001
     spin moment: {S} , |S| = {    0.00000   -0.00000    0.00000 }     0.00000
   scf:   31    -6941.224410    -6941.224410    -6941.224410  0.000000 -3.423455  0.000001
     spin moment: {S} , |S| = {    0.00000   -0.00000    0.00000 }     0.00000

SCF Convergence by DM+H criterion
max |DM_out - DM_in|         :     0.0000000661
max |H_out - H_in|      (eV) :     0.0000005468
SCF cycle converged after 31 iterations

Using DM_out to compute the final energy and forces

siesta: E_KS(eV) =            -6941.2244

siesta: E_KS - E_eggbox =     -6941.2244
     spin moment: {S} , |S| = {    0.00000   -0.00000    0.00000 }     0.00000

siesta: Atomic forces (eV/Ang):
     1   -6.337683    2.280386   -1.435114
     2    7.429372   -5.304619    2.678828
     3   -0.402046   -5.896508    2.178772
     4    2.447772    0.150730    0.046389
     5   -6.388242    1.898838   -1.328941
     6   -0.163007    2.367706   -0.872798
     7   -0.092985   -3.027226    0.997436
     8   -2.345744    0.121951   -0.428372
     9    0.295099    4.223181   -1.159856
    10   -2.054638   -2.963263    0.813568
    11   -1.174202    4.649396   -1.829869
    12    3.669577    2.351625   -0.427379
    13    2.199447   -0.137681    0.319843
    14    3.864393   -2.789719    1.406503
    15    0.608596    0.978844   -0.286510
    16   -2.302178   -3.201978    1.407810
    17    5.109216    5.941778   -2.637668
    18   -1.415997    1.409113   -0.475181
    19    1.161704    1.769580   -0.145030
    20   -2.328682   -0.425846    0.508093
    21    0.454374    0.094366   -0.092840
    22   -2.278237   -0.642477    0.240645
    23   -0.182647    0.164557   -0.040890
    24   -0.685554   -0.355099   -0.188207
    25   -1.415490    1.489084   -0.383023
    26   -1.350486   -0.676241    0.245024
    27    0.200255   -3.060015    0.998047
    28   -1.580325    1.498542   -0.720694
    29    3.041160   -1.823195    0.356446
    30    1.983304   -1.064928    0.190984
----------------------------------------
   Tot   -0.033874    0.020882   -0.063983
----------------------------------------
   Max    7.429372
   Res    2.377740    sqrt( Sum f_i^2 / 3N )
----------------------------------------
   Max    7.429372    constrained

Stress tensor Voigt[x,y,z,yz,xz,xy] (kbar):      -28.26      -21.95       -2.48        7.34       -1.76        1.62
(Free)E + p*V (eV/cell)    -6908.7286
Target enthalpy (eV/cell)    -6941.2244

Broyden_optim: max_history for broyden:   5
Broyden_optim: cycle on maxit: T
Broyden_optim: initial inverse jacobian:   1.0000

Broyden_optim: No of elements:     90

                     ====================================
                        Begin Broyden opt. move =      1
                     ====================================

outcell: Unit cell vectors (Ang):
       13.410444    0.000000    0.000000
        0.000000   19.141444    0.000000
        0.000000    0.000000   11.548144

outcell: Cell vector modules (Ang)   :   13.410444   19.141444   11.548144
outcell: Cell angles (23,13,12) (deg):     90.0000     90.0000     90.0000
outcell: Cell volume (Ang**3)        :   2964.3536
<dSpData1D:S at geom step 1
  <sparsity:sparsity for geom step 1
    nrows_g=302 nrows=38 sparsity=.0776 nnzs=7077, refcount: 8>
  <dData1D:(new from dSpData1D) n=7077, refcount: 1>
refcount: 1>
new_DM -- step:     2
Re-using DM from previous geometries...
Number of DMs in history: 1
 DM extrapolation coefficients: 
1   1.00000
New DM after history re-use:
<dSpData2D:SpM extrapolated using coords
  <sparsity:sparsity for geom step 1
    nrows_g=302 nrows=38 sparsity=.0776 nnzs=7077, refcount: 10>
  <dData2D:(temp array for extrapolation) n=7077 m=8, refcount: 1>
refcount: 1>
     spin moment: {S} , |S| = {    0.00000    0.00000   -0.00000 }     0.00000
Note: For starting DM, Qtot, Tr[D*S] =         98.00000000         97.48651648

InitMesh: MESH = 144 x 200 x 128 = 3686400
InitMesh: Mesh cutoff (required, used) =   300.000   301.726 Ry
New grid distribution [1]: sub = 2
New grid distribution [2]: sub = 2
New grid distribution [3]: sub = 2
Setting up quadratic distribution...

        iscf     Eharris(eV)        E_KS(eV)     FreeEng(eV)     dDmax    Ef(eV) dHmax(eV)
   scf:    1    -6940.365536    -6940.793514    -6940.793514  0.155098 -4.920466  5.972396
     spin moment: {S} , |S| = {    0.00000   -0.00000    0.00000 }     0.00000
   scf:    2    -6898.955223    -6929.991843    -6929.991843  0.179950 -1.938039 12.686370
     spin moment: {S} , |S| = {    0.00000   -0.00000    0.00000 }     0.00000
   scf:    3    -6948.320860    -6943.808498    -6943.808498  0.116961 -2.993965  1.055756
     spin moment: {S} , |S| = {    0.00000   -0.00000    0.00000 }     0.00000
   scf:    4    -6943.865775    -6943.875463    -6943.875463  0.014524 -2.939072  0.633758
     spin moment: {S} , |S| = {    0.00000   -0.00000    0.00000 }     0.00000
   scf:    5    -6943.895521    -6943.889336    -6943.889336  0.005345 -3.008826  0.169560
     spin moment: {S} , |S| = {    0.00000   -0.00000    0.00000 }     0.00000
   scf:    6    -6943.891259    -6943.890475    -6943.890475  0.001409 -3.049920  0.045585
     spin moment: {S} , |S| = {    0.00000   -0.00000   -0.00000 }     0.00000
   scf:    7    -6943.890725    -6943.890619    -6943.890619  0.000612 -3.062528  0.016851
     spin moment: {S} , |S| = {    0.00000   -0.00000   -0.00000 }     0.00000
   scf:    8    -6943.890659    -6943.890642    -6943.890642  0.000243 -3.064952  0.011789
     spin moment: {S} , |S| = {    0.00000   -0.00000   -0.00000 }     0.00000
   scf:    9    -6943.890657    -6943.890650    -6943.890650  0.000115 -3.064246  0.003920
     spin moment: {S} , |S| = {    0.00000   -0.00000   -0.00000 }     0.00000
   scf:   10    -6943.890653    -6943.890652    -6943.890652  0.000065 -3.063949  0.000874
     spin moment: {S} , |S| = {    0.00000   -0.00000   -0.00000 }     0.00000
   scf:   11    -6943.890652    -6943.890652    -6943.890652  0.000014 -3.063989  0.000459
     spin moment: {S} , |S| = {    0.00000   -0.00000    0.00000 }     0.00000
   scf:   12    -6943.890652    -6943.890652    -6943.890652  0.000007 -3.063976  0.000286
     spin moment: {S} , |S| = {    0.00000   -0.00000   -0.00000 }     0.00000
   scf:   13    -6943.890652    -6943.890652    -6943.890652  0.000006 -3.063964  0.000133
     spin moment: {S} , |S| = {    0.00000   -0.00000   -0.00000 }     0.00000
   scf:   14    -6943.890652    -6943.890652    -6943.890652  0.000002 -3.063958  0.000053
     spin moment: {S} , |S| = {    0.00000   -0.00000   -0.00000 }     0.00000
   scf:   15    -6943.890652    -6943.890652    -6943.890652  0.000001 -3.063958  0.000019
     spin moment: {S} , |S| = {    0.00000   -0.00000   -0.00000 }     0.00000
   scf:   16    -6943.890652    -6943.890652    -6943.890652  0.000000 -3.063957  0.000008
     spin moment: {S} , |S| = {    0.00000   -0.00000   -0.00000 }     0.00000
   scf:   17    -6943.890652    -6943.890652    -6943.890652  0.000000 -3.063955  0.000002
     spin moment: {S} , |S| = {    0.00000   -0.00000   -0.00000 }     0.00000
   scf:   18    -6943.890652    -6943.890652    -6943.890652  0.000000 -3.063954  0.000001
     spin moment: {S} , |S| = {    0.00000   -0.00000   -0.00000 }     0.00000

SCF Convergence by DM+H criterion
max |DM_out - DM_in|         :     0.0000000563
max |H_out - H_in|      (eV) :     0.0000005897
SCF cycle converged after 18 iterations

Using DM_out to compute the final energy and forces

siesta: E_KS(eV) =            -6943.8907
     spin moment: {S} , |S| = {    0.00000   -0.00000   -0.00000 }     0.00000

siesta: Atomic forces (eV/Ang):
     1   -3.079365    1.966478   -1.011268
     2   -2.083493   -0.747420    0.071425
     3    2.277930    9.446049   -3.493543
     4   -1.967454   -7.270184    2.710089
     5    2.023779   -3.769175    1.626717
     6   -0.171975   -1.896832    0.630116
     7   -0.983738    4.066275   -1.621120
     8   -0.316419   -0.253532   -0.069383
     9   -1.358713    0.473507    0.054586
    10   -1.373978   -2.170695    0.606297
    11    1.957392   -0.968705    0.554224
    12   -1.882613   -1.438362    0.305344
    13   -0.290055    3.678038   -1.469096
    14    0.950519    2.018910   -0.634176
    15    2.044376   -3.505621    1.462217
    16   -4.959868   -1.875245    1.176209
    17    1.045554    0.225308   -0.202265
    18    1.437441    0.033534   -0.218444
    19   -3.474152   -0.965299    0.673546
    20    1.532235    1.150750   -0.578365
    21   -1.478438    0.129801   -0.126848
    22    2.844811    2.262375   -1.328079
    23   -1.044829   -2.124190    1.504543
    24    1.953772    1.679804   -0.804383
    25   -0.378657   -2.342646    0.812162
    26   -0.139816    0.681678   -0.348150
    27   -0.261451    4.782140   -1.741297
    28    4.997469   -3.209929    1.577725
    29   -0.691384    1.320790   -0.365604
    30    2.903186   -1.406697    0.228696
----------------------------------------
   Tot    0.032064   -0.029095   -0.018123
----------------------------------------
   Max    9.446049
   Res    2.262946    sqrt( Sum f_i^2 / 3N )
----------------------------------------
   Max    9.446049    constrained

Stress tensor Voigt[x,y,z,yz,xz,xy] (kbar):        6.42       -9.29       -0.29        2.04        2.11       -5.35
(Free)E + p*V (eV/cell)    -6941.9400
Target enthalpy (eV/cell)    -6943.8907

                     ====================================
                        Begin Broyden opt. move =      2
                     ====================================

outcell: Unit cell vectors (Ang):
       13.410444    0.000000    0.000000
        0.000000   19.141444    0.000000
        0.000000    0.000000   11.548144

outcell: Cell vector modules (Ang)   :   13.410444   19.141444   11.548144
outcell: Cell angles (23,13,12) (deg):     90.0000     90.0000     90.0000
outcell: Cell volume (Ang**3)        :   2964.3536
<dSpData1D:S at geom step 2
  <sparsity:sparsity for geom step 2
    nrows_g=302 nrows=38 sparsity=.0782 nnzs=7131, refcount: 8>
  <dData1D:(new from dSpData1D) n=7131, refcount: 1>
refcount: 1>
new_DM -- step:     3
Re-using DM from previous geometries...
Number of DMs in history: 1
 DM extrapolation coefficients: 
1   1.00000
New DM after history re-use:
<dSpData2D:SpM extrapolated using coords
  <sparsity:sparsity for geom step 2
    nrows_g=302 nrows=38 sparsity=.0782 nnzs=7131, refcount: 10>
  <dData2D:(temp array for extrapolation) n=7131 m=8, refcount: 1>
refcount: 1>
     spin moment: {S} , |S| = {   -0.00000   -0.00000    0.00000 }     0.00000

InitMesh: MESH = 144 x 200 x 128 = 3686400
InitMesh: Mesh cutoff (required, used) =   300.000   301.726 Ry
New grid distribution [1]: sub = 2
New grid distribution [2]: sub = 2
New grid distribution [3]: sub = 2
Setting up quadratic distribution...

        iscf     Eharris(eV)        E_KS(eV)     FreeEng(eV)     dDmax    Ef(eV) dHmax(eV)
   scf:    1    -6944.110947    -6945.280632    -6945.280632  0.152248 -2.766425  2.919636
     spin moment: {S} , |S| = {    0.00000    0.00000    0.00000 }     0.00000
   scf:    2    -6936.888006    -6943.003892    -6943.003892  0.130962 -3.384189  8.563856
     spin moment: {S} , |S| = {    0.00000   -0.00000   -0.00000 }     0.00000
   scf:    3    -6946.444106    -6945.768553    -6945.768553  0.101419 -2.550140  0.720533
     spin moment: {S} , |S| = {   -0.00000    0.00000    0.00000 }     0.00000
   scf:    4    -6945.783585    -6945.777541    -6945.777541  0.005258 -2.561968  0.331859
     spin moment: {S} , |S| = {   -0.00000    0.00000    0.00000 }     0.00000
   scf:    5    -6945.779890    -6945.778844    -6945.778844  0.001646 -2.569737  0.144615
     spin moment: {S} , |S| = {   -0.00000    0.00000    0.00000 }     0.00000
   scf:    6    -6945.779314    -6945.779102    -6945.779102  0.000686 -2.571638  0.048567
     spin moment: {S} , |S| = {   -0.00000    0.00000    0.00000 }     0.00000
   scf:    7    -6945.779171    -6945.779140    -6945.779140  0.000487 -2.573040  0.006696
     spin moment: {S} , |S| = {   -0.00000    0.00000    0.00000 }     0.00000
   scf:    8    -6945.779145    -6945.779143    -6945.779143  0.000097 -2.573243  0.002897
     spin moment: {S} , |S| = {   -0.00000    0.00000    0.00000 }     0.00000
   scf:    9    -6945.779145    -6945.779144    -6945.779144  0.000077 -2.573450  0.001269
     spin moment: {S} , |S| = {   -0.00000    0.00000    0.00000 }     0.00000
   scf:   10    -6945.779144    -6945.779144    -6945.779144  0.000054 -2.573532  0.000711
     spin moment: {S} , |S| = {   -0.00000    0.00000    0.00000 }     0.00000
   scf:   11    -6945.779144    -6945.779144    -6945.779144  0.000020 -2.573552  0.000374
     spin moment: {S} , |S| = {   -0.00000    0.00000    0.00000 }     0.00000
   scf:   12    -6945.779144    -6945.779144    -6945.779144  0.000012 -2.573557  0.000107
     spin moment: {S} , |S| = {   -0.00000    0.00000    0.00000 }     0.00000
   scf:   13    -6945.779144    -6945.779144    -6945.779144  0.000003 -2.573559  0.000052
     spin moment: {S} , |S| = {   -0.00000    0.00000    0.00000 }     0.00000
   scf:   14    -6945.779144    -6945.779144    -6945.779144  0.000001 -2.573560  0.000027
     spin moment: {S} , |S| = {   -0.00000    0.00000    0.00000 }     0.00000
   scf:   15    -6945.779144    -6945.779144    -6945.779144  0.000001 -2.573561  0.000012
     spin moment: {S} , |S| = {   -0.00000    0.00000    0.00000 }     0.00000
   scf:   16    -6945.779144    -6945.779144    -6945.779144  0.000000 -2.573561  0.000005
     spin moment: {S} , |S| = {   -0.00000    0.00000    0.00000 }     0.00000
   scf:   17    -6945.779144    -6945.779144    -6945.779144  0.000000 -2.573561  0.000001
     spin moment: {S} , |S| = {   -0.00000    0.00000    0.00000 }     0.00000
   scf:   18    -6945.779144    -6945.779144    -6945.779144  0.000000 -2.573561  0.000001
     spin moment: {S} , |S| = {   -0.00000    0.00000    0.00000 }     0.00000

SCF Convergence by DM+H criterion
max |DM_out - DM_in|         :     0.0000000269
max |H_out - H_in|      (eV) :     0.0000005237
SCF cycle converged after 18 iterations

Using DM_out to compute the final energy and forces

siesta: E_KS(eV) =            -6945.7791
     spin moment: {S} , |S| = {   -0.00000    0.00000    0.00000 }     0.00000

siesta: Atomic forces (eV/Ang):
     1   -2.152914    1.691074   -0.831998
     2   -0.223516    0.469252   -0.190110
     3   -1.034527   -3.927146    1.473176
     4   -0.210242    0.955782   -0.523828
     5    1.065120   -0.777856    0.417412
     6    0.684654   -0.117842    0.101120
     7    0.224425    0.330189   -0.156376
     8   -1.686370    0.245442   -0.385243
     9   -0.537539    0.630189    0.003224
    10   -0.353048   -1.295116    0.395422
    11    0.498007    0.098150   -0.005287
    12    0.754878    0.250998   -0.007482
    13    2.499394   -0.280833    0.411046
    14    0.519587    0.371858   -0.087570
    15    1.037026   -0.867802    0.437770
    16   -4.868173   -1.252985    0.959983
    17    0.652886    0.012622   -0.089379
    18    1.009813    0.021527   -0.157874
    19    4.882830    1.171853   -1.060727
    20    0.381886    0.002352   -0.044124
    21   -0.576312   -0.070320   -0.080592
    22   -2.358191   -2.218206    2.462647
    23    1.460630    4.958955   -2.016181
    24   -2.961508   -2.664878    0.341756
    25    0.073429    0.830781   -0.338994
    26   -0.893812   -0.445655    0.133725
    27    0.753734   -0.692095    0.099847
    28   -0.879567    1.932279   -0.873731
    29    2.770836    0.746116   -0.533057
    30   -0.533128   -0.052211    0.134857
----------------------------------------
   Tot    0.000289    0.056475   -0.010569
----------------------------------------
   Max    4.958955
   Res    1.419315    sqrt( Sum f_i^2 / 3N )
----------------------------------------
   Max    4.958955    constrained

Stress tensor Voigt[x,y,z,yz,xz,xy] (kbar):       -7.20       -3.35        0.95        0.78        0.43       -1.21
(Free)E + p*V (eV/cell)    -6939.8585
Target enthalpy (eV/cell)    -6945.7791

                     ====================================
                        Begin Broyden opt. move =      3
                     ====================================

outcell: Unit cell vectors (Ang):
       13.410444    0.000000    0.000000
        0.000000   19.141444    0.000000
        0.000000    0.000000   11.548144

outcell: Cell vector modules (Ang)   :   13.410444   19.141444   11.548144
outcell: Cell angles (23,13,12) (deg):     90.0000     90.0000     90.0000
outcell: Cell volume (Ang**3)        :   2964.3536
<dSpData1D:S at geom step 3
  <sparsity:sparsity for geom step 3
    nrows_g=302 nrows=38 sparsity=.0782 nnzs=7132, refcount: 8>
  <dData1D:(new from dSpData1D) n=7132, refcount: 1>
refcount: 1>
new_DM -- step:     4
Re-using DM from previous geometries...
Number of DMs in history: 1
 DM extrapolation coefficients: 
1   1.00000
New DM after history re-use:
<dSpData2D:SpM extrapolated using coords
  <sparsity:sparsity for geom step 3
    nrows_g=302 nrows=38 sparsity=.0782 nnzs=7132, refcount: 10>
  <dData2D:(temp array for extrapolation) n=7132 m=8, refcount: 1>
refcount: 1>
     spin moment: {S} , |S| = {    0.00000   -0.00000   -0.00000 }     0.00000

InitMesh: MESH = 144 x 200 x 128 = 3686400
InitMesh: Mesh cutoff (required, used) =   300.000   301.726 Ry
New grid distribution [1]: sub = 2
New grid distribution [2]: sub = 2
New grid distribution [3]: sub = 2
Setting up quadratic distribution...

        iscf     Eharris(eV)        E_KS(eV)     FreeEng(eV)     dDmax    Ef(eV) dHmax(eV)
   scf:    1    -6945.547731    -6946.110906    -6946.110906  0.032153 -2.855085  1.609353
     spin moment: {S} , |S| = {   -0.00000   -0.00000   -0.00000 }     0.00000
   scf:    2    -6940.528632    -6944.513813    -6944.513813  0.058365 -3.173482  4.786350
     spin moment: {S} , |S| = {    0.00000    0.00000   -0.00000 }     0.00000
   scf:    3    -6946.725867    -6946.315691    -6946.315691  0.043901 -2.741225  0.180629
     spin moment: {S} , |S| = {    0.00000    0.00000   -0.00000 }     0.00000
   scf:    4    -6946.318361    -6946.317327    -6946.317327  0.001383 -2.741581  0.069619
     spin moment: {S} , |S| = {    0.00000    0.00000   -0.00000 }     0.00000
   scf:    5    -6946.317723    -6946.317552    -6946.317552  0.000571 -2.745807  0.024188
     spin moment: {S} , |S| = {    0.00000    0.00000   -0.00000 }     0.00000
   scf:    6    -6946.317606    -6946.317584    -6946.317584  0.000326 -2.750072  0.006772
     spin moment: {S} , |S| = {    0.00000    0.00000   -0.00000 }     0.00000
   scf:    7    -6946.317590    -6946.317588    -6946.317588  0.000115 -2.752296  0.002788
     spin moment: {S} , |S| = {    0.00000    0.00000   -0.00000 }     0.00000
   scf:    8    -6946.317588    -6946.317588    -6946.317588  0.000025 -2.752610  0.001431
     spin moment: {S} , |S| = {    0.00000    0.00000   -0.00000 }     0.00000
   scf:    9    -6946.317588    -6946.317588    -6946.317588  0.000019 -2.752631  0.000285
     spin moment: {S} , |S| = {    0.00000    0.00000   -0.00000 }     0.00000
   scf:   10    -6946.317588    -6946.317588    -6946.317588  0.000005 -2.752567  0.000118
     spin moment: {S} , |S| = {    0.00000    0.00000   -0.00000 }     0.00000
   scf:   11    -6946.317588    -6946.317588    -6946.317588  0.000001 -2.752558  0.000084
     spin moment: {S} , |S| = {   -0.00000    0.00000   -0.00000 }     0.00000
   scf:   12    -6946.317588    -6946.317588    -6946.317588  0.000001 -2.752558  0.000039
     spin moment: {S} , |S| = {    0.00000    0.00000   -0.00000 }     0.00000
   scf:   13    -6946.317588    -6946.317588    -6946.317588  0.000001 -2.752559  0.000017
     spin moment: {S} , |S| = {    0.00000    0.00000   -0.00000 }     0.00000
   scf:   14    -6946.317588    -6946.317588    -6946.317588  0.000000 -2.752559  0.000006
     spin moment: {S} , |S| = {    0.00000    0.00000   -0.00000 }     0.00000
   scf:   15    -6946.317588    -6946.317588    -6946.317588  0.000000 -2.752559  0.000002
     spin moment: {S} , |S| = {   -0.00000    0.00000   -0.00000 }     0.00000
   scf:   16    -6946.317588    -6946.317588    -6946.317588  0.000000 -2.752559  0.000001
     spin moment: {S} , |S| = {    0.00000    0.00000   -0.00000 }     0.00000

SCF Convergence by DM+H criterion
max |DM_out - DM_in|         :     0.0000000528
max |H_out - H_in|      (eV) :     0.0000006570
SCF cycle converged after 16 iterations

Using DM_out to compute the final energy and forces

siesta: E_KS(eV) =            -6946.3176
     spin moment: {S} , |S| = {    0.00000    0.00000   -0.00000 }     0.00000

siesta: Atomic forces (eV/Ang):
     1   -2.681372    0.933524   -0.591717
     2   -0.491473    0.107132   -0.079333
     3   -0.443871   -2.497944    0.976636
     4    0.819606    0.640804   -0.282836
     5    0.660207   -0.503835    0.282807
     6    1.128670   -0.323484    0.221508
     7   -0.202823   -0.143154   -0.029763
     8   -0.813667    0.072150   -0.228465
     9   -0.577999   -0.226674    0.294812
    10    0.331100    0.038374   -0.001018
    11    0.202685    0.301723   -0.108821
    12    1.156781    0.543311   -0.070142
    13    0.075915    0.570861   -0.224395
    14    0.506346   -0.192066    0.112394
    15    0.245069   -0.013564    0.040157
    16   -0.594544   -1.425655    0.582993
    17   -0.158832   -0.590217    0.217783
    18    0.659462    0.140588   -0.161575
    19   -6.145453   -0.078552    0.749974
    20    0.073290    0.383288   -0.150963
    21    0.706848    0.302012   -0.142789
    22    2.729100    2.550004   -5.034273
    23   -2.859864   -6.055010    2.457089
    24    3.509552    5.002404    1.639592
    25   -0.113922    0.003081   -0.034971
    26   -0.127230    0.195661   -0.161738
    27    0.642495    0.053625   -0.158374
    28    0.132844   -0.007635    0.047047
    29    0.728268    0.707221   -0.305337
    30    0.902336   -0.457295    0.124862
----------------------------------------
   Tot   -0.000477    0.030680   -0.018856
----------------------------------------
   Max    6.145453
   Res    1.486938    sqrt( Sum f_i^2 / 3N )
----------------------------------------
   Max    6.145453    constrained

Stress tensor Voigt[x,y,z,yz,xz,xy] (kbar):        4.18       -8.82       -3.40        1.23       -0.96        0.62
(Free)E + p*V (eV/cell)    -6941.3578
Target enthalpy (eV/cell)    -6946.3176

                     ====================================
                        Begin Broyden opt. move =      4
                     ====================================

outcell: Unit cell vectors (Ang):
       13.410444    0.000000    0.000000
        0.000000   19.141444    0.000000
        0.000000    0.000000   11.548144

outcell: Cell vector modules (Ang)   :   13.410444   19.141444   11.548144
outcell: Cell angles (23,13,12) (deg):     90.0000     90.0000     90.0000
outcell: Cell volume (Ang**3)        :   2964.3536
<dSpData1D:S at geom step 4
  <sparsity:sparsity for geom step 4
    nrows_g=302 nrows=38 sparsity=.0774 nnzs=7059, refcount: 8>
  <dData1D:(new from dSpData1D) n=7059, refcount: 1>
refcount: 1>
new_DM -- step:     5
Re-using DM from previous geometries...
Number of DMs in history: 1
 DM extrapolation coefficients: 
1   1.00000
New DM after history re-use:
<dSpData2D:SpM extrapolated using coords
  <sparsity:sparsity for geom step 4
    nrows_g=302 nrows=38 sparsity=.0774 nnzs=7059, refcount: 10>
  <dData2D:(temp array for extrapolation) n=7059 m=8, refcount: 1>
refcount: 1>
     spin moment: {S} , |S| = {    0.00000    0.00000    0.00000 }     0.00000

InitMesh: MESH = 144 x 200 x 128 = 3686400
InitMesh: Mesh cutoff (required, used) =   300.000   301.726 Ry
New grid distribution [1]: sub = 2
New grid distribution [2]: sub = 2
New grid distribution [3]: sub = 2
Setting up quadratic distribution...

        iscf     Eharris(eV)        E_KS(eV)     FreeEng(eV)     dDmax    Ef(eV) dHmax(eV)
   scf:    1    -6946.981616    -6946.854987    -6946.854987  0.028116 -2.912117  0.869840
     spin moment: {S} , |S| = {    0.00000    0.00000    0.00000 }     0.00000
   scf:    2    -6944.810853    -6946.264492    -6946.264492  0.043958 -3.018334  2.281293
     spin moment: {S} , |S| = {   -0.00000    0.00000    0.00000 }     0.00000
   scf:    3    -6947.069020    -6946.922725    -6946.922725  0.034732 -2.923181  0.203831
     spin moment: {S} , |S| = {    0.00000    0.00000    0.00000 }     0.00000
   scf:    4    -6946.923752    -6946.923300    -6946.923300  0.000801 -2.920234  0.091401
     spin moment: {S} , |S| = {    0.00000    0.00000    0.00000 }     0.00000
   scf:    5    -6946.923540    -6946.923440    -6946.923440  0.000638 -2.916813  0.012931
     spin moment: {S} , |S| = {    0.00000    0.00000    0.00000 }     0.00000
   scf:    6    -6946.923450    -6946.923446    -6946.923446  0.000134 -2.915714  0.003974
     spin moment: {S} , |S| = {    0.00000    0.00000    0.00000 }     0.00000
   scf:    7    -6946.923449    -6946.923448    -6946.923448  0.000071 -2.915679  0.001253
     spin moment: {S} , |S| = {    0.00000    0.00000    0.00000 }     0.00000
   scf:    8    -6946.923448    -6946.923448    -6946.923448  0.000015 -2.915576  0.000603
     spin moment: {S} , |S| = {    0.00000    0.00000    0.00000 }     0.00000
   scf:    9    -6946.923448    -6946.923448    -6946.923448  0.000011 -2.915454  0.000164
     spin moment: {S} , |S| = {    0.00000    0.00000    0.00000 }     0.00000
   scf:   10    -6946.923448    -6946.923448    -6946.923448  0.000006 -2.915407  0.000064
     spin moment: {S} , |S| = {    0.00000    0.00000    0.00000 }     0.00000
   scf:   11    -6946.923448    -6946.923448    -6946.923448  0.000002 -2.915400  0.000040
     spin moment: {S} , |S| = {    0.00000    0.00000    0.00000 }     0.00000
   scf:   12    -6946.923448    -6946.923448    -6946.923448  0.000002 -2.915396  0.000015
     spin moment: {S} , |S| = {    0.00000    0.00000    0.00000 }     0.00000
   scf:   13    -6946.923448    -6946.923448    -6946.923448  0.000001 -2.915395  0.000007
     spin moment: {S} , |S| = {    0.00000    0.00000    0.00000 }     0.00000
   scf:   14    -6946.923448    -6946.923448    -6946.923448  0.000000 -2.915395  0.000003
     spin moment: {S} , |S| = {    0.00000    0.00000    0.00000 }     0.00000
   scf:   15    -6946.923448    -6946.923448    -6946.923448  0.000000 -2.915395  0.000001
     spin moment: {S} , |S| = {    0.00000    0.00000    0.00000 }     0.00000
   scf:   16    -6946.923448    -6946.923448    -6946.923448  0.000000 -2.915395  0.000000
     spin moment: {S} , |S| = {    0.00000    0.00000    0.00000 }     0.00000

SCF Convergence by DM+H criterion
max |DM_out - DM_in|         :     0.0000000392
max |H_out - H_in|      (eV) :     0.0000004088
SCF cycle converged after 16 iterations

Using DM_out to compute the final energy and forces

siesta: E_KS(eV) =            -6946.9234
     spin moment: {S} , |S| = {    0.00000    0.00000    0.00000 }     0.00000

siesta: Atomic forces (eV/Ang):
     1   -3.205454    0.136253   -0.334711
     2   -1.100809    0.074289   -0.127646
     3    0.159716   -0.187430    0.132993
     4    1.760226   -0.106729    0.122925
     5    0.521951   -0.730645    0.358355
     6    1.260105   -0.644016    0.347622
     7   -0.359328    0.001874   -0.093987
     8   -0.213256   -0.101608   -0.096120
     9   -0.070153   -0.129970    0.232770
    10    0.255355    0.084169   -0.019594
    11    0.198338    0.155141   -0.054347
    12    0.737367    0.284824   -0.028137
    13   -0.449020    0.955152   -0.438043
    14    0.495713   -0.167515    0.101319
    15   -0.089080    0.141727   -0.059700
    16   -1.140734   -0.557531    0.309229
    17   -0.473743   -0.635120    0.266625
    18    0.095282    0.106967   -0.085931
    19   -0.841027    0.367346    0.030886
    20    0.307705    0.282813   -0.143795
    21   -0.152028    0.420980   -0.021695
    22   -0.031415   -0.397232    4.507186
    23    1.167934    3.920075   -1.574860
    24   -0.898630   -2.940088   -3.231367
    25    0.030849   -0.238153    0.028827
    26    0.109354    0.371641   -0.239217
    27    0.366177    0.566386   -0.313570
    28    0.304047   -0.890253    0.407137
    29    0.114796    0.253150   -0.083563
    30    1.119019   -0.358545    0.070434
----------------------------------------
   Tot   -0.020743    0.037951   -0.029977
----------------------------------------
   Max    4.507186
   Res    0.984081    sqrt( Sum f_i^2 / 3N )
----------------------------------------
   Max    4.507186    constrained

Stress tensor Voigt[x,y,z,yz,xz,xy] (kbar):        5.05       -0.60        4.08        0.79        0.01        2.22
(Free)E + p*V (eV/cell)    -6952.1800
Target enthalpy (eV/cell)    -6946.9234

                     ====================================
                        Begin Broyden opt. move =      5
                     ====================================

outcell: Unit cell vectors (Ang):
       13.410444    0.000000    0.000000
        0.000000   19.141444    0.000000
        0.000000    0.000000   11.548144

outcell: Cell vector modules (Ang)   :   13.410444   19.141444   11.548144
outcell: Cell angles (23,13,12) (deg):     90.0000     90.0000     90.0000
outcell: Cell volume (Ang**3)        :   2964.3536
<dSpData1D:S at geom step 5
  <sparsity:sparsity for geom step 5
    nrows_g=302 nrows=38 sparsity=.0774 nnzs=7059, refcount: 8>
  <dData1D:(new from dSpData1D) n=7059, refcount: 1>
refcount: 1>
new_DM -- step:     6
Re-using DM from previous geometries...
Number of DMs in history: 1
 DM extrapolation coefficients: 
1   1.00000
New DM after history re-use:
<dSpData2D:SpM extrapolated using coords
  <sparsity:sparsity for geom step 5
    nrows_g=302 nrows=38 sparsity=.0774 nnzs=7059, refcount: 10>
  <dData2D:(temp array for extrapolation) n=7059 m=8, refcount: 1>
refcount: 1>
[...]

        iscf     Eharris(eV)        E_KS(eV)     FreeEng(eV)     dDmax    Ef(eV) dHmax(eV)
   scf:    1    -6947.631532    -6947.630977    -6947.630977  0.000049 -3.075771  0.002279
     spin moment: {S} , |S| = {   -0.00000   -0.00000    0.00000 }     0.00000
   scf:    2    -6947.630974    -6947.630976    -6947.630976  0.000096 -3.074954  0.006471
     spin moment: {S} , |S| = {   -0.00000    0.00000    0.00000 }     0.00000
   scf:    3    -6947.630977    -6947.630977    -6947.630977  0.000071 -3.075533  0.000094
     spin moment: {S} , |S| = {   -0.00000   -0.00000    0.00000 }     0.00000
   scf:    4    -6947.630977    -6947.630977    -6947.630977  0.000001 -3.075511  0.000043
     spin moment: {S} , |S| = {   -0.00000   -0.00000    0.00000 }     0.00000
   scf:    5    -6947.630977    -6947.630977    -6947.630977  0.000001 -3.075499  0.000013
     spin moment: {S} , |S| = {   -0.00000   -0.00000    0.00000 }     0.00000
   scf:    6    -6947.630977    -6947.630977    -6947.630977  0.000001 -3.075495  0.000004
     spin moment: {S} , |S| = {   -0.00000   -0.00000    0.00000 }     0.00000
   scf:    7    -6947.630977    -6947.630977    -6947.630977  0.000000 -3.075495  0.000001
     spin moment: {S} , |S| = {   -0.00000   -0.00000    0.00000 }     0.00000
   scf:    8    -6947.630977    -6947.630977    -6947.630977  0.000000 -3.075495  0.000000
     spin moment: {S} , |S| = {   -0.00000   -0.00000   -0.00000 }     0.00000

SCF Convergence by DM+H criterion
max |DM_out - DM_in|         :     0.0000000383
max |H_out - H_in|      (eV) :     0.0000004292
SCF cycle converged after 8 iterations

Using DM_out to compute the final energy and forces

siesta: E_KS(eV) =            -6947.6310
     spin moment: {S} , |S| = {   -0.00000   -0.00000   -0.00000 }     0.00000

siesta: Atomic forces (eV/Ang):
     1    0.000821   -0.003647   -0.006350
     2   -0.001189   -0.001504   -0.003554
     3   -0.000886    0.000534    0.000498
     4   -0.003204   -0.000348    0.003064
     5   -0.000785    0.001404    0.002803
     6    0.018130   -0.002413    0.018585
     7    0.000881   -0.000149   -0.000549
     8    0.000803    0.000902    0.001878
     9    0.000544    0.001038    0.000655
    10   -0.000530   -0.000621    0.004776
    11    0.001098   -0.001495   -0.003546
    12    0.001092   -0.002580   -0.006504
    13   -0.002145   -0.004479   -0.008903
    14    0.001043   -0.003461   -0.006657
    15    0.000357   -0.001728   -0.003610
    16    0.001774    0.000015    0.001932
    17    0.001484    0.000082    0.001126
    18    0.001569   -0.000320   -0.000965
    19    0.002528   -0.000212   -0.000483
    20    0.002000   -0.000979   -0.003133
    21    0.001349   -0.000716   -0.006356
    22    0.003341   -0.000041   -0.006588
    23    0.004667    0.001392   -0.008511
    24   -0.001150   -0.003077   -0.007847
    25    0.000170   -0.001255   -0.001241
    26    0.001265   -0.000489   -0.001308
    27    0.000670   -0.000231   -0.000460
    28    0.003515   -0.001371   -0.000592
    29    0.005097   -0.002110    0.000569
    30   -0.000395    0.000218    0.000413
----------------------------------------
   Tot    0.043916   -0.027639   -0.040857
----------------------------------------
   Max    0.018585
   Res    0.003960    sqrt( Sum f_i^2 / 3N )
----------------------------------------
   Max    0.008903    constrained

Stress tensor Voigt[x,y,z,yz,xz,xy] (kbar):        0.02        0.01        0.01        0.04        0.01       -0.02
(Free)E + p*V (eV/cell)    -6947.6619
Target enthalpy (eV/cell)    -6947.6310

                     ====================================
                        Begin Broyden opt. move =    474
                     ====================================

outcell: Unit cell vectors (Ang):
       13.410444    0.000000    0.000000
        0.000000   19.141444    0.000000
        0.000000    0.000000   11.548144

outcell: Cell vector modules (Ang)   :   13.410444   19.141444   11.548144
outcell: Cell angles (23,13,12) (deg):     90.0000     90.0000     90.0000
outcell: Cell volume (Ang**3)        :   2964.3536
<dSpData1D:S at geom step 474
  <sparsity:sparsity for geom step 474
    nrows_g=302 nrows=38 sparsity=.0804 nnzs=7329, refcount: 8>
  <dData1D:(new from dSpData1D) n=7329, refcount: 1>
refcount: 1>
new_DM -- step:   475
Re-using DM from previous geometries...
Number of DMs in history: 1
 DM extrapolation coefficients: 
1   1.00000
New DM after history re-use:
<dSpData2D:SpM extrapolated using coords
  <sparsity:sparsity for geom step 474
    nrows_g=302 nrows=38 sparsity=.0804 nnzs=7329, refcount: 10>
  <dData2D:(temp array for extrapolation) n=7329 m=8, refcount: 1>
refcount: 1>
     spin moment: {S} , |S| = {   -0.00000   -0.00000    0.00000 }     0.00000

InitMesh: MESH = 144 x 200 x 128 = 3686400
InitMesh: Mesh cutoff (required, used) =   300.000   301.726 Ry
New grid distribution [1]: sub = 2
New grid distribution [2]: sub = 2
New grid distribution [3]: sub = 2
Setting up quadratic distribution...

        iscf     Eharris(eV)        E_KS(eV)     FreeEng(eV)     dDmax    Ef(eV) dHmax(eV)
   scf:    1    -6947.631216    -6947.630981    -6947.630981  0.000013 -3.075547  0.000501
     spin moment: {S} , |S| = {   -0.00000    0.00000   -0.00000 }     0.00000
   scf:    2    -6947.630980    -6947.630981    -6947.630981  0.000017 -3.075564  0.001231
     spin moment: {S} , |S| = {   -0.00000    0.00000    0.00000 }     0.00000
   scf:    3    -6947.630981    -6947.630981    -6947.630981  0.000013 -3.075566  0.000100
     spin moment: {S} , |S| = {   -0.00000    0.00000    0.00000 }     0.00000
   scf:    4    -6947.630981    -6947.630981    -6947.630981  0.000001 -3.075583  0.000019
     spin moment: {S} , |S| = {   -0.00000    0.00000    0.00000 }     0.00000
   scf:    5    -6947.630981    -6947.630981    -6947.630981  0.000000 -3.075586  0.000008
     spin moment: {S} , |S| = {   -0.00000   -0.00000    0.00000 }     0.00000
   scf:    6    -6947.630981    -6947.630981    -6947.630981  0.000000 -3.075586  0.000002
     spin moment: {S} , |S| = {   -0.00000   -0.00000    0.00000 }     0.00000
   scf:    7    -6947.630981    -6947.630981    -6947.630981  0.000000 -3.075586  0.000001
     spin moment: {S} , |S| = {   -0.00000   -0.00000   -0.00000 }     0.00000
   scf:    8    -6947.630981    -6947.630981    -6947.630981  0.000000 -3.075586  0.000000
     spin moment: {S} , |S| = {   -0.00000   -0.00000    0.00000 }     0.00000

SCF Convergence by DM+H criterion
max |DM_out - DM_in|         :     0.0000000107
max |H_out - H_in|      (eV) :     0.0000003485
SCF cycle converged after 8 iterations

Using DM_out to compute the final energy and forces

siesta: E_KS(eV) =            -6947.6310
     spin moment: {S} , |S| = {   -0.00000   -0.00000    0.00000 }     0.00000

siesta: Atomic forces (eV/Ang):
     1   -0.001699   -0.004008   -0.006423
     2   -0.000452   -0.001660   -0.003387
     3   -0.001150    0.000079    0.000658
     4   -0.001419   -0.001255    0.004740
     5   -0.000775    0.001518    0.002767
     6    0.018236   -0.002396    0.018576
     7    0.000989   -0.000102   -0.000558
     8    0.000647    0.000827    0.001910
     9    0.002077    0.001800    0.000381
    10   -0.000335   -0.000428    0.004718
    11    0.001226   -0.001447   -0.003549
    12    0.000999   -0.002704   -0.006389
    13   -0.001631   -0.006015   -0.008365
    14    0.001007   -0.002033   -0.007592
    15    0.000218   -0.001730   -0.003650
    16    0.000577    0.000459    0.001894
    17    0.001613    0.000108    0.001128
    18    0.001845   -0.000258   -0.001051
    19    0.006154   -0.000139   -0.001084
    20    0.001912   -0.001020   -0.003142
    21    0.001743   -0.000640   -0.006088
    22    0.003522    0.001562   -0.012244
    23    0.001626   -0.003905   -0.005244
    24   -0.001548   -0.000641   -0.004742
    25    0.000478   -0.001131   -0.001308
    26    0.001169   -0.000227   -0.001406
    27    0.000644   -0.000198   -0.000450
    28    0.000357   -0.001121   -0.000777
    29    0.005217   -0.002114    0.000559
    30   -0.000321    0.000141    0.000419
----------------------------------------
   Tot    0.042926   -0.028678   -0.039698
----------------------------------------
   Max    0.018576
   Res    0.004041    sqrt( Sum f_i^2 / 3N )
----------------------------------------
   Max    0.012244    constrained

Stress tensor Voigt[x,y,z,yz,xz,xy] (kbar):        0.02        0.01        0.01        0.04        0.01       -0.02
(Free)E + p*V (eV/cell)    -6947.6581
Target enthalpy (eV/cell)    -6947.6310

                     ====================================
                        Begin Broyden opt. move =    475
                     ====================================

outcell: Unit cell vectors (Ang):
       13.410444    0.000000    0.000000
        0.000000   19.141444    0.000000
        0.000000    0.000000   11.548144

outcell: Cell vector modules (Ang)   :   13.410444   19.141444   11.548144
outcell: Cell angles (23,13,12) (deg):     90.0000     90.0000     90.0000
outcell: Cell volume (Ang**3)        :   2964.3536
<dSpData1D:S at geom step 475
  <sparsity:sparsity for geom step 475
    nrows_g=302 nrows=38 sparsity=.0804 nnzs=7329, refcount: 8>
  <dData1D:(new from dSpData1D) n=7329, refcount: 1>
refcount: 1>
new_DM -- step:   476
Re-using DM from previous geometries...
Number of DMs in history: 1
 DM extrapolation coefficients: 
1   1.00000
New DM after history re-use:
<dSpData2D:SpM extrapolated using coords
  <sparsity:sparsity for geom step 475
    nrows_g=302 nrows=38 sparsity=.0804 nnzs=7329, refcount: 10>
  <dData2D:(temp array for extrapolation) n=7329 m=8, refcount: 1>
refcount: 1>
     spin moment: {S} , |S| = {   -0.00000   -0.00000   -0.00000 }     0.00000

InitMesh: MESH = 144 x 200 x 128 = 3686400
InitMesh: Mesh cutoff (required, used) =   300.000   301.726 Ry
New grid distribution [1]: sub = 2
New grid distribution [2]: sub = 2
New grid distribution [3]: sub = 2
Setting up quadratic distribution...

        iscf     Eharris(eV)        E_KS(eV)     FreeEng(eV)     dDmax    Ef(eV) dHmax(eV)
   scf:    1    -6947.631626    -6947.630982    -6947.630982  0.000023 -3.075613  0.001024
     spin moment: {S} , |S| = {   -0.00000    0.00000    0.00000 }     0.00000
   scf:    2    -6947.630982    -6947.630982    -6947.630982  0.000023 -3.075826  0.002204
     spin moment: {S} , |S| = {   -0.00000   -0.00000   -0.00000 }     0.00000
   scf:    3    -6947.630982    -6947.630982    -6947.630982  0.000017 -3.075728  0.000096
     spin moment: {S} , |S| = {   -0.00000   -0.00000    0.00000 }     0.00000
   scf:    4    -6947.630982    -6947.630982    -6947.630982  0.000001 -3.075760  0.000031
     spin moment: {S} , |S| = {   -0.00000   -0.00000    0.00000 }     0.00000
   scf:    5    -6947.630982    -6947.630982    -6947.630982  0.000000 -3.075764  0.000013
     spin moment: {S} , |S| = {   -0.00000   -0.00000    0.00000 }     0.00000
   scf:    6    -6947.630982    -6947.630982    -6947.630982  0.000000 -3.075766  0.000003
     spin moment: {S} , |S| = {   -0.00000   -0.00000    0.00000 }     0.00000
   scf:    7    -6947.630982    -6947.630982    -6947.630982  0.000000 -3.075766  0.000002
     spin moment: {S} , |S| = {   -0.00000    0.00000    0.00000 }     0.00000
   scf:    8    -6947.630982    -6947.630982    -6947.630982  0.000000 -3.075766  0.000001
     spin moment: {S} , |S| = {   -0.00000   -0.00000    0.00000 }     0.00000

SCF Convergence by DM+H criterion
max |DM_out - DM_in|         :     0.0000000129
max |H_out - H_in|      (eV) :     0.0000006302
SCF cycle converged after 8 iterations

Using DM_out to compute the final energy and forces

siesta: E_KS(eV) =            -6947.6310
     spin moment: {S} , |S| = {   -0.00000   -0.00000    0.00000 }     0.00000

siesta: Atomic forces (eV/Ang):
     1   -0.003108   -0.004352   -0.006412
     2   -0.000031   -0.001517   -0.003353
     3   -0.001368   -0.000513    0.000908
     4    0.000156    0.000123    0.004276
     5   -0.000627    0.001332    0.002716
     6    0.018498   -0.002394    0.018603
     7    0.001089   -0.000073   -0.000583
     8   -0.000011    0.000268    0.002092
     9   -0.001429   -0.004744    0.002390
    10    0.002661    0.006191    0.002786
    11    0.001385   -0.001365   -0.003572
    12    0.000884   -0.002755   -0.006307
    13   -0.001380   -0.007892   -0.007614
    14    0.001341   -0.001813   -0.007720
    15    0.000038   -0.001827   -0.003702
    16    0.001926    0.000007    0.001979
    17    0.001565   -0.000037    0.001173
    18    0.002529   -0.000365   -0.001147
    19    0.004049   -0.000012   -0.000926
    20    0.001721   -0.000910   -0.003136
    21    0.001458   -0.000715   -0.006091
    22    0.003312    0.000257   -0.006987
    23    0.001199   -0.001273   -0.006900
    24   -0.001824   -0.003165   -0.007246
    25    0.001298   -0.000718   -0.001524
    26    0.000933    0.000080   -0.001516
    27    0.000357   -0.000332   -0.000327
    28   -0.000138    0.000465   -0.001452
    29    0.005463   -0.002082    0.000540
    30   -0.000209   -0.000003    0.000432
----------------------------------------
   Tot    0.041738   -0.030135   -0.038622
----------------------------------------
   Max    0.018603
   Res    0.004052    sqrt( Sum f_i^2 / 3N )
----------------------------------------
   Max    0.007892    constrained

Stress tensor Voigt[x,y,z,yz,xz,xy] (kbar):        0.02        0.02        0.01        0.04        0.01       -0.02
(Free)E + p*V (eV/cell)    -6947.6663
Target enthalpy (eV/cell)    -6947.6310

outcoor: Relaxed atomic coordinates (Ang):                  
    6.52047157   -4.96159724    1.96254316   1       1  H
    5.75572897   -4.34634128    1.65054976   2       2  N
    4.35043051   -4.66429009    1.65888261   3       3  C
    4.03730297   -5.64380423    1.99564224   1       4  H
    3.53324438   -3.63456212    1.21447597   2       5  N
    4.53000000   -2.59400000    0.91000000   3       6  C
    4.29906835   -1.28300010    0.42922834   3       7  C
    3.00245674   -0.78150071    0.16272266   2       8  N
    2.90010886    0.27906189   -0.14381733   1       9  H
    2.23967817   -1.49389669    0.37570451   1      10  H
    5.42995101   -0.43173844    0.19849504   2      11  N
    6.71303066   -0.97637517    0.48735602   3      12  C
    7.55814342   -0.29765695    0.28834613   1      13  H
    7.05310698   -2.24998204    0.98256721   2      14  N
    5.85536105   -2.98895911    1.16041279   3      15  C
    6.69906845    4.82471221   -1.90712190   1      16  H
    5.84795297    4.27787886   -1.65630839   2      17  N
    4.50685381    4.80325966   -1.70020715   3      18  C
    4.34192890    5.83976003   -2.04653200   1      19  H
    3.41325662    4.06633279   -1.33662598   3      20  C
    2.01962077    4.61302014   -1.38422557   3      21  C
    1.75081767    4.89987518   -2.40714284   1      22  H
    1.30888039    3.85029468   -1.04125098   1      23  H
    1.91112760    5.49724686   -0.74388923   1      24  H
    3.57580434    2.69203650   -0.90375704   3      25  C
    2.62822412    1.94001154   -0.57583417   4      26  O
    4.93691634    2.18272930   -0.86071991   2      27  N
    5.06973901    1.18200311   -0.48203997   1      28  H
    6.14705904    2.90495403   -1.19340872   3      29  C
    7.28575500    2.45613527   -1.11491204   4      30  O

siesta: Program's energy decomposition (eV):
siesta: Ebs     =     -1294.542724
siesta: Eions   =     10763.861729
siesta: Ena     =      3513.579912
siesta: Ekin    =      3299.185804
siesta: Enl(+so)=     -1716.295682
siesta: Eso(nil)=         0.000000
siesta: Edftu   =         0.000000
siesta: DEna    =       -47.522908
siesta: DUscf   =        10.018014
siesta: DUext   =         0.000000
siesta: Ex      =     -1140.947486
siesta: Ec      =      -101.786907
siesta: Exc     =     -1242.734393
siesta: EbV     =         0.000000
siesta: eta*DQ  =         0.000000
siesta: Emadel  =         0.000000
siesta: Emeta   =         0.000000
siesta: Emolmec =         0.000000
siesta: Ekinion =         0.000000
siesta: Eharris =     -6947.630982
siesta: Etot    =     -6947.630982
siesta: FreeEng =     -6947.630982

siesta: Final energy (eV):
siesta:  Band Struct. =   -1294.542724
siesta:       Kinetic =    3299.185804
siesta:       Hartree =    9998.386754
siesta:         Edftu =       0.000000
siesta:      Eso(nil) =       0.000000
siesta:    Ext. field =       0.000000
siesta:         Exch. =   -1140.947486
siesta:         Corr. =    -101.786907
siesta:     Bulk bias =       0.000000
siesta:   Exch.-corr. =   -1242.734393
siesta:  Ion-electron =  -22976.095589
siesta:       Ion-ion =    3973.626442
siesta:       Ekinion =       0.000000
siesta: D3 dispersion =       0.000000
siesta:         Total =   -6947.630982
siesta:         Fermi =      -3.075766

siesta: Atomic forces (eV/Ang):
siesta:      1   -0.003108   -0.004352   -0.006412
siesta:      2   -0.000031   -0.001517   -0.003353
siesta:      3   -0.001368   -0.000513    0.000908
siesta:      4    0.000156    0.000123    0.004276
siesta:      5   -0.000627    0.001332    0.002716
siesta:      6    0.018498   -0.002394    0.018603
siesta:      7    0.001089   -0.000073   -0.000583
siesta:      8   -0.000011    0.000268    0.002092
siesta:      9   -0.001429   -0.004744    0.002390
siesta:     10    0.002661    0.006191    0.002786
siesta:     11    0.001385   -0.001365   -0.003572
siesta:     12    0.000884   -0.002755   -0.006307
siesta:     13   -0.001380   -0.007892   -0.007614
siesta:     14    0.001341   -0.001813   -0.007720
siesta:     15    0.000038   -0.001827   -0.003702
siesta:     16    0.001926    0.000007    0.001979
siesta:     17    0.001565   -0.000037    0.001173
siesta:     18    0.002529   -0.000365   -0.001147
siesta:     19    0.004049   -0.000012   -0.000926
siesta:     20    0.001721   -0.000910   -0.003136
siesta:     21    0.001458   -0.000715   -0.006091
siesta:     22    0.003312    0.000257   -0.006987
siesta:     23    0.001199   -0.001273   -0.006900
siesta:     24   -0.001824   -0.003165   -0.007246
siesta:     25    0.001298   -0.000718   -0.001524
siesta:     26    0.000933    0.000080   -0.001516
siesta:     27    0.000357   -0.000332   -0.000327
siesta:     28   -0.000138    0.000465   -0.001452
siesta:     29    0.005463   -0.002082    0.000540
siesta:     30   -0.000209   -0.000003    0.000432
siesta: ----------------------------------------
siesta:    Tot    0.041738   -0.030135   -0.038622

siesta: Stress tensor (static) (eV/Ang**3):
siesta:     0.000013   -0.000011    0.000004
siesta:    -0.000011    0.000014    0.000023
siesta:     0.000004    0.000023    0.000009

siesta: Cell volume =       2964.353588 Ang**3

siesta: Pressure (static):
siesta:                Solid            Molecule  Units
siesta:          -0.00000013         -0.00000018  Ry/Bohr**3
siesta:          -0.00001191         -0.00001620  eV/Ang**3
siesta:          -0.01908037         -0.02595895  kBar
(Free)E+ p_basis*V_orbitals  =       -6937.090766
(Free)Eharris+ p_basis*V_orbitals  =       -6937.090766
     spin moment: {S} , |S| = {   -0.00000   -0.00000    0.00000 }     0.00000

siesta: Electric dipole (a.u.)  =   -0.148224    0.537971   -0.121869
siesta: Electric dipole (Debye) =   -0.376747    1.367386   -0.309760

cite: Please see "AT.bib" for an exhaustive BiBTeX file.
cite: Please clearly indicate Siesta version in published work: 5.1-MaX-41-g6ad11e234
cite: This calculation has made use of the following articles
cite: which are encouraged to be cited in a published work.
        Primary SIESTA paper
          DOI: www.doi.org/10.1088/0953-8984/14/11/302
        Spin-orbit coupling (off-site approximation)
          DOI: www.doi.org/10.1088/0953-8984/24/8/086005
        ELPA library
          DOI: www.doi.org/10.1088/0953-8984/26/21/213201


>> End of run:   3-SEP-2024   7:47:31
Job completed
