Siesta Version  : v4.1.5-1-g384057250
Architecture    : gcc
Compiler version: GNU Fortran (Ubuntu 11.4.0-1ubuntu1~22.04) 11.4.0
Compiler flags  : mpifort -O2 -fPIC -ftree-vectorize -fallow-argument-mismatch
PP flags        : -DFC_HAVE_ABORT -DMPI -DSIESTA__FLOOK -DSIESTA__METIS -DSIESTA__MUMPS -DCDF -DNCDF -DNCDF_4 -DNCDF_PARALLEL -DSIESTA__MRRR -DSIESTA__ELPA
Libraries       : libncdf.a libfdict.a  -lflookall -ldl -lnetcdff -lnetcdf -lhdf5_hl -lhdf5 -lhdf5_fortran -lz -lscalapack-openmpi -lopenblas -lmetis -lzmumps -lcmumps -ldmumps -lmumps_common -lpord -lsmumps -lesmumps -lscotch -lscotcherr -fopenmp -lelpa
PARALLEL version
NetCDF support
NetCDF-4 support
NetCDF-4 MPI-IO support
METIS ordering support
Lua support

* Running on 8 nodes in parallel
>> Start of run:   1-FEB-2024  20:35:01

                           ***********************       
                           *  WELCOME TO SIESTA  *       
                           ***********************       

reinit: Reading from standard input
reinit: Dumped input in INPUT_TMP.71653
************************** Dump of input data file ****************************
# mpirun -np 4 siesta-4.1.5 < GC.fdf > GC.out &
SystemLabel      GC
NumberOfAtoms    29
NumberOfSpecies  4
%block ChemicalSpeciesLabel
    1    1  H
    2    7  N
    3   14  Si
    4    8  O
%endblock ChemicalSpeciesLabel
############################################
# This overrides Defaults.fdf configuration
############################################
MD.TypeOfRun                Verlet # CG, Verlet
MD.Steps                    0
MaxSCFIterations            200
SCF.MustConverge            F
AtomicCoordinatesFormat NotScaledCartesianAng
%block AtomicCoordinatesAndAtomicSpecies
    1.6258521467662836 2.7172356461519174 -0.0  1  1  H
    0.9193654167662837 1.9271994661519174 -0.0  2  2  N
    -0.8109214932337163 2.368563376151917 0.0  3  3  Si
    -0.9667011732337163 3.8585556361519173 0.0  1  4  H
    -2.3342431132337165 0.8096558561519173 -0.0  3  5  Si
    -3.8174307432337167 1.0524862161519173 -0.0  1  6  H
    -1.1358522532337163 -1.1036203038480827 -0.0  3  7  Si
    -1.9018777132337163 -2.6363370438480827 -0.0  2  8  N
    -1.3116311632337163 -3.593550073848083 0.0  1  9  H
    -2.9535000332337162 -2.7167972738480826 -0.0  1  10  H
    0.5803478067662837 -1.0484459938480828 0.0  2  11  N
    1.6553704267662837 0.28189284615191734 -0.0  3  12  Si
    3.2640437467662835 0.2630825861519174 -0.0  4  13  O
    5.6164483 -7.44953905 0.0  1  14  H
    4.58206954 -7.2320376 0.0  2  15  N
    3.29666389 -8.492636 0.0  3  16  Si
    3.80117524 -9.90371886 -0.0  1  17  H
    1.65934232 -8.01362137 0.0  2  18  N
    1.68097912 -6.20463398 -0.0  3  19  Si
    0.54543521 -4.28636135 0.0  3  20  Si
    -1.03431493 -3.94450034 0.0  4  21  O
    1.73226934 -2.87719605 0.0  2  22  N
    1.20957366 -1.92961761 -0.0  1  23  H
    3.50853448 -2.77677601 0.0  3  24  Si
    4.13684451 -1.17938608 0.0  2  25  N
    3.54296161 -0.26248101 0.0  1  26  H
    5.18364407 -1.05231197 -0.0  1  27  H
    4.63288658 -4.07521596 -0.0  2  28  N
    3.79410501 -5.58634043 0.0  3  29  Si
%endblock AtomicCoordinatesAndAtomicSpecies
#############
# Unit Cell
#############
LatticeConstant 1.0 Ang
%block LatticeVectors
    30.00000    0.000000    0.000000
    0.000000    45.00000    0.000000
    0.000000    0.000000    10.00000
%endblock LatticeVectors
%include ../../../../Defaults.fdf
************************** End of input data file *****************************

reinit: -----------------------------------------------------------------------
reinit: System Name: 
reinit: -----------------------------------------------------------------------
reinit: System Label: GC
reinit: -----------------------------------------------------------------------

initatom: Reading input for the pseudopotentials and atomic orbitals ----------
Species number:   1 Atomic number:    1 Label: H
Species number:   2 Atomic number:    7 Label: N
Species number:   3 Atomic number:   14 Label: Si
Species number:   4 Atomic number:    8 Label: O

Ground state valence configuration:   1s01
Reading pseudopotential information in formatted form from H.psf

Pseudopotential generated from a relativistic atomic calculation

Valence configuration for pseudopotential generation:
1s( 1.00) rc: 0.01
2p( 0.00) rc: 0.60
3d( 0.00) rc: 1.99
4f( 0.00) rc: 2.49
Ground state valence configuration:   2s02  2p03
Reading pseudopotential information in formatted form from N.psf

Pseudopotential generated from a relativistic atomic calculation

Valence configuration for pseudopotential generation:
2s( 2.00) rc: 0.94
2p( 3.00) rc: 0.59
3d( 0.00) rc: 3.46
4f( 0.00) rc: 2.47
Ground state valence configuration:   3s02  3p02
Reading pseudopotential information in formatted form from Si.psf

Pseudopotential generated from a relativistic atomic calculation

Valence configuration for pseudopotential generation:
3s( 2.00) rc: 1.67
3p( 2.00) rc: 2.04
3d( 0.00) rc: 2.89
4f( 0.00) rc: 2.49
Ground state valence configuration:   2s02  2p04
Reading pseudopotential information in formatted form from O.psf

Pseudopotential generated from a relativistic atomic calculation

Valence configuration for pseudopotential generation:
2s( 2.00) rc: 0.45
2p( 4.00) rc: 0.92
3d( 0.00) rc: 2.24
4f( 0.00) rc: 0.25
For H, standard SIESTA heuristics set lmxkb to 2
 (one more than the basis l, including polarization orbitals).
Use PS.lmax or PS.KBprojectors blocks to override.
For N, standard SIESTA heuristics set lmxkb to 3
 (one more than the basis l, including polarization orbitals).
Use PS.lmax or PS.KBprojectors blocks to override.
For Si, standard SIESTA heuristics set lmxkb to 3
 (one more than the basis l, including polarization orbitals).
Use PS.lmax or PS.KBprojectors blocks to override.
For O, standard SIESTA heuristics set lmxkb to 3
 (one more than the basis l, including polarization orbitals).
Use PS.lmax or PS.KBprojectors blocks to override.

<basis_specs>
===============================================================================
H                    Z=   1    Mass=  1.0100        Charge= 0.17977+309
Lmxo=0 Lmxkb= 2    BasisType=split      Semic=F
L=0  Nsemic=0  Cnfigmx=1
          i=1  nzeta=2  polorb=1  (1s)
            splnorm:   0.62000    
               vcte:    0.0000    
               rinn:    0.0000    
               qcoe:    0.0000    
               qyuk:    0.0000    
               qwid:   0.10000E-01
                rcs:    0.0000      0.0000    
            lambdas:    1.0000      1.0000    
-------------------------------------------------------------------------------
L=0  Nkbl=1  erefs: 0.17977+309
L=1  Nkbl=1  erefs: 0.17977+309
L=2  Nkbl=1  erefs: 0.17977+309
===============================================================================
</basis_specs>

atom: Called for H                     (Z =   1)

read_vps: Pseudopotential generation method:
read_vps: ATM4.2.7  Troullier-Martins                       
Valence charge for ps generation:    1.00000

xc_check: Exchange-correlation functional:
xc_check: GGA Perdew, Burke & Ernzerhof 1996
V l=0 = -2*Zval/r beyond r=  0.0098
V l=1 = -2*Zval/r beyond r=  0.5817
V l=2 = -2*Zval/r beyond r=  1.9372
All V_l potentials equal beyond r=  1.9372
This should be close to max(r_c) in ps generation
All pots = -2*Zval/r beyond r=  1.9372

VLOCAL1: 99.0% of the norm of Vloc inside     11.567 Ry
VLOCAL1: 99.9% of the norm of Vloc inside     26.362 Ry
atom: Maximum radius for 4*pi*r*r*local-pseudopot. charge    2.25106
atom: Maximum radius for r*vlocal+2*Zval:    1.91306
GHOST: No ghost state for L =  0
GHOST: No ghost state for L =  1
GHOST: No ghost state for L =  2

KBgen: Kleinman-Bylander projectors: 
   l= 0   rc=  2.036604   el= -0.477180   Ekb= -6.081590   kbcos= -0.277285
   l= 1   rc=  2.195416   el=  0.001076   Ekb= -0.926943   kbcos= -0.034643
   l= 2   rc=  2.251056   el=  0.002010   Ekb= -0.130941   kbcos= -0.009788

KBgen: Total number of Kleinman-Bylander projectors:    9
atom: -------------------------------------------------------------------------

atom: SANKEY-TYPE ORBITALS:
atom: Selected multiple-zeta basis: split     

SPLIT: Orbitals with angular momentum L= 0

SPLIT: Basis orbitals for state 1s

SPLIT: PAO cut-off radius determined from an
SPLIT: energy shift=  0.002000 Ry

   izeta = 1
                 lambda =    1.000000
                     rc =    6.518340
                 energy =   -0.475305
                kinetic =    0.912139
    potential(screened) =   -1.387444
       potential(ionic) =   -1.907295

   izeta = 2
                 rmatch =    2.141150
              splitnorm =    0.620000
                 energy =    0.566467
                kinetic =    3.772856
    potential(screened) =   -3.206389
       potential(ionic) =   -3.759093

POLgen: Perturbative polarization orbital with L=  1

POLgen: Polarization orbital for state 1s

   izeta = 1
                     rc =    6.518340
                 energy =    0.533861
                kinetic =    1.121086
    potential(screened) =   -0.587225
       potential(ionic) =   -1.053027
atom: Total number of Sankey-type orbitals:  5

atm_pop: Valence configuration (for local Pseudopot. screening):
 1s( 1.00)                                                            
Vna: chval, zval:    1.00000   1.00000

Vna:  Cut-off radius for the neutral-atom potential:   6.518340

atom: _________________________________________________________________________

<basis_specs>
===============================================================================
N                    Z=   7    Mass=  14.010        Charge= 0.17977+309
Lmxo=1 Lmxkb= 3    BasisType=split      Semic=F
L=0  Nsemic=0  Cnfigmx=2
          i=1  nzeta=2  polorb=0  (2s)
            splnorm:   0.28000    
               vcte:    0.0000    
               rinn:    0.0000    
               qcoe:    0.0000    
               qyuk:    0.0000    
               qwid:   0.10000E-01
                rcs:    0.0000      0.0000    
            lambdas:    1.0000      1.0000    
L=1  Nsemic=0  Cnfigmx=2
          i=1  nzeta=2  polorb=1  (2p)
            splnorm:   0.28000    
               vcte:    0.0000    
               rinn:    0.0000    
               qcoe:    0.0000    
               qyuk:    0.0000    
               qwid:   0.10000E-01
                rcs:    0.0000      0.0000    
            lambdas:    1.0000      1.0000    
-------------------------------------------------------------------------------
L=0  Nkbl=1  erefs: 0.17977+309
L=1  Nkbl=1  erefs: 0.17977+309
L=2  Nkbl=1  erefs: 0.17977+309
L=3  Nkbl=1  erefs: 0.17977+309
===============================================================================
</basis_specs>

atom: Called for N                     (Z =   7)

read_vps: Pseudopotential generation method:
read_vps: ATM4.2.7  Troullier-Martins                       
Valence charge for ps generation:    5.00000

xc_check: Exchange-correlation functional:
xc_check: GGA Perdew, Burke & Ernzerhof 1996
V l=0 = -2*Zval/r beyond r=  1.2889
V l=1 = -2*Zval/r beyond r=  1.2889
V l=2 = -2*Zval/r beyond r=  3.4178
V l=3 = -2*Zval/r beyond r=  2.4084
All V_l potentials equal beyond r=  3.3753
This should be close to max(r_c) in ps generation
All pots = -2*Zval/r beyond r=  3.4178

VLOCAL1: 99.0% of the norm of Vloc inside      3.810 Ry
VLOCAL1: 99.9% of the norm of Vloc inside      8.683 Ry
atom: Maximum radius for 4*pi*r*r*local-pseudopot. charge    4.02088
atom: Maximum radius for r*vlocal+2*Zval:    3.54838
GHOST: No ghost state for L =  0
GHOST: No ghost state for L =  1
GHOST: No ghost state for L =  2
GHOST: No ghost state for L =  3

KBgen: Kleinman-Bylander projectors: 
   l= 0   rc=  3.417763   el= -1.365098   Ekb= -4.433130   kbcos= -0.707855
   l= 1   rc=  3.375302   el= -0.521201   Ekb=-13.264039   kbcos= -0.535594
   l= 2   rc=  3.872880   el=  0.001991   Ekb= -0.641094   kbcos= -0.062456
   l= 3   rc=  3.970931   el=  0.003093   Ekb= -0.474517   kbcos= -0.018236

KBgen: Total number of Kleinman-Bylander projectors:   16
atom: -------------------------------------------------------------------------

atom: SANKEY-TYPE ORBITALS:
atom: Selected multiple-zeta basis: split     

SPLIT: Orbitals with angular momentum L= 0

SPLIT: Basis orbitals for state 2s

SPLIT: PAO cut-off radius determined from an
SPLIT: energy shift=  0.002000 Ry

   izeta = 1
                 lambda =    1.000000
                     rc =    4.730425
                 energy =   -1.363399
                kinetic =    1.245246
    potential(screened) =   -2.608645
       potential(ionic) =   -8.121105

   izeta = 2
                 rmatch =    2.531849
              splitnorm =    0.280000
                 energy =   -0.959908
                kinetic =    2.409435
    potential(screened) =   -3.369343
       potential(ionic) =   -9.427975

SPLIT: Orbitals with angular momentum L= 1

SPLIT: Basis orbitals for state 2p

SPLIT: PAO cut-off radius determined from an
SPLIT: energy shift=  0.002000 Ry

   izeta = 1
                 lambda =    1.000000
                     rc =    5.924108
                 energy =   -0.519262
                kinetic =    3.672940
    potential(screened) =   -4.192202
       potential(ionic) =   -9.518354

   izeta = 2
                 rmatch =    2.531849
              splitnorm =    0.280000
                 energy =   -0.104258
                kinetic =    6.807538
    potential(screened) =   -6.911796
       potential(ionic) =  -13.149920

POLgen: Perturbative polarization orbital with L=  2

POLgen: Polarization orbital for state 2p

   izeta = 1
                     rc =    5.924108
                 energy =    1.427508
                kinetic =    2.872379
    potential(screened) =   -1.444871
       potential(ionic) =   -5.563644
atom: Total number of Sankey-type orbitals: 13

atm_pop: Valence configuration (for local Pseudopot. screening):
 2s( 2.00)                                                            
 2p( 3.00)                                                            
Vna: chval, zval:    5.00000   5.00000

Vna:  Cut-off radius for the neutral-atom potential:   5.924108

atom: _________________________________________________________________________

<basis_specs>
===============================================================================
Si                   Z=  14    Mass=  28.090        Charge= 0.17977+309
Lmxo=1 Lmxkb= 3    BasisType=split      Semic=F
L=0  Nsemic=0  Cnfigmx=3
          i=1  nzeta=2  polorb=0  (3s)
            splnorm:   0.28000    
               vcte:    0.0000    
               rinn:    0.0000    
               qcoe:    0.0000    
               qyuk:    0.0000    
               qwid:   0.10000E-01
                rcs:    0.0000      0.0000    
            lambdas:    1.0000      1.0000    
L=1  Nsemic=0  Cnfigmx=3
          i=1  nzeta=2  polorb=1  (3p)
            splnorm:   0.28000    
               vcte:    0.0000    
               rinn:    0.0000    
               qcoe:    0.0000    
               qyuk:    0.0000    
               qwid:   0.10000E-01
                rcs:    0.0000      0.0000    
            lambdas:    1.0000      1.0000    
-------------------------------------------------------------------------------
L=0  Nkbl=1  erefs: 0.17977+309
L=1  Nkbl=1  erefs: 0.17977+309
L=2  Nkbl=1  erefs: 0.17977+309
L=3  Nkbl=1  erefs: 0.17977+309
===============================================================================
</basis_specs>

atom: Called for Si                    (Z =  14)

read_vps: Pseudopotential generation method:
read_vps: ATM4.2.7  Troullier-Martins                       
Valence charge for ps generation:    4.00000

xc_check: Exchange-correlation functional:
xc_check: GGA Perdew, Burke & Ernzerhof 1996
V l=0 = -2*Zval/r beyond r=  2.7826
V l=1 = -2*Zval/r beyond r=  2.7826
V l=2 = -2*Zval/r beyond r=  2.9253
V l=3 = -2*Zval/r beyond r=  2.7826
All V_l potentials equal beyond r=  2.8530
This should be close to max(r_c) in ps generation
All pots = -2*Zval/r beyond r=  2.9253

VLOCAL1: 99.0% of the norm of Vloc inside      5.333 Ry
VLOCAL1: 99.9% of the norm of Vloc inside     12.154 Ry
atom: Maximum radius for 4*pi*r*r*local-pseudopot. charge    3.39869
atom: Maximum radius for r*vlocal+2*Zval:    2.96205
GHOST: No ghost state for L =  0
GHOST: No ghost state for L =  1
GHOST: No ghost state for L =  2
GHOST: No ghost state for L =  3

KBgen: Kleinman-Bylander projectors: 
   l= 0   rc=  3.075247   el= -0.794092   Ekb=  5.879390   kbcos=  0.167461
   l= 1   rc=  3.153101   el= -0.300068   Ekb=  2.642817   kbcos=  0.058301
   l= 2   rc=  3.273594   el=  0.001958   Ekb= -1.185135   kbcos= -0.104411
   l= 3   rc=  3.232927   el=  0.003046   Ekb= -0.497174   kbcos= -0.015889

KBgen: Total number of Kleinman-Bylander projectors:   16
atom: -------------------------------------------------------------------------

atom: SANKEY-TYPE ORBITALS:
atom: Selected multiple-zeta basis: split     

SPLIT: Orbitals with angular momentum L= 0

SPLIT: Basis orbitals for state 3s

SPLIT: PAO cut-off radius determined from an
SPLIT: energy shift=  0.002000 Ry

   izeta = 1
                 lambda =    1.000000
                     rc =    6.429618
                 energy =   -0.792283
                kinetic =    0.525293
    potential(screened) =   -1.317576
       potential(ionic) =   -3.744923

   izeta = 2
                 rmatch =    3.998416
              splitnorm =    0.280000
                 energy =   -0.583081
                kinetic =    1.069570
    potential(screened) =   -1.652651
       potential(ionic) =   -4.235185

SPLIT: Orbitals with angular momentum L= 1

SPLIT: Basis orbitals for state 3p

SPLIT: PAO cut-off radius determined from an
SPLIT: energy shift=  0.002000 Ry

   izeta = 1
                 lambda =    1.000000
                     rc =    8.464845
                 energy =   -0.298236
                kinetic =    0.785360
    potential(screened) =   -1.083596
       potential(ionic) =   -3.273779

   izeta = 2
                 rmatch =    4.587816
              splitnorm =    0.280000
                 energy =   -0.131871
                kinetic =    1.403687
    potential(screened) =   -1.535557
       potential(ionic) =   -4.015310

POLgen: Perturbative polarization orbital with L=  2

POLgen: Polarization orbital for state 3p

   izeta = 1
                     rc =    8.464845
                 energy =    0.321949
                kinetic =    1.055677
    potential(screened) =   -0.733728
       potential(ionic) =   -2.672950
atom: Total number of Sankey-type orbitals: 13

atm_pop: Valence configuration (for local Pseudopot. screening):
 3s( 2.00)                                                            
 3p( 2.00)                                                            
Vna: chval, zval:    4.00000   4.00000

Vna:  Cut-off radius for the neutral-atom potential:   8.464845

atom: _________________________________________________________________________

<basis_specs>
===============================================================================
O                    Z=   8    Mass=  16.000        Charge= 0.17977+309
Lmxo=1 Lmxkb= 3    BasisType=split      Semic=F
L=0  Nsemic=0  Cnfigmx=2
          i=1  nzeta=2  polorb=0  (2s)
            splnorm:   0.28000    
               vcte:    0.0000    
               rinn:    0.0000    
               qcoe:    0.0000    
               qyuk:    0.0000    
               qwid:   0.10000E-01
                rcs:    0.0000      0.0000    
            lambdas:    1.0000      1.0000    
L=1  Nsemic=0  Cnfigmx=2
          i=1  nzeta=2  polorb=1  (2p)
            splnorm:   0.28000    
               vcte:    0.0000    
               rinn:    0.0000    
               qcoe:    0.0000    
               qyuk:    0.0000    
               qwid:   0.10000E-01
                rcs:    0.0000      0.0000    
            lambdas:    1.0000      1.0000    
-------------------------------------------------------------------------------
L=0  Nkbl=1  erefs: 0.17977+309
L=1  Nkbl=1  erefs: 0.17977+309
L=2  Nkbl=1  erefs: 0.17977+309
L=3  Nkbl=1  erefs: 0.17977+309
===============================================================================
</basis_specs>

atom: Called for O                     (Z =   8)

read_vps: Pseudopotential generation method:
read_vps: ATM4.2.7  Troullier-Martins                       
Valence charge for ps generation:    6.00000

xc_check: Exchange-correlation functional:
xc_check: GGA Perdew, Burke & Ernzerhof 1996
V l=0 = -2*Zval/r beyond r=  1.1000
V l=1 = -2*Zval/r beyond r=  1.1000
V l=2 = -2*Zval/r beyond r=  2.2154
V l=3 = -2*Zval/r beyond r=  1.1000
All V_l potentials equal beyond r=  2.2154
This should be close to max(r_c) in ps generation
All pots = -2*Zval/r beyond r=  2.2154

VLOCAL1: 99.0% of the norm of Vloc inside      8.845 Ry
VLOCAL1: 99.9% of the norm of Vloc inside     20.157 Ry
atom: Maximum radius for 4*pi*r*r*local-pseudopot. charge    2.67231
atom: Maximum radius for r*vlocal+2*Zval:    2.32897
GHOST: No ghost state for L =  0
GHOST: No ghost state for L =  1
GHOST: No ghost state for L =  2
GHOST: No ghost state for L =  3

KBgen: Kleinman-Bylander projectors: 
   l= 0   rc=  2.243238   el= -1.759686   Ekb=**********   kbcos= -0.171774
   l= 1   rc=  2.328968   el= -0.663873   Ekb=-14.506792   kbcos= -0.519897
   l= 2   rc=  2.573941   el=  0.002031   Ekb= -1.137373   kbcos= -0.019581
   l= 3   rc=  2.606321   el=  0.003153   Ekb= -1.013546   kbcos= -0.003122

KBgen: Total number of Kleinman-Bylander projectors:   16
atom: -------------------------------------------------------------------------

atom: SANKEY-TYPE ORBITALS:
atom: Selected multiple-zeta basis: split     

SPLIT: Orbitals with angular momentum L= 0

SPLIT: Basis orbitals for state 2s

SPLIT: PAO cut-off radius determined from an
SPLIT: energy shift=  0.002000 Ry

   izeta = 1
                 lambda =    1.000000
                     rc =    4.243912
                 energy =   -1.758270
                kinetic =    3.286084
    potential(screened) =   -5.044353
       potential(ionic) =  -12.921184

   izeta = 2
                 rmatch =    2.187845
              splitnorm =    0.280000
                 energy =   -0.885018
                kinetic =    8.134434
    potential(screened) =   -9.019452
       potential(ionic) =  -17.710645

SPLIT: Orbitals with angular momentum L= 1

SPLIT: Basis orbitals for state 2p

SPLIT: PAO cut-off radius determined from an
SPLIT: energy shift=  0.002000 Ry

   izeta = 1
                 lambda =    1.000000
                     rc =    5.314825
                 energy =   -0.661986
                kinetic =    4.917472
    potential(screened) =   -5.579458
       potential(ionic) =  -13.236259

   izeta = 2
                 rmatch =    2.160663
              splitnorm =    0.280000
                 energy =   -0.068760
                kinetic =    9.183374
    potential(screened) =   -9.252135
       potential(ionic) =  -18.274251

POLgen: Perturbative polarization orbital with L=  2

POLgen: Polarization orbital for state 2p

   izeta = 1
                     rc =    5.314825
                 energy =    1.970580
                kinetic =    3.886128
    potential(screened) =   -1.915547
       potential(ionic) =   -7.749584
atom: Total number of Sankey-type orbitals: 13

atm_pop: Valence configuration (for local Pseudopot. screening):
 2s( 2.00)                                                            
 2p( 4.00)                                                            
Vna: chval, zval:    6.00000   6.00000

Vna:  Cut-off radius for the neutral-atom potential:   5.314825

atom: _________________________________________________________________________

prinput: Basis input ----------------------------------------------------------

PAO.BasisType split     

%block ChemicalSpeciesLabel
    1    1 H                       # Species index, atomic number, species label
    2    7 N                       # Species index, atomic number, species label
    3   14 Si                      # Species index, atomic number, species label
    4    8 O                       # Species index, atomic number, species label
%endblock ChemicalSpeciesLabel

%block PAO.Basis                 # Define Basis set
H                     1                    # Species label, number of l-shells
 n=1   0   2 P   1                   # n, l, Nzeta, Polarization, NzetaPol
   6.518      2.141   
   1.000      1.000   
N                     2                    # Species label, number of l-shells
 n=2   0   2                         # n, l, Nzeta 
   4.730      2.532   
   1.000      1.000   
 n=2   1   2 P   1                   # n, l, Nzeta, Polarization, NzetaPol
   5.924      2.532   
   1.000      1.000   
Si                    2                    # Species label, number of l-shells
 n=3   0   2                         # n, l, Nzeta 
   6.430      3.998   
   1.000      1.000   
 n=3   1   2 P   1                   # n, l, Nzeta, Polarization, NzetaPol
   8.465      4.588   
   1.000      1.000   
O                     2                    # Species label, number of l-shells
 n=2   0   2                         # n, l, Nzeta 
   4.244      2.188   
   1.000      1.000   
 n=2   1   2 P   1                   # n, l, Nzeta, Polarization, NzetaPol
   5.315      2.161   
   1.000      1.000   
%endblock PAO.Basis

prinput: ----------------------------------------------------------------------

Dumping basis to NetCDF file H.ion.nc
Dumping basis to NetCDF file N.ion.nc
Dumping basis to NetCDF file Si.ion.nc
Dumping basis to NetCDF file O.ion.nc
coor:   Atomic-coordinates input format  =     Cartesian coordinates
coor:                                          (in Angstroms)

siesta: Atomic coordinates (Bohr) and species
siesta:      3.07242   5.13483  -0.00000  1        1
siesta:      1.73735   3.64188  -0.00000  2        2
siesta:     -1.53242   4.47594   0.00000  3        3
siesta:     -1.82680   7.29162   0.00000  1        4
siesta:     -4.41108   1.53003  -0.00000  3        5
siesta:     -7.21390   1.98891  -0.00000  1        6
siesta:     -2.14645  -2.08554  -0.00000  3        7
siesta:     -3.59403  -4.98196  -0.00000  2        8
siesta:     -2.47862  -6.79083   0.00000  1        9
siesta:     -5.58131  -5.13400  -0.00000  1       10
siesta:      1.09670  -1.98128   0.00000  2       11
siesta:      3.12820   0.53270  -0.00000  3       12
siesta:      6.16815   0.49715  -0.00000  4       13
siesta:     10.61355 -14.07759   0.00000  1       14
siesta:      8.65886 -13.66658   0.00000  2       15
siesta:      6.22979 -16.04876   0.00000  3       16
siesta:      7.18318 -18.71532  -0.00000  1       17
siesta:      3.13570 -15.14356   0.00000  2       18
siesta:      3.17659 -11.72506  -0.00000  3       19
siesta:      1.03072  -8.10005   0.00000  3       20
siesta:     -1.95457  -7.45403   0.00000  4       21
siesta:      3.27352  -5.43711   0.00000  2       22
siesta:      2.28576  -3.64645  -0.00000  1       23
siesta:      6.63017  -5.24735   0.00000  3       24
siesta:      7.81751  -2.22872   0.00000  2       25
siesta:      6.69523  -0.49602   0.00000  1       26
siesta:      9.79567  -1.98858  -0.00000  1       27
siesta:      8.75489  -7.70105  -0.00000  2       28
siesta:      7.16982 -10.55666   0.00000  3       29

siesta: System type = molecule  

initatomlists: Number of atoms, orbitals, and projectors:     29   297   394

siesta: ******************** Simulation parameters ****************************
siesta:
siesta: The following are some of the parameters of the simulation.
siesta: A complete list of the parameters used, including default values,
siesta: can be found in file out.fdf
siesta:
redata: Spin configuration                          = spin-orbit
redata: Number of spin components                   = 8
redata: Time-Reversal Symmetry                      = F
redata: Spin spiral                                 = F
############################################################
This spin-orbit implementation uses a local approximation.
From 4.2 and onwards the full non-local approximation is implemented
You are strongly advised to use >=4.2 versions!
############################################################
redata: Long output                                 =   F
redata: Number of Atomic Species                    =        4
redata: Charge density info will appear in .RHO file
redata: Write Mulliken Pop.                         = NO
redata: Matel table size (NRTAB)                    =     1024
redata: Mesh Cutoff                                 =   340.0000 Ry
redata: Net charge of the system                    =     0.0000 |e|
redata: Min. number of SCF Iter                     =        1
redata: Max. number of SCF Iter                     =      200
redata: SCF mix quantity                            = Hamiltonian
redata: Mix DM or H after convergence               =   F
redata: Recompute H after scf cycle                 =   F
redata: Mix DM in first SCF step                    =   T
redata: Write Pulay info on disk                    =   F
redata: New DM Occupancy tolerance                  = 0.000000000001
redata: No kicks to SCF
redata: DM Mixing Weight for Kicks                  =     0.5000
redata: Require Harris convergence for SCF          =   F
redata: Harris energy tolerance for SCF             =     0.000100 eV
redata: Require DM convergence for SCF              =   T
redata: DM tolerance for SCF                        =     0.000008
redata: Require EDM convergence for SCF             =   F
redata: EDM tolerance for SCF                       =     0.001000 eV
redata: Require H convergence for SCF               =   T
redata: Hamiltonian tolerance for SCF               =     0.000001 eV
redata: Require (free) Energy convergence for SCF   =   F
redata: (free) Energy tolerance for SCF             =     0.000100 eV
redata: Using Saved Data (generic)                  =   F
redata: Use continuation files for DM               =   T
redata: Neglect nonoverlap interactions             =   F
redata: Method of Calculation                       = Diagonalization
redata: Electronic Temperature                      =   299.9978 K
redata: Fix the spin of the system                  =   F
redata: Dynamics option                             = Verlet MD run
redata: Initial MD time step                        =        1
redata:   Final MD time step                        =        1
redata: Length of MD time step                      =     0.5000 fs
redata: Initial Temperature of MD run               =     0.0000 K
redata: Perform a MD quench                         =   F
mix.SCF: Pulay mixing                            = Pulay
mix.SCF:    Variant                              = stable
mix.SCF:    History steps                        = 6
mix.SCF:    Linear mixing weight                 =     0.250000
mix.SCF:    Mixing weight                        =     0.250000
mix.SCF:    SVD condition                        = 0.1000E-07
mix.SCF:    Restart steps                        = 24
mix.SCF:    Restart save steps                   = 3
mix.SCF: Spin-component mixing                   all
redata: Save all siesta data in one NC              =   F
redata: ***********************************************************************

%block SCF.Mixers
  Pulay
%endblock SCF.Mixers

%block SCF.Mixer.Pulay
  # Mixing method
  method pulay
  variant stable

  # Mixing options
  weight 0.2500
  weight.linear 0.2500
  history 6
  restart 24
  restart.save 3
%endblock SCF.Mixer.Pulay

Size of DM history Fstack: 3
Total number of electrons:    98.000000
Total ionic charge:    98.000000

* ProcessorY, Blocksize:    2  24


* Orbital distribution balance (max,min):    48    24


Time-reversal symmetry not used.

siesta: k-grid: Number of k-points =     1
siesta: k-grid: Cutoff (effective) =     5.000 Ang
siesta: k-grid: Supercell and displacements
siesta: k-grid:    1   0   0      0.000
siesta: k-grid:    0   1   0      0.000
siesta: k-grid:    0   0   1      0.000

diag: Algorithm                                     = ELPA-1stage
diag: Parallel over k                               =   F
diag: Use parallel 2D distribution                  =   T
diag: Parallel block-size                           = 24
diag: Parallel distribution                         =     2 x     4
diag: Used triangular part                          = Lower
diag: Absolute tolerance                            =  0.100E-15
diag: Orthogonalization factor                      =  0.100E-05
diag: Memory factor                                 =  1.0000


ts: **************************************************************
ts: Save H and S matrices                           =    F
ts: Save DM and EDM matrices                        =    F
ts: Only save the overlap matrix S                  =    F
ts: **************************************************************

************************ Begin: TS CHECKS AND WARNINGS ************************
************************ End: TS CHECKS AND WARNINGS **************************


                     ====================================
                        Begin MD step =      1
                     ====================================

outcoor: Atomic coordinates (Ang):                          
    1.62585215    2.71723565    0.00000000   1       1  H
    0.91936542    1.92719947    0.00000000   2       2  N
   -0.81092149    2.36856338    0.00000000   3       3  Si
   -0.96670117    3.85855564    0.00000000   1       4  H
   -2.33424311    0.80965586    0.00000000   3       5  Si
   -3.81743074    1.05248622    0.00000000   1       6  H
   -1.13585225   -1.10362030    0.00000000   3       7  Si
   -1.90187771   -2.63633704    0.00000000   2       8  N
   -1.31163116   -3.59355007    0.00000000   1       9  H
   -2.95350003   -2.71679727    0.00000000   1      10  H
    0.58034781   -1.04844599    0.00000000   2      11  N
    1.65537043    0.28189285    0.00000000   3      12  Si
    3.26404375    0.26308259    0.00000000   4      13  O
    5.61644830   -7.44953905    0.00000000   1      14  H
    4.58206954   -7.23203760    0.00000000   2      15  N
    3.29666389   -8.49263600    0.00000000   3      16  Si
    3.80117524   -9.90371886    0.00000000   1      17  H
    1.65934232   -8.01362137    0.00000000   2      18  N
    1.68097912   -6.20463398    0.00000000   3      19  Si
    0.54543521   -4.28636135    0.00000000   3      20  Si
   -1.03431493   -3.94450034    0.00000000   4      21  O
    1.73226934   -2.87719605    0.00000000   2      22  N
    1.20957366   -1.92961761    0.00000000   1      23  H
    3.50853448   -2.77677601    0.00000000   3      24  Si
    4.13684451   -1.17938608    0.00000000   2      25  N
    3.54296161   -0.26248101    0.00000000   1      26  H
    5.18364407   -1.05231197    0.00000000   1      27  H
    4.63288658   -4.07521596    0.00000000   2      28  N
    3.79410501   -5.58634043    0.00000000   3      29  Si

outcell: Unit cell vectors (Ang):
       30.000000    0.000000    0.000000
        0.000000   45.000000    0.000000
        0.000000    0.000000   10.000000

outcell: Cell vector modules (Ang)   :   30.000000   45.000000   10.000000
outcell: Cell angles (23,13,12) (deg):     90.0000     90.0000     90.0000
outcell: Cell volume (Ang**3)        :  13500.0000
siesta: WARNING: Atoms     9    21 too close: rij =    0.447292 Ang
<dSpData1D:S at geom step 1
  <sparsity:sparsity for geom step 1
    nrows_g=297 nrows=48 sparsity=.1465 nnzs=12921, refcount: 8>
  <dData1D:(new from dSpData1D) n=12921, refcount: 1>
refcount: 1>
new_DM -- step:     1
Initializing Density Matrix...

Attempting to read DM from file... Failed...
DM filled with atomic data:
<dSpData2D:DM initialized from atoms
  <sparsity:sparsity for geom step 1
    nrows_g=297 nrows=48 sparsity=.1465 nnzs=12921, refcount: 9>
  <dData2D:DM n=12921 m=8, refcount: 1>
refcount: 1>
     spin moment: S , {S} =   56.00000   0.00000   0.00000  56.00000
No. of atoms with KB's overlaping orbs in proc 0. Max # of overlaps:      27     233

Initializing spin-orbit part of the Hamiltonian
  Adding spin-orbit effects for H 
  Adding spin-orbit effects for N 
  Adding spin-orbit effects for Si
  Adding spin-orbit effects for O 


New grid distribution:   1
           1       1:  180    1:  125    1:   15
           2       1:  180    1:  125   16:   30
           3       1:  180    1:  125   31:   45
           4       1:  180    1:  125   46:   60
           5       1:  180  126:  250    1:   15
           6       1:  180  126:  250   16:   30
           7       1:  180  126:  250   31:   45
           8       1:  180  126:  250   46:   60

InitMesh: MESH =   360 x   500 x   120 =    21600000
InitMesh: (bp) =   180 x   250 x    60 =     2700000
InitMesh: Mesh cutoff (required, used) =   340.000   341.206 Ry
ExtMesh (bp) on 0 =   288 x   225 x   123 =     7970400
New grid distribution:   2
           1      22:  180    1:  198    1:   60
           2       1:   21    1:  201    1:   60
           3       1:   21  202:  225    1:   60
           4       1:   21  239:  250    1:   60
           5      22:  180  199:  225    1:   60
           6      22:  180  226:  238    1:   60
           7      22:  180  239:  250    1:   60
           8       1:   21  226:  238    1:   60
New grid distribution:   3
           1      33:  180   20:  207    1:   60
           2      33:  180    1:   19    1:   60
           3       1:   32    1:   32    1:   60
           4       1:   36  208:  228    1:   60
           5       1:   32   33:  207    1:   60
           6      37:  180  208:  232    1:   60
           7      37:  180  233:  250    1:   60
           8       1:   36  229:  250    1:   60
Setting up quadratic distribution...
ExtMesh (bp) on 0 =   267 x   298 x   168 =    13367088
PhiOnMesh: Number of (b)points on node 0 =              1888920
PhiOnMesh: nlist on node 0 =              1889278

stepf: Fermi-Dirac step function

siesta: Program's energy decomposition (eV):
siesta: Ebs     =      -472.204882
siesta: Eions   =      3585.165840
siesta: Ena     =       495.879537
siesta: Ekin    =      3594.116465
siesta: Enl     =     -3544.949345
siesta: Eso     =        -0.003512
siesta: Edftu   =         0.000000
siesta: DEna    =       157.589742
siesta: DUscf   =       108.210161
siesta: DUext   =         0.000000
siesta: Exc     =     -1245.034236
siesta: eta*DQ  =         0.000000
siesta: Emadel  =         0.000000
siesta: Emeta   =         0.000000
siesta: Emolmec =         0.000000
siesta: Ekinion =         0.000000
siesta: Eharris =     -3868.616473
siesta: Etot    =     -4019.357026
siesta: FreeEng =     -4019.360051

        iscf     Eharris(eV)        E_KS(eV)     FreeEng(eV)     dDmax    Ef(eV) dHmax(eV)
   scf:    1    -3868.616473    -4019.357026    -4019.360051  0.930234 -4.957860 32.297521
     spin moment: S , {S} =    2.02076   0.00000  -0.00000   2.02076
timer: Routine,Calls,Time,% = IterSCF        1      19.306  27.27
   scf:    2    -4021.576730    -4054.176559    -4054.188199  0.569777 -3.845197 18.482240
     spin moment: S , {S} =    6.08995   0.00000  -0.00000   6.08995
   scf:    3    -4032.291605    -4063.140197    -4063.148783  1.306792 -3.815103 18.168150
     spin moment: S , {S} =    3.96774  -0.00000  -0.00000   3.96774
   scf:    4    -4071.237191    -4073.124041    -4073.124889  1.331656 -3.725813 12.324519
     spin moment: S , {S} =    0.00476  -0.00000   0.00000   0.00476
   scf:    5    -4080.314348    -4077.375498    -4077.381482  0.089388 -3.357011  6.585585
     spin moment: S , {S} =    0.04955  -0.00000  -0.00000   0.04955
   scf:    6    -4079.495955    -4078.770959    -4078.772886  0.077569 -3.323767  3.000902
     spin moment: S , {S} =    0.01231  -0.00000  -0.00000   0.01231
   scf:    7    -4079.107143    -4078.974994    -4078.975000  0.039322 -3.375208  1.920548
     spin moment: S , {S} =    0.00006   0.00000   0.00000   0.00006
   scf:    8    -4079.294051    -4079.182682    -4079.182682  0.071693 -3.499241  0.421527
     spin moment: S , {S} =    0.00001   0.00000   0.00000   0.00001
   scf:    9    -4079.257500    -4079.221443    -4079.221443  0.016849 -3.562065  0.329234
     spin moment: S , {S} =    0.00001   0.00000  -0.00000   0.00001
   scf:   10    -4079.245381    -4079.233419    -4079.233419  0.007081 -3.568675  0.175951
     spin moment: S , {S} =    0.00000  -0.00000  -0.00000   0.00000
   scf:   11    -4079.257314    -4079.244722    -4079.244722  0.007571 -3.581128  0.106055
     spin moment: S , {S} =    0.00000  -0.00000  -0.00000   0.00000
   scf:   12    -4079.262187    -4079.252540    -4079.252540  0.007627 -3.583304  0.044961
     spin moment: S , {S} =    0.00000   0.00000  -0.00000   0.00000
   scf:   13    -4079.258821    -4079.255231    -4079.255231  0.005103 -3.582386  0.027990
     spin moment: S , {S} =    0.00000   0.00000   0.00000   0.00000
   scf:   14    -4079.256571    -4079.255818    -4079.255818  0.002826 -3.581227  0.019551
     spin moment: S , {S} =    0.00000  -0.00000   0.00000   0.00000
   scf:   15    -4079.256182    -4079.255982    -4079.255982  0.001486 -3.579123  0.014518
     spin moment: S , {S} =    0.00000   0.00000   0.00000   0.00000
   scf:   16    -4079.256235    -4079.256089    -4079.256089  0.001742 -3.579312  0.008715
     spin moment: S , {S} =    0.00000  -0.00000   0.00000   0.00000
   scf:   17    -4079.256142    -4079.256113    -4079.256113  0.000728 -3.582064  0.005386
     spin moment: S , {S} =    0.00000  -0.00000   0.00000  -0.00000
   scf:   18    -4079.256141    -4079.256125    -4079.256125  0.000587 -3.582361  0.003234
     spin moment: S , {S} =    0.00000  -0.00000   0.00000  -0.00000
   scf:   19    -4079.256139    -4079.256131    -4079.256131  0.000454 -3.582683  0.001630
     spin moment: S , {S} =    0.00000  -0.00000   0.00000  -0.00000
   scf:   20    -4079.256136    -4079.256133    -4079.256133  0.000278 -3.582820  0.000948
     spin moment: S , {S} =    0.00000  -0.00000   0.00000  -0.00000
   scf:   21    -4079.256134    -4079.256134    -4079.256134  0.000090 -3.582693  0.000742
     spin moment: S , {S} =    0.00000  -0.00000   0.00000  -0.00000
   scf:   22    -4079.256135    -4079.256134    -4079.256134  0.000095 -3.582615  0.000482
     spin moment: S , {S} =    0.00000  -0.00000   0.00000  -0.00000
   scf:   23    -4079.256135    -4079.256134    -4079.256134  0.000053 -3.582484  0.000279
     spin moment: S , {S} =    0.00000  -0.00000   0.00000  -0.00000
   scf:   24    -4079.256134    -4079.256134    -4079.256134  0.000022 -3.582508  0.000207
     spin moment: S , {S} =    0.00000  -0.00000   0.00000  -0.00000
mix: Pulay -- resetting history
   scf:   25    -4079.256134    -4079.256134    -4079.256134  0.000016 -3.582524  0.000145
     spin moment: S , {S} =    0.00000  -0.00000   0.00000  -0.00000
   scf:   26    -4079.256134    -4079.256134    -4079.256134  0.000014 -3.582545  0.000093
     spin moment: S , {S} =    0.00000  -0.00000   0.00000  -0.00000
   scf:   27    -4079.256134    -4079.256134    -4079.256134  0.000013 -3.582544  0.000039
     spin moment: S , {S} =    0.00000  -0.00000   0.00000  -0.00000
   scf:   28    -4079.256134    -4079.256134    -4079.256134  0.000003 -3.582537  0.000022
     spin moment: S , {S} =    0.00000  -0.00000   0.00000  -0.00000
   scf:   29    -4079.256134    -4079.256134    -4079.256134  0.000001 -3.582537  0.000017
     spin moment: S , {S} =    0.00000  -0.00000   0.00000  -0.00000
   scf:   30    -4079.256134    -4079.256134    -4079.256134  0.000001 -3.582536  0.000008
     spin moment: S , {S} =    0.00000  -0.00000   0.00000  -0.00000
   scf:   31    -4079.256134    -4079.256134    -4079.256134  0.000001 -3.582537  0.000004
     spin moment: S , {S} =    0.00000  -0.00000   0.00000  -0.00000
   scf:   32    -4079.256134    -4079.256134    -4079.256134  0.000001 -3.582537  0.000003
     spin moment: S , {S} =    0.00000  -0.00000   0.00000   0.00000
   scf:   33    -4079.256134    -4079.256134    -4079.256134  0.000000 -3.582537  0.000002
     spin moment: S , {S} =    0.00000  -0.00000   0.00000  -0.00000
   scf:   34    -4079.256134    -4079.256134    -4079.256134  0.000000 -3.582537  0.000002
     spin moment: S , {S} =    0.00000  -0.00000   0.00000  -0.00000
   scf:   35    -4079.256134    -4079.256134    -4079.256134  0.000000 -3.582537  0.000001
     spin moment: S , {S} =    0.00000  -0.00000   0.00000  -0.00000
   scf:   36    -4079.256134    -4079.256134    -4079.256134  0.000000 -3.582537  0.000001
     spin moment: S , {S} =    0.00000  -0.00000   0.00000  -0.00000

SCF Convergence by DM+H criterion
max |DM_out - DM_in|         :     0.0000002228
max |H_out - H_in|      (eV) :     0.0000007821
SCF cycle converged after 36 iterations

Using DM_out to compute the final energy and forces
No. of atoms with KB's overlaping orbs in proc 0. Max # of overlaps:      27     233

siesta: E_KS(eV) =            -4079.2561

siesta: E_KS - E_eggbox =     -4079.2561
     spin moment: S , {S} =    0.00000  -0.00000   0.00000  -0.00000

siesta: Atomic forces (eV/Ang):
     1    0.019519   -0.004802   -0.000000
     2    0.808398   -0.591516    0.000000
     3   -1.008073    0.238862   -0.000000
     4    0.200868    0.323407   -0.000000
     5    0.620154    0.263666    0.000000
     6    0.027466    0.038130    0.000000
     7   -3.427194   -0.309351    0.000000
     8  -15.942806   27.016773   -0.000000
     9 -164.089219  207.396303    0.000000
    10   -0.393936    0.814642   -0.000000
    11   -3.840880    8.431135   -0.000000
    12   -3.122525    2.160964    0.000000
    13  -54.789439  101.705358   -0.000000
    14   -0.024406    0.043263   -0.000000
    15   -0.173711   -0.173241    0.000000
    16   -0.014637    0.046032    0.000000
    17   -0.017432    0.013226   -0.000000
    18   -0.027205   -0.067218   -0.000000
    19   -0.634253   -0.080427    0.000000
    20    3.526892   -0.900327    0.000000
    21  181.388995 -238.053954   -0.000000
    22    3.531463   -7.887084    0.000000
    23    0.728049   -1.403509   -0.000000
    24    1.120624    0.456958    0.000000
    25   12.588776  -21.527105   -0.000000
    26   40.526759  -78.619245    0.000000
    27    0.169432   -0.714374    0.000000
    28    0.217590   -1.452626    0.000000
    29    0.595247    0.610678   -0.000000
----------------------------------------
   Tot   -1.435483   -2.225384   -0.000000
----------------------------------------
   Max  238.053954
   Res   45.800263    sqrt( Sum f_i^2 / 3N )
----------------------------------------
   Max  238.053954    constrained

Stress tensor Voigt[x,y,z,yz,xz,xy] (kbar):      -11.16      -24.03       -0.04       -0.00       -0.00       16.65
(Free)E + p*V (eV/cell)    -3980.3156
Target enthalpy (eV/cell)    -4079.2561

siesta: Stress tensor (static) (eV/Ang**3):
        -0.006964    0.010390   -0.000000
         0.010390   -0.014999    0.000000
        -0.000000   -0.000000   -0.000024

siesta: Pressure (static):         11.74236604  kBar

siesta: Stress tensor (total) (eV/Ang**3):
        -0.006964    0.010390   -0.000000
         0.010390   -0.014999    0.000000
        -0.000000   -0.000000   -0.000024

siesta: Pressure (total):         11.74236604  kBar

siesta: Temp_ion =       0.000 K

siesta: Eigenvalues (eV):
ik =     1
  -32.4538  -32.4538  -30.4267  -30.4267  -22.3558  -22.3558  -21.6796  -21.6796  -21.0217  -21.0217
  -19.9435  -19.9435  -19.5564  -19.5564  -19.2105  -19.2105  -18.9655  -18.9655  -18.7999  -18.7999
  -17.1550  -17.1550  -16.2017  -16.2017  -14.4676  -14.4676  -13.5835  -13.5835  -13.4692  -13.4692
  -13.2440  -13.2440  -12.8892  -12.8892  -12.5055  -12.5055  -12.2110  -12.2110  -11.9534  -11.9534
  -11.5644  -11.5644  -11.1016  -11.1016  -10.5852  -10.5852  -10.3523  -10.3523  -10.2655  -10.2655
  -10.1940  -10.1940  -10.1379  -10.1379   -9.8263   -9.8263   -9.3110   -9.3110   -9.0208   -9.0208
   -8.7342   -8.7342   -8.6353   -8.6353   -8.5943   -8.5943   -8.3057   -8.3057   -8.1469   -8.1469
   -7.9807   -7.9807   -7.9413   -7.9413   -7.2251   -7.2251   -7.1747   -7.1747   -6.5439   -6.5439
   -6.1972   -6.1972   -6.0771   -6.0771   -5.8126   -5.8126   -5.6008   -5.6008   -5.1985   -5.1985
   -5.1232   -5.1232   -4.4232   -4.4232   -4.2321   -4.2321   -4.1583   -4.1583   -3.0028   -3.0028
   -2.5436   -2.5436   -2.4447   -2.4447   -2.2462   -2.2462   -2.0578   -2.0578   -2.0092   -2.0092
   -1.7840   -1.7840   -1.4456   -1.4456   -1.3655   -1.3655   -1.0081   -1.0081   -0.8016   -0.8016
   -0.7572   -0.7572   -0.6261   -0.6261   -0.3035   -0.3035   -0.0971   -0.0971    0.4573    0.4573
    0.5409    0.5409    0.6724    0.6724    0.7440    0.7440    0.8029    0.8029    1.3198    1.3198
    1.4563    1.4563    1.6158    1.6158    1.6255    1.6255    1.7874    1.7874    2.2510    2.2510
    2.4690    2.4690    2.6124    2.6124    2.6448    2.6448    2.7457    2.7457    3.0745    3.0745
    3.1435    3.1435    3.4162    3.4162    3.4964    3.4964    3.7608    3.7608    3.9340    3.9340
    4.2118    4.2118    4.3201    4.3201    4.4580    4.4580    4.4744    4.4744    4.7057    4.7057
    4.8853    4.8853    4.8884    4.8884    5.0374    5.0374    5.3947    5.3947    5.5472    5.5472
    5.7591    5.7591    5.7864    5.7864    5.8064    5.8064    5.9211    5.9211    6.0782    6.0782
    6.1729    6.1729    6.4229    6.4229    6.5721    6.5721    6.8823    6.8823    6.8987    6.8987
    7.3380    7.3380    7.3504    7.3504    7.3910    7.3910    7.6861    7.6861    7.8887    7.8887
    7.9238    7.9238    7.9703    7.9703    8.2211    8.2211    8.4878    8.4878    8.6499    8.6499
    8.7308    8.7308    8.9403    8.9403    8.9808    8.9808    9.0210    9.0210    9.3676    9.3676
    9.4643    9.4643    9.4792    9.4792    9.8698    9.8698    9.9935    9.9935   10.2858   10.2858
   10.5551   10.5551   10.5802   10.5802   10.7425   10.7425   11.0824   11.0824   11.2623   11.2623
   11.3953   11.3953   11.4932   11.4932   11.7535   11.7535   11.8863   11.8863   12.3001   12.3001
   12.5833   12.5833   12.7992   12.7992   12.9207   12.9207   13.0442   13.0442   13.0906   13.0906
   13.2839   13.2839   13.6531   13.6531   13.6971   13.6971   14.2648   14.2648   14.3693   14.3693
   14.7266   14.7266   14.7667   14.7667   15.0833   15.0833   15.6007   15.6007   15.8376   15.8376
   16.5401   16.5401   16.7469   16.7469   16.8433   16.8433   17.2083   17.2083   17.8522   17.8522
   17.9833   17.9833   18.2494   18.2494   18.7262   18.7262   19.0980   19.0980   19.7615   19.7615
   20.2210   20.2210   20.3530   20.3530   20.7787   20.7787   21.0457   21.0457   21.2915   21.2915
   21.8971   21.8971   21.9108   21.9108   22.0591   22.0591   22.3781   22.3781   22.6910   22.6910
   22.8709   22.8709   23.8332   23.8332   23.9844   23.9844   24.5036   24.5036   25.1121   25.1121
   25.5557   25.5557   25.7838   25.7838   26.5497   26.5497   27.4828   27.4828   27.7209   27.7209
   27.9432   27.9432   29.1365   29.1365   29.7219   29.7219   30.0063   30.0063   30.2586   30.2586
   30.7033   30.7033   30.8684   30.8684   30.9757   30.9757   31.2195   31.2195   31.3304   31.3304
   31.7396   31.7396   32.3203   32.3203   32.4081   32.4081   32.5486   32.5486   33.5025   33.5025
   34.1065   34.1065   34.3165   34.3165   34.9871   34.9871   35.4842   35.4842   36.2604   36.2604
   36.8574   36.8574   37.0726   37.0726   37.2565   37.2565   38.2072   38.2072   39.2123   39.2123
   39.3067   39.3067   39.8048   39.8048   40.3826   40.3826   40.4121   40.4121   40.6639   40.6639
   40.8273   40.8273   41.2334   41.2334   41.4933   41.4933   42.0288   42.0288   42.3940   42.3940
   42.4089   42.4089   43.1095   43.1095   43.5011   43.5011   43.6768   43.6768   44.1283   44.1283
   44.2876   44.2876   44.6754   44.6754   45.0279   45.0279   45.4851   45.4851   45.5011   45.5011
   45.8120   45.8120   46.2844   46.2844   46.5058   46.5058   47.4204   47.4204   47.5050   47.5050
   47.8455   47.8455   48.2508   48.2508   48.6719   48.6719   49.0629   49.0629   49.2506   49.2506
   50.2502   50.2502   50.3928   50.3928   50.8541   50.8541   51.1774   51.1774   52.7131   52.7131
   53.2082   53.2082   53.6830   53.6830   54.4327   54.4327   54.5409   54.5409   54.7666   54.7666
   55.5755   55.5755   55.7382   55.7382   56.0065   56.0065   57.0429   57.0429   57.3453   57.3453
   57.7953   57.7953   58.2805   58.2805   60.0580   60.0580   60.4762   60.4762   61.0070   61.0070
   61.9402   61.9402   62.5619   62.5619   63.1104   63.1104   63.9274   63.9274   65.6961   65.6961
   66.9334   66.9334   67.8264   67.8264   68.7693   68.7693   69.2683   69.2683   69.9271   69.9271
   71.2977   71.2977   72.9403   72.9403   73.8905   73.8905   74.5741   74.5741   77.3942   77.3942
   78.0753   78.0753   78.9141   78.9141   79.9992   79.9992   84.7164   84.7164   84.7249   84.7249
   88.9281   88.9281   89.9586   89.9586   92.0570   92.0570   93.8036   93.8036   96.1762   96.1762
  100.9537  100.9537  102.5852  102.5852  105.7561  105.7561  111.9345  111.9345  117.2334  117.2334
  120.8443  120.8443  124.2151  124.2151  129.0131  129.0131  131.0929  131.0929  136.7972  136.7972
  138.9704  138.9704  141.8749  141.8749  152.4590  152.4590  159.4328  159.4328  177.2776  177.2776
  304.0402  304.0402  453.2183  453.2183
siesta: Fermi energy =      -3.582537 eV

siesta: Program's energy decomposition (eV):
siesta: Ebs     =     -1181.114209
siesta: Eions   =      3585.165840
siesta: Ena     =       495.879537
siesta: Ekin    =      3053.199989
siesta: Enl     =     -2958.591794
siesta: Eso     =        -0.004543
siesta: Edftu   =         0.000000
siesta: DEna    =        47.041734
siesta: DUscf   =        18.030565
siesta: DUext   =         0.000000
siesta: Exc     =     -1149.645784
siesta: eta*DQ  =         0.000000
siesta: Emadel  =         0.000000
siesta: Emeta   =         0.000000
siesta: Emolmec =         0.000000
siesta: Ekinion =         0.000000
siesta: Eharris =     -4079.256134
siesta: Etot    =     -4079.256134
siesta: FreeEng =     -4079.256134

siesta: Final energy (eV):
siesta:  Band Struct. =   -1181.114209
siesta:       Kinetic =    3053.199989
siesta:       Hartree =   17511.116239
siesta:       Edftu   =       0.000000
siesta:       Eso     =      -0.004543
siesta:    Ext. field =       0.000000
siesta:   Exch.-corr. =   -1149.645784
siesta:  Ion-electron =  -37763.283175
siesta:       Ion-ion =   14269.361140
siesta:       Ekinion =       0.000000
siesta:         Total =   -4079.256134
siesta:         Fermi =      -3.582537

siesta: Atomic forces (eV/Ang):
siesta:      1    0.019519   -0.004802   -0.000000
siesta:      2    0.808398   -0.591516    0.000000
siesta:      3   -1.008073    0.238862   -0.000000
siesta:      4    0.200868    0.323407   -0.000000
siesta:      5    0.620154    0.263666    0.000000
siesta:      6    0.027466    0.038130    0.000000
siesta:      7   -3.427194   -0.309351    0.000000
siesta:      8  -15.942806   27.016773   -0.000000
siesta:      9 -164.089219  207.396303    0.000000
siesta:     10   -0.393936    0.814642   -0.000000
siesta:     11   -3.840880    8.431135   -0.000000
siesta:     12   -3.122525    2.160964    0.000000
siesta:     13  -54.789439  101.705358   -0.000000
siesta:     14   -0.024406    0.043263   -0.000000
siesta:     15   -0.173711   -0.173241    0.000000
siesta:     16   -0.014637    0.046032    0.000000
siesta:     17   -0.017432    0.013226   -0.000000
siesta:     18   -0.027205   -0.067218   -0.000000
siesta:     19   -0.634253   -0.080427    0.000000
siesta:     20    3.526892   -0.900327    0.000000
siesta:     21  181.388995 -238.053954   -0.000000
siesta:     22    3.531463   -7.887084    0.000000
siesta:     23    0.728049   -1.403509   -0.000000
siesta:     24    1.120624    0.456958    0.000000
siesta:     25   12.588776  -21.527105   -0.000000
siesta:     26   40.526759  -78.619245    0.000000
siesta:     27    0.169432   -0.714374    0.000000
siesta:     28    0.217590   -1.452626    0.000000
siesta:     29    0.595247    0.610678   -0.000000
siesta: ----------------------------------------
siesta:    Tot   -1.435483   -2.225384   -0.000000

siesta: Stress tensor (static) (eV/Ang**3):
siesta:    -0.006964    0.010390   -0.000000
siesta:     0.010390   -0.014999    0.000000
siesta:    -0.000000   -0.000000   -0.000024

siesta: Cell volume =      13500.000000 Ang**3

siesta: Pressure (static):
siesta:                Solid            Molecule  Units
siesta:           0.00007982         -0.00000147  Ry/Bohr**3
siesta:           0.00732893         -0.00013504  eV/Ang**3
siesta:          11.74236604         -0.21635277  kBar
(Free)E+ p_basis*V_orbitals  =       -4059.405717
(Free)Eharris+ p_basis*V_orbitals  =       -4059.405717
     spin moment: S , {S} =    0.00000  -0.00000   0.00000  -0.00000

siesta: Electric dipole (a.u.)  =    0.049038    1.232044    0.000000
siesta: Electric dipole (Debye) =    0.124643    3.131546    0.000000

cite: Please see "GC.bib" for an exhaustive BiBTeX file.
cite: Please clearly indicate Siesta version in published work: v4.1.5-1-g384057250
cite: This calculation has made use of the following articles
cite: which are encouraged to be cited in a published work.
        Primary SIESTA paper
          DOI: www.doi.org/10.1088/0953-8984/14/11/302
        Spin-orbit coupling (on-site approximation)
          DOI: www.doi.org/10.1088/0953-8984/19/19/489001


WARNING: alloc-realloc-dealloc name mismatch
         Name: atomlist isa
         Size:              -116. Bytes
         Node:     0
         Subsequent mismatches will not be reported
>> End of run:   1-FEB-2024  20:42:32
Job completed
