Siesta Version  : v4.1.5-1-g384057250
Architecture    : gcc
Compiler version: GNU Fortran (Debian 12.2.0-14) 12.2.0
Compiler flags  : mpifort -O2 -fPIC -ftree-vectorize -fallow-argument-mismatch
PP flags        : -DFC_HAVE_ABORT -DMPI -DSIESTA__FLOOK -DSIESTA__METIS -DSIESTA__MUMPS -DCDF -DNCDF -DNCDF_4 -DNCDF_PARALLEL -DSIESTA__MRRR -DSIESTA__ELPA
Libraries       : libncdf.a libfdict.a  -lflookall -ldl -lnetcdff -lnetcdf -lz -lscalapack-openmpi -lopenblas -lmetis -lzmumps -lcmumps -ldmumps -lmumps_common -lpord -lsmumps -lesmumps -lscotch -lscotcherr -fopenmp -lelpa
PARALLEL version
NetCDF support
NetCDF-4 support
NetCDF-4 MPI-IO support
METIS ordering support
Lua support

* Running on 32 nodes in parallel
>> Start of run:  16-OCT-2023  20:38:39

                           ***********************       
                           *  WELCOME TO SIESTA  *       
                           ***********************       

reinit: Reading from standard input
reinit: Dumped input in INPUT_TMP.33895
************************** Dump of input data file ****************************
# mpirun -np 4 siesta-4.1.5 < AT.fdf > AT.out &
SystemLabel      AT
NumberOfAtoms    30
NumberOfSpecies  4
%block ChemicalSpeciesLabel
    1    1  H
    2    7  N
    3   14  Si
    4    8  O
%endblock ChemicalSpeciesLabel
############################################
# This overrides Defaults.fdf configuration
############################################
MD.TypeOfRun                Verlet # CG, Verlet
MD.Steps                    0
MaxSCFIterations            300
AtomicCoordinatesFormat NotScaledCartesianAng
%block AtomicCoordinatesAndAtomicSpecies
    2.28494382 -5.19529124 0.0  1  1  H
    1.37433094 -4.6647107 0.0  2  2  N
    -0.21830245 -5.49458215 0.0  3  3  Si
    -0.17484108 -6.98516892 0.0  1  4  H
    -1.66171682 -4.58600741 0.0  2  5  N
    -1.09026419 -2.87456374 0.0  3  6  Si
    -1.53038332 -0.70765692 0.0  3  7  Si
    -3.14415959 -0.09186471 0.0  2  8  N
    -3.40268075 0.95848335 0.0  1  9  H
    -3.95073599 -0.76720972 0.0  1  10  H
    -0.17836637 0.41349951 0.0  2  11  N
    1.49520211 -0.0473996 0.0  3  12  Si
    2.45603905 1.10727302 0.0  1  13  H
    2.30451743 -1.58574382 0.0  2  14  N
    1.10725559 -2.84610319 0.0  3  15  Si
    0.365927459926384 9.012248139159022 0.0  1  16  H
    -0.44278322007361604 8.320042259159022 0.0  2  17  N
    -2.099373060073616 9.033162359159022 0.0  3  18  Si
    -2.0025078900736157 10.543887569159022 0.0  1  19  H
    -3.825529410073616 7.690114229159021 0.0  3  20  Si
    -6.179983660073616 7.6821272991590215 0.0  3  21  Si
    -6.7424017800736165 8.416616949159021 -1.20183078  1  22  H
    -6.479797410073616 6.203036169159021 -0.08618332  1  23  H
    -6.742514240073616 8.246959759159022 1.28814761  1  24  H
    -2.896138770073616 5.619542999159021 0.0  3  25  Si
    -3.845607130073616 4.3310068691590216 0.0  4  26  O
    -1.105193900073616 5.445807529159022 0.0  2  27  N
    -0.774202540073616 4.4134505491590215 0.0  1  28  H
    0.20326431992638397 6.640353949159021 0.0  3  29  Si
    1.7692012499263838 6.3731070991590215 0.0  4  30  O
%endblock AtomicCoordinatesAndAtomicSpecies
%include ../../../../Defaults.fdf
************************** End of input data file *****************************

reinit: -----------------------------------------------------------------------
reinit: System Name: 
reinit: -----------------------------------------------------------------------
reinit: System Label: AT
reinit: -----------------------------------------------------------------------

initatom: Reading input for the pseudopotentials and atomic orbitals ----------
Species number:   1 Atomic number:    1 Label: H
Species number:   2 Atomic number:    7 Label: N
Species number:   3 Atomic number:   14 Label: Si
Species number:   4 Atomic number:    8 Label: O

Ground state valence configuration:   1s01
Reading pseudopotential information in formatted form from H.psf

Pseudopotential generated from a relativistic atomic calculation

Valence configuration for pseudopotential generation:
1s( 1.00) rc: 0.01
2p( 0.00) rc: 0.60
3d( 0.00) rc: 1.99
4f( 0.00) rc: 2.49
Ground state valence configuration:   2s02  2p03
Reading pseudopotential information in formatted form from N.psf

Pseudopotential generated from a relativistic atomic calculation

Valence configuration for pseudopotential generation:
2s( 2.00) rc: 0.94
2p( 3.00) rc: 0.59
3d( 0.00) rc: 3.46
4f( 0.00) rc: 2.47
Ground state valence configuration:   3s02  3p02
Reading pseudopotential information in formatted form from Si.psf

Pseudopotential generated from a relativistic atomic calculation

Valence configuration for pseudopotential generation:
3s( 2.00) rc: 1.67
3p( 2.00) rc: 2.04
3d( 0.00) rc: 2.89
4f( 0.00) rc: 2.49
Ground state valence configuration:   2s02  2p04
Reading pseudopotential information in formatted form from O.psf

Pseudopotential generated from a relativistic atomic calculation

Valence configuration for pseudopotential generation:
2s( 2.00) rc: 0.45
2p( 4.00) rc: 0.92
3d( 0.00) rc: 2.24
4f( 0.00) rc: 0.25
For H, standard SIESTA heuristics set lmxkb to 2
 (one more than the basis l, including polarization orbitals).
Use PS.lmax or PS.KBprojectors blocks to override.
For N, standard SIESTA heuristics set lmxkb to 3
 (one more than the basis l, including polarization orbitals).
Use PS.lmax or PS.KBprojectors blocks to override.
For Si, standard SIESTA heuristics set lmxkb to 3
 (one more than the basis l, including polarization orbitals).
Use PS.lmax or PS.KBprojectors blocks to override.
For O, standard SIESTA heuristics set lmxkb to 3
 (one more than the basis l, including polarization orbitals).
Use PS.lmax or PS.KBprojectors blocks to override.

<basis_specs>
===============================================================================
H                    Z=   1    Mass=  1.0100        Charge= 0.17977+309
Lmxo=0 Lmxkb= 2    BasisType=split      Semic=F
L=0  Nsemic=0  Cnfigmx=1
          i=1  nzeta=2  polorb=1  (1s)
            splnorm:   0.62000    
               vcte:    0.0000    
               rinn:    0.0000    
               qcoe:    0.0000    
               qyuk:    0.0000    
               qwid:   0.10000E-01
                rcs:    0.0000      0.0000    
            lambdas:    1.0000      1.0000    
-------------------------------------------------------------------------------
L=0  Nkbl=1  erefs: 0.17977+309
L=1  Nkbl=1  erefs: 0.17977+309
L=2  Nkbl=1  erefs: 0.17977+309
===============================================================================
</basis_specs>

atom: Called for H                     (Z =   1)

read_vps: Pseudopotential generation method:
read_vps: ATM4.2.7  Troullier-Martins                       
Valence charge for ps generation:    1.00000

xc_check: Exchange-correlation functional:
xc_check: GGA Perdew, Burke & Ernzerhof 1996
V l=0 = -2*Zval/r beyond r=  0.0098
V l=1 = -2*Zval/r beyond r=  0.5817
V l=2 = -2*Zval/r beyond r=  1.9372
All V_l potentials equal beyond r=  1.9372
This should be close to max(r_c) in ps generation
All pots = -2*Zval/r beyond r=  1.9372

VLOCAL1: 99.0% of the norm of Vloc inside     11.567 Ry
VLOCAL1: 99.9% of the norm of Vloc inside     26.362 Ry
atom: Maximum radius for 4*pi*r*r*local-pseudopot. charge    2.25106
atom: Maximum radius for r*vlocal+2*Zval:    1.91306
GHOST: No ghost state for L =  0
GHOST: No ghost state for L =  1
GHOST: No ghost state for L =  2

KBgen: Kleinman-Bylander projectors: 
   l= 0   rc=  2.036604   el= -0.477180   Ekb= -6.081590   kbcos= -0.277285
   l= 1   rc=  2.195416   el=  0.001076   Ekb= -0.926943   kbcos= -0.034643
   l= 2   rc=  2.251056   el=  0.002010   Ekb= -0.130941   kbcos= -0.009788

KBgen: Total number of Kleinman-Bylander projectors:    9
atom: -------------------------------------------------------------------------

atom: SANKEY-TYPE ORBITALS:
atom: Selected multiple-zeta basis: split     

SPLIT: Orbitals with angular momentum L= 0

SPLIT: Basis orbitals for state 1s

SPLIT: PAO cut-off radius determined from an
SPLIT: energy shift=  0.002000 Ry

   izeta = 1
                 lambda =    1.000000
                     rc =    6.518340
                 energy =   -0.475305
                kinetic =    0.912139
    potential(screened) =   -1.387444
       potential(ionic) =   -1.907295

   izeta = 2
                 rmatch =    2.141150
              splitnorm =    0.620000
                 energy =    0.566467
                kinetic =    3.772856
    potential(screened) =   -3.206389
       potential(ionic) =   -3.759093

POLgen: Perturbative polarization orbital with L=  1

POLgen: Polarization orbital for state 1s

   izeta = 1
                     rc =    6.518340
                 energy =    0.533861
                kinetic =    1.121086
    potential(screened) =   -0.587225
       potential(ionic) =   -1.053027
atom: Total number of Sankey-type orbitals:  5

atm_pop: Valence configuration (for local Pseudopot. screening):
 1s( 1.00)                                                            
Vna: chval, zval:    1.00000   1.00000

Vna:  Cut-off radius for the neutral-atom potential:   6.518340

atom: _________________________________________________________________________

<basis_specs>
===============================================================================
N                    Z=   7    Mass=  14.010        Charge= 0.17977+309
Lmxo=1 Lmxkb= 3    BasisType=split      Semic=F
L=0  Nsemic=0  Cnfigmx=2
          i=1  nzeta=2  polorb=0  (2s)
            splnorm:   0.28000    
               vcte:    0.0000    
               rinn:    0.0000    
               qcoe:    0.0000    
               qyuk:    0.0000    
               qwid:   0.10000E-01
                rcs:    0.0000      0.0000    
            lambdas:    1.0000      1.0000    
L=1  Nsemic=0  Cnfigmx=2
          i=1  nzeta=2  polorb=1  (2p)
            splnorm:   0.28000    
               vcte:    0.0000    
               rinn:    0.0000    
               qcoe:    0.0000    
               qyuk:    0.0000    
               qwid:   0.10000E-01
                rcs:    0.0000      0.0000    
            lambdas:    1.0000      1.0000    
-------------------------------------------------------------------------------
L=0  Nkbl=1  erefs: 0.17977+309
L=1  Nkbl=1  erefs: 0.17977+309
L=2  Nkbl=1  erefs: 0.17977+309
L=3  Nkbl=1  erefs: 0.17977+309
===============================================================================
</basis_specs>

atom: Called for N                     (Z =   7)

read_vps: Pseudopotential generation method:
read_vps: ATM4.2.7  Troullier-Martins                       
Valence charge for ps generation:    5.00000

xc_check: Exchange-correlation functional:
xc_check: GGA Perdew, Burke & Ernzerhof 1996
V l=0 = -2*Zval/r beyond r=  1.2889
V l=1 = -2*Zval/r beyond r=  1.2889
V l=2 = -2*Zval/r beyond r=  3.4178
V l=3 = -2*Zval/r beyond r=  2.4084
All V_l potentials equal beyond r=  3.3753
This should be close to max(r_c) in ps generation
All pots = -2*Zval/r beyond r=  3.4178

VLOCAL1: 99.0% of the norm of Vloc inside      3.810 Ry
VLOCAL1: 99.9% of the norm of Vloc inside      8.683 Ry
atom: Maximum radius for 4*pi*r*r*local-pseudopot. charge    4.02088
atom: Maximum radius for r*vlocal+2*Zval:    3.54838
GHOST: No ghost state for L =  0
GHOST: No ghost state for L =  1
GHOST: No ghost state for L =  2
GHOST: No ghost state for L =  3

KBgen: Kleinman-Bylander projectors: 
   l= 0   rc=  3.417763   el= -1.365098   Ekb= -4.433130   kbcos= -0.707855
   l= 1   rc=  3.375302   el= -0.521201   Ekb=-13.264039   kbcos= -0.535594
   l= 2   rc=  3.872880   el=  0.001991   Ekb= -0.641094   kbcos= -0.062456
   l= 3   rc=  3.970931   el=  0.003093   Ekb= -0.474517   kbcos= -0.018236

KBgen: Total number of Kleinman-Bylander projectors:   16
atom: -------------------------------------------------------------------------

atom: SANKEY-TYPE ORBITALS:
atom: Selected multiple-zeta basis: split     

SPLIT: Orbitals with angular momentum L= 0

SPLIT: Basis orbitals for state 2s

SPLIT: PAO cut-off radius determined from an
SPLIT: energy shift=  0.002000 Ry

   izeta = 1
                 lambda =    1.000000
                     rc =    4.730425
                 energy =   -1.363399
                kinetic =    1.245246
    potential(screened) =   -2.608645
       potential(ionic) =   -8.121105

   izeta = 2
                 rmatch =    2.531849
              splitnorm =    0.280000
                 energy =   -0.959908
                kinetic =    2.409435
    potential(screened) =   -3.369343
       potential(ionic) =   -9.427975

SPLIT: Orbitals with angular momentum L= 1

SPLIT: Basis orbitals for state 2p

SPLIT: PAO cut-off radius determined from an
SPLIT: energy shift=  0.002000 Ry

   izeta = 1
                 lambda =    1.000000
                     rc =    5.924108
                 energy =   -0.519262
                kinetic =    3.672940
    potential(screened) =   -4.192202
       potential(ionic) =   -9.518354

   izeta = 2
                 rmatch =    2.531849
              splitnorm =    0.280000
                 energy =   -0.104258
                kinetic =    6.807538
    potential(screened) =   -6.911796
       potential(ionic) =  -13.149920

POLgen: Perturbative polarization orbital with L=  2

POLgen: Polarization orbital for state 2p

   izeta = 1
                     rc =    5.924108
                 energy =    1.427508
                kinetic =    2.872379
    potential(screened) =   -1.444871
       potential(ionic) =   -5.563644
atom: Total number of Sankey-type orbitals: 13

atm_pop: Valence configuration (for local Pseudopot. screening):
 2s( 2.00)                                                            
 2p( 3.00)                                                            
Vna: chval, zval:    5.00000   5.00000

Vna:  Cut-off radius for the neutral-atom potential:   5.924108

atom: _________________________________________________________________________

<basis_specs>
===============================================================================
Si                   Z=  14    Mass=  28.090        Charge= 0.17977+309
Lmxo=1 Lmxkb= 3    BasisType=split      Semic=F
L=0  Nsemic=0  Cnfigmx=3
          i=1  nzeta=2  polorb=0  (3s)
            splnorm:   0.28000    
               vcte:    0.0000    
               rinn:    0.0000    
               qcoe:    0.0000    
               qyuk:    0.0000    
               qwid:   0.10000E-01
                rcs:    0.0000      0.0000    
            lambdas:    1.0000      1.0000    
L=1  Nsemic=0  Cnfigmx=3
          i=1  nzeta=2  polorb=1  (3p)
            splnorm:   0.28000    
               vcte:    0.0000    
               rinn:    0.0000    
               qcoe:    0.0000    
               qyuk:    0.0000    
               qwid:   0.10000E-01
                rcs:    0.0000      0.0000    
            lambdas:    1.0000      1.0000    
-------------------------------------------------------------------------------
L=0  Nkbl=1  erefs: 0.17977+309
L=1  Nkbl=1  erefs: 0.17977+309
L=2  Nkbl=1  erefs: 0.17977+309
L=3  Nkbl=1  erefs: 0.17977+309
===============================================================================
</basis_specs>

atom: Called for Si                    (Z =  14)

read_vps: Pseudopotential generation method:
read_vps: ATM4.2.7  Troullier-Martins                       
Valence charge for ps generation:    4.00000

xc_check: Exchange-correlation functional:
xc_check: GGA Perdew, Burke & Ernzerhof 1996
V l=0 = -2*Zval/r beyond r=  2.7826
V l=1 = -2*Zval/r beyond r=  2.7826
V l=2 = -2*Zval/r beyond r=  2.9253
V l=3 = -2*Zval/r beyond r=  2.7826
All V_l potentials equal beyond r=  2.8530
This should be close to max(r_c) in ps generation
All pots = -2*Zval/r beyond r=  2.9253

VLOCAL1: 99.0% of the norm of Vloc inside      5.333 Ry
VLOCAL1: 99.9% of the norm of Vloc inside     12.154 Ry
atom: Maximum radius for 4*pi*r*r*local-pseudopot. charge    3.39869
atom: Maximum radius for r*vlocal+2*Zval:    2.96205
GHOST: No ghost state for L =  0
GHOST: No ghost state for L =  1
GHOST: No ghost state for L =  2
GHOST: No ghost state for L =  3

KBgen: Kleinman-Bylander projectors: 
   l= 0   rc=  3.075247   el= -0.794092   Ekb=  5.879390   kbcos=  0.167461
   l= 1   rc=  3.153101   el= -0.300068   Ekb=  2.642817   kbcos=  0.058301
   l= 2   rc=  3.273594   el=  0.001958   Ekb= -1.185135   kbcos= -0.104411
   l= 3   rc=  3.232927   el=  0.003046   Ekb= -0.497174   kbcos= -0.015889

KBgen: Total number of Kleinman-Bylander projectors:   16
atom: -------------------------------------------------------------------------

atom: SANKEY-TYPE ORBITALS:
atom: Selected multiple-zeta basis: split     

SPLIT: Orbitals with angular momentum L= 0

SPLIT: Basis orbitals for state 3s

SPLIT: PAO cut-off radius determined from an
SPLIT: energy shift=  0.002000 Ry

   izeta = 1
                 lambda =    1.000000
                     rc =    6.429618
                 energy =   -0.792283
                kinetic =    0.525293
    potential(screened) =   -1.317576
       potential(ionic) =   -3.744923

   izeta = 2
                 rmatch =    3.998416
              splitnorm =    0.280000
                 energy =   -0.583081
                kinetic =    1.069570
    potential(screened) =   -1.652651
       potential(ionic) =   -4.235185

SPLIT: Orbitals with angular momentum L= 1

SPLIT: Basis orbitals for state 3p

SPLIT: PAO cut-off radius determined from an
SPLIT: energy shift=  0.002000 Ry

   izeta = 1
                 lambda =    1.000000
                     rc =    8.464845
                 energy =   -0.298236
                kinetic =    0.785360
    potential(screened) =   -1.083596
       potential(ionic) =   -3.273779

   izeta = 2
                 rmatch =    4.587816
              splitnorm =    0.280000
                 energy =   -0.131871
                kinetic =    1.403687
    potential(screened) =   -1.535557
       potential(ionic) =   -4.015310

POLgen: Perturbative polarization orbital with L=  2

POLgen: Polarization orbital for state 3p

   izeta = 1
                     rc =    8.464845
                 energy =    0.321949
                kinetic =    1.055677
    potential(screened) =   -0.733728
       potential(ionic) =   -2.672950
atom: Total number of Sankey-type orbitals: 13

atm_pop: Valence configuration (for local Pseudopot. screening):
 3s( 2.00)                                                            
 3p( 2.00)                                                            
Vna: chval, zval:    4.00000   4.00000

Vna:  Cut-off radius for the neutral-atom potential:   8.464845

atom: _________________________________________________________________________

<basis_specs>
===============================================================================
O                    Z=   8    Mass=  16.000        Charge= 0.17977+309
Lmxo=1 Lmxkb= 3    BasisType=split      Semic=F
L=0  Nsemic=0  Cnfigmx=2
          i=1  nzeta=2  polorb=0  (2s)
            splnorm:   0.28000    
               vcte:    0.0000    
               rinn:    0.0000    
               qcoe:    0.0000    
               qyuk:    0.0000    
               qwid:   0.10000E-01
                rcs:    0.0000      0.0000    
            lambdas:    1.0000      1.0000    
L=1  Nsemic=0  Cnfigmx=2
          i=1  nzeta=2  polorb=1  (2p)
            splnorm:   0.28000    
               vcte:    0.0000    
               rinn:    0.0000    
               qcoe:    0.0000    
               qyuk:    0.0000    
               qwid:   0.10000E-01
                rcs:    0.0000      0.0000    
            lambdas:    1.0000      1.0000    
-------------------------------------------------------------------------------
L=0  Nkbl=1  erefs: 0.17977+309
L=1  Nkbl=1  erefs: 0.17977+309
L=2  Nkbl=1  erefs: 0.17977+309
L=3  Nkbl=1  erefs: 0.17977+309
===============================================================================
</basis_specs>

atom: Called for O                     (Z =   8)

read_vps: Pseudopotential generation method:
read_vps: ATM4.2.7  Troullier-Martins                       
Valence charge for ps generation:    6.00000

xc_check: Exchange-correlation functional:
xc_check: GGA Perdew, Burke & Ernzerhof 1996
V l=0 = -2*Zval/r beyond r=  1.1000
V l=1 = -2*Zval/r beyond r=  1.1000
V l=2 = -2*Zval/r beyond r=  2.2154
V l=3 = -2*Zval/r beyond r=  1.1000
All V_l potentials equal beyond r=  2.2154
This should be close to max(r_c) in ps generation
All pots = -2*Zval/r beyond r=  2.2154

VLOCAL1: 99.0% of the norm of Vloc inside      8.845 Ry
VLOCAL1: 99.9% of the norm of Vloc inside     20.157 Ry
atom: Maximum radius for 4*pi*r*r*local-pseudopot. charge    2.67231
atom: Maximum radius for r*vlocal+2*Zval:    2.32897
GHOST: No ghost state for L =  0
GHOST: No ghost state for L =  1
GHOST: No ghost state for L =  2
GHOST: No ghost state for L =  3

KBgen: Kleinman-Bylander projectors: 
   l= 0   rc=  2.243238   el= -1.759686   Ekb=**********   kbcos= -0.171774
   l= 1   rc=  2.328968   el= -0.663873   Ekb=-14.506792   kbcos= -0.519897
   l= 2   rc=  2.573941   el=  0.002031   Ekb= -1.137373   kbcos= -0.019581
   l= 3   rc=  2.606321   el=  0.003153   Ekb= -1.013546   kbcos= -0.003122

KBgen: Total number of Kleinman-Bylander projectors:   16
atom: -------------------------------------------------------------------------

atom: SANKEY-TYPE ORBITALS:
atom: Selected multiple-zeta basis: split     

SPLIT: Orbitals with angular momentum L= 0

SPLIT: Basis orbitals for state 2s

SPLIT: PAO cut-off radius determined from an
SPLIT: energy shift=  0.002000 Ry

   izeta = 1
                 lambda =    1.000000
                     rc =    4.243912
                 energy =   -1.758270
                kinetic =    3.286084
    potential(screened) =   -5.044353
       potential(ionic) =  -12.921184

   izeta = 2
                 rmatch =    2.187845
              splitnorm =    0.280000
                 energy =   -0.885018
                kinetic =    8.134434
    potential(screened) =   -9.019452
       potential(ionic) =  -17.710645

SPLIT: Orbitals with angular momentum L= 1

SPLIT: Basis orbitals for state 2p

SPLIT: PAO cut-off radius determined from an
SPLIT: energy shift=  0.002000 Ry

   izeta = 1
                 lambda =    1.000000
                     rc =    5.314825
                 energy =   -0.661986
                kinetic =    4.917472
    potential(screened) =   -5.579458
       potential(ionic) =  -13.236259

   izeta = 2
                 rmatch =    2.160663
              splitnorm =    0.280000
                 energy =   -0.068760
                kinetic =    9.183374
    potential(screened) =   -9.252135
       potential(ionic) =  -18.274251

POLgen: Perturbative polarization orbital with L=  2

POLgen: Polarization orbital for state 2p

   izeta = 1
                     rc =    5.314825
                 energy =    1.970580
                kinetic =    3.886128
    potential(screened) =   -1.915547
       potential(ionic) =   -7.749584
atom: Total number of Sankey-type orbitals: 13

atm_pop: Valence configuration (for local Pseudopot. screening):
 2s( 2.00)                                                            
 2p( 4.00)                                                            
Vna: chval, zval:    6.00000   6.00000

Vna:  Cut-off radius for the neutral-atom potential:   5.314825

atom: _________________________________________________________________________

prinput: Basis input ----------------------------------------------------------

PAO.BasisType split     

%block ChemicalSpeciesLabel
    1    1 H                       # Species index, atomic number, species label
    2    7 N                       # Species index, atomic number, species label
    3   14 Si                      # Species index, atomic number, species label
    4    8 O                       # Species index, atomic number, species label
%endblock ChemicalSpeciesLabel

%block PAO.Basis                 # Define Basis set
H                     1                    # Species label, number of l-shells
 n=1   0   2 P   1                   # n, l, Nzeta, Polarization, NzetaPol
   6.518      2.141   
   1.000      1.000   
N                     2                    # Species label, number of l-shells
 n=2   0   2                         # n, l, Nzeta 
   4.730      2.532   
   1.000      1.000   
 n=2   1   2 P   1                   # n, l, Nzeta, Polarization, NzetaPol
   5.924      2.532   
   1.000      1.000   
Si                    2                    # Species label, number of l-shells
 n=3   0   2                         # n, l, Nzeta 
   6.430      3.998   
   1.000      1.000   
 n=3   1   2 P   1                   # n, l, Nzeta, Polarization, NzetaPol
   8.465      4.588   
   1.000      1.000   
O                     2                    # Species label, number of l-shells
 n=2   0   2                         # n, l, Nzeta 
   4.244      2.188   
   1.000      1.000   
 n=2   1   2 P   1                   # n, l, Nzeta, Polarization, NzetaPol
   5.315      2.161   
   1.000      1.000   
%endblock PAO.Basis

prinput: ----------------------------------------------------------------------

Dumping basis to NetCDF file H.ion.nc
Dumping basis to NetCDF file N.ion.nc
Dumping basis to NetCDF file Si.ion.nc
Dumping basis to NetCDF file O.ion.nc
coor:   Atomic-coordinates input format  =     Cartesian coordinates
coor:                                          (in Angstroms)

siesta: Atomic coordinates (Bohr) and species
siesta:      4.31792  -9.81768   0.00000  1        1
siesta:      2.59711  -8.81503   0.00000  2        2
siesta:     -0.41253 -10.38326   0.00000  3        3
siesta:     -0.33040 -13.20006   0.00000  1        4
siesta:     -3.14019  -8.66630   0.00000  2        5
siesta:     -2.06030  -5.43214   0.00000  3        6
siesta:     -2.89201  -1.33728   0.00000  3        7
siesta:     -5.94160  -0.17360   0.00000  2        8
siesta:     -6.43014   1.81127   0.00000  1        9
siesta:     -7.46581  -1.44982   0.00000  1       10
siesta:     -0.33706   0.78140   0.00000  2       11
siesta:      2.82552  -0.08957   0.00000  3       12
siesta:      4.64124   2.09244   0.00000  1       13
siesta:      4.35491  -2.99662   0.00000  2       14
siesta:      2.09241  -5.37836   0.00000  3       15
siesta:      0.69150  17.03069   0.00000  1       16
siesta:     -0.83674  15.72261   0.00000  2       17
siesta:     -3.96724  17.07021   0.00000  3       18
siesta:     -3.78419  19.92507   0.00000  1       19
siesta:     -7.22921  14.53222   0.00000  3       20
siesta:    -11.67848  14.51712   0.00000  3       21
siesta:    -12.74130  15.90511  -2.27113  1       22
siesta:    -12.24505  11.72204  -0.16286  1       23
siesta:    -12.74151  15.58450   2.43425  1       24
siesta:     -5.47291  10.61940   0.00000  3       25
siesta:     -7.26715   8.18442   0.00000  4       26
siesta:     -2.08851  10.29109   0.00000  2       27
siesta:     -1.46303   8.34022   0.00000  1       28
siesta:      0.38411  12.54846   0.00000  3       29
siesta:      3.34331  12.04343   0.00000  4       30

siesta: Automatic unit cell vectors (Ang):
siesta:   18.297388    0.000000    0.000000
siesta:    0.000000   26.870545    0.000000
siesta:    0.000000    0.000000   10.327559

siesta: System type = molecule  

initatomlists: Number of atoms, orbitals, and projectors:     30   302   403

siesta: ******************** Simulation parameters ****************************
siesta:
siesta: The following are some of the parameters of the simulation.
siesta: A complete list of the parameters used, including default values,
siesta: can be found in file out.fdf
siesta:
redata: Spin configuration                          = spin-orbit
redata: Number of spin components                   = 8
redata: Time-Reversal Symmetry                      = F
redata: Spin spiral                                 = F
############################################################
This spin-orbit implementation uses a local approximation.
From 4.2 and onwards the full non-local approximation is implemented
You are strongly advised to use >=4.2 versions!
############################################################
redata: Long output                                 =   F
redata: Number of Atomic Species                    =        4
redata: Charge density info will appear in .RHO file
redata: Write Mulliken Pop.                         = NO
redata: Matel table size (NRTAB)                    =     1024
redata: Mesh Cutoff                                 =   340.0000 Ry
redata: Net charge of the system                    =     0.0000 |e|
redata: Min. number of SCF Iter                     =        1
redata: Max. number of SCF Iter                     =      300
redata: SCF convergence failure will abort job
redata: SCF mix quantity                            = Hamiltonian
redata: Mix DM or H after convergence               =   F
redata: Recompute H after scf cycle                 =   F
redata: Mix DM in first SCF step                    =   T
redata: Write Pulay info on disk                    =   F
redata: New DM Occupancy tolerance                  = 0.000000000001
redata: No kicks to SCF
redata: DM Mixing Weight for Kicks                  =     0.5000
redata: Require Harris convergence for SCF          =   F
redata: Harris energy tolerance for SCF             =     0.000100 eV
redata: Require DM convergence for SCF              =   T
redata: DM tolerance for SCF                        =     0.000008
redata: Require EDM convergence for SCF             =   F
redata: EDM tolerance for SCF                       =     0.001000 eV
redata: Require H convergence for SCF               =   T
redata: Hamiltonian tolerance for SCF               =     0.000001 eV
redata: Require (free) Energy convergence for SCF   =   F
redata: (free) Energy tolerance for SCF             =     0.000100 eV
redata: Using Saved Data (generic)                  =   F
redata: Use continuation files for DM               =   T
redata: Neglect nonoverlap interactions             =   F
redata: Method of Calculation                       = Diagonalization
redata: Electronic Temperature                      =   299.9978 K
redata: Fix the spin of the system                  =   F
redata: Dynamics option                             = Verlet MD run
redata: Initial MD time step                        =        1
redata:   Final MD time step                        =        1
redata: Length of MD time step                      =     0.5000 fs
redata: Initial Temperature of MD run               =     0.0000 K
redata: Perform a MD quench                         =   F
mix.SCF: Pulay mixing                            = Pulay
mix.SCF:    Variant                              = stable
mix.SCF:    History steps                        = 6
mix.SCF:    Linear mixing weight                 =     0.250000
mix.SCF:    Mixing weight                        =     0.250000
mix.SCF:    SVD condition                        = 0.1000E-07
mix.SCF:    Restart steps                        = 24
mix.SCF:    Restart save steps                   = 3
mix.SCF: Spin-component mixing                   all
redata: Save all siesta data in one NC              =   F
redata: ***********************************************************************

%block SCF.Mixers
  Pulay
%endblock SCF.Mixers

%block SCF.Mixer.Pulay
  # Mixing method
  method pulay
  variant stable

  # Mixing options
  weight 0.2500
  weight.linear 0.2500
  history 6
  restart 24
  restart.save 3
%endblock SCF.Mixer.Pulay

Size of DM history Fstack: 3
Total number of electrons:    98.000000
Total ionic charge:    98.000000

* ProcessorY, Blocksize:    4   9


* Orbital distribution balance (max,min):    18     9


Time-reversal symmetry not used.

siesta: k-grid: Number of k-points =     1
siesta: k-grid: Cutoff (effective) =     5.164 Ang
siesta: k-grid: Supercell and displacements
siesta: k-grid:    1   0   0      0.000
siesta: k-grid:    0   1   0      0.000
siesta: k-grid:    0   0   1      0.000

diag: Algorithm                                     = ELPA-1stage
diag: Parallel over k                               =   F
diag: Use parallel 2D distribution                  =   T
diag: Parallel block-size                           = 9
diag: Parallel distribution                         =     4 x     8
diag: Used triangular part                          = Lower
diag: Absolute tolerance                            =  0.100E-15
diag: Orthogonalization factor                      =  0.100E-05
diag: Memory factor                                 =  1.0000


ts: **************************************************************
ts: Save H and S matrices                           =    F
ts: Save DM and EDM matrices                        =    F
ts: Only save the overlap matrix S                  =    F
ts: **************************************************************

************************ Begin: TS CHECKS AND WARNINGS ************************
************************ End: TS CHECKS AND WARNINGS **************************


                     ====================================
                        Begin MD step =      1
                     ====================================

outcoor: Atomic coordinates (Ang):                          
    2.28494382   -5.19529124    0.00000000   1       1  H
    1.37433094   -4.66471070    0.00000000   2       2  N
   -0.21830245   -5.49458215    0.00000000   3       3  Si
   -0.17484108   -6.98516892    0.00000000   1       4  H
   -1.66171682   -4.58600741    0.00000000   2       5  N
   -1.09026419   -2.87456374    0.00000000   3       6  Si
   -1.53038332   -0.70765692    0.00000000   3       7  Si
   -3.14415959   -0.09186471    0.00000000   2       8  N
   -3.40268075    0.95848335    0.00000000   1       9  H
   -3.95073599   -0.76720972    0.00000000   1      10  H
   -0.17836637    0.41349951    0.00000000   2      11  N
    1.49520211   -0.04739960    0.00000000   3      12  Si
    2.45603905    1.10727302    0.00000000   1      13  H
    2.30451743   -1.58574382    0.00000000   2      14  N
    1.10725559   -2.84610319    0.00000000   3      15  Si
    0.36592746    9.01224814    0.00000000   1      16  H
   -0.44278322    8.32004226    0.00000000   2      17  N
   -2.09937306    9.03316236    0.00000000   3      18  Si
   -2.00250789   10.54388757    0.00000000   1      19  H
   -3.82552941    7.69011423    0.00000000   3      20  Si
   -6.17998366    7.68212730    0.00000000   3      21  Si
   -6.74240178    8.41661695   -1.20183078   1      22  H
   -6.47979741    6.20303617   -0.08618332   1      23  H
   -6.74251424    8.24695976    1.28814761   1      24  H
   -2.89613877    5.61954300    0.00000000   3      25  Si
   -3.84560713    4.33100687    0.00000000   4      26  O
   -1.10519390    5.44580753    0.00000000   2      27  N
   -0.77420254    4.41345055    0.00000000   1      28  H
    0.20326432    6.64035395    0.00000000   3      29  Si
    1.76920125    6.37310710    0.00000000   4      30  O

outcell: Unit cell vectors (Ang):
       18.297388    0.000000    0.000000
        0.000000   26.870545    0.000000
        0.000000    0.000000   10.327559

outcell: Cell vector modules (Ang)   :   18.297388   26.870545   10.327559
outcell: Cell angles (23,13,12) (deg):     90.0000     90.0000     90.0000
outcell: Cell volume (Ang**3)        :   5077.6557
<dSpData1D:S at geom step 1
  <sparsity:sparsity for geom step 1
    nrows_g=302 nrows=18 sparsity=.0316 nnzs=2879, refcount: 8>
  <dData1D:(new from dSpData1D) n=2879, refcount: 1>
refcount: 1>
new_DM -- step:     1
Initializing Density Matrix...

Attempting to read DM from file... Failed...
DM filled with atomic data:
<dSpData2D:DM initialized from atoms
  <sparsity:sparsity for geom step 1
    nrows_g=302 nrows=18 sparsity=.0316 nnzs=2879, refcount: 9>
  <dData2D:DM n=2879 m=8, refcount: 1>
refcount: 1>
     spin moment: S , {S} =   56.00000   0.00000   0.00000  56.00000
No. of atoms with KB's overlaping orbs in proc 0. Max # of overlaps:      21     157

Initializing spin-orbit part of the Hamiltonian
  Adding spin-orbit effects for H 
  Adding spin-orbit effects for N 
  Adding spin-orbit effects for Si
  Adding spin-orbit effects for O 


New grid distribution:   1
           1       1:  108    1:   38    1:    8
           2       1:  108    1:   38    9:   16
           3       1:  108    1:   38   17:   24
           4       1:  108    1:   38   25:   32
           5       1:  108    1:   38   33:   39
           6       1:  108    1:   38   40:   46
           7       1:  108    1:   38   47:   53
           8       1:  108    1:   38   54:   60
           9       1:  108   39:   76    1:    8
          10       1:  108   39:   76    9:   16
          11       1:  108   39:   76   17:   24
          12       1:  108   39:   76   25:   32
          13       1:  108   39:   76   33:   39
          14       1:  108   39:   76   40:   46
          15       1:  108   39:   76   47:   53
          16       1:  108   39:   76   54:   60
          17       1:  108   77:  113    1:    8
          18       1:  108   77:  113    9:   16
          19       1:  108   77:  113   17:   24
          20       1:  108   77:  113   25:   32
          21       1:  108   77:  113   33:   39
          22       1:  108   77:  113   40:   46
          23       1:  108   77:  113   47:   53
          24       1:  108   77:  113   54:   60
          25       1:  108  114:  150    1:    8
          26       1:  108  114:  150    9:   16
          27       1:  108  114:  150   17:   24
          28       1:  108  114:  150   25:   32
          29       1:  108  114:  150   33:   39
          30       1:  108  114:  150   40:   46
          31       1:  108  114:  150   47:   53
          32       1:  108  114:  150   54:   60

InitMesh: MESH =   216 x   300 x   120 =     7776000
InitMesh: (bp) =   108 x   150 x    60 =      972000
InitMesh: Mesh cutoff (required, used) =   340.000   344.502 Ry
ExtMesh (bp) on 0 =   216 x   142 x   116 =     3557952
New grid distribution:   2
           1       1:   17    1:   34    1:   19
           2      88:   98    1:   33    1:   18
           3      88:   98    1:   33   19:   60
           4      18:   87    1:   34   20:   60
           5      18:   87    1:   34    1:   19
           6       1:   17    1:   34   20:   60
           7      99:  108    1:   33   19:   60
           8      99:  108    1:   33    1:   18
           9      10:   81   51:  131    1:   20
          10       1:   69   35:   50    1:   22
          11      70:   87   35:   50    1:   22
          12      71:   87   35:   50   23:   60
          13       1:   70   35:   50   23:   60
          14       1:    9   51:  131    1:   20
          15      98:  108   34:   50   22:   60
          16      88:   97   34:   50   22:   60
          17      82:   99   51:  130    1:   20
          18     100:  108  131:  150   22:   60
          19      98:  108   34:   50    1:   21
          20      10:   81   51:  131   21:   60
          21      82:   99   51:  130   21:   60
          22     100:  108   51:  130   21:   60
          23       1:    9  132:  150   21:   60
          24      88:   97   34:   50    1:   21
          25      10:   81  132:  150    1:   20
          26      82:   99  131:  150    1:   21
          27     100:  108  131:  150    1:   21
          28      10:   81  132:  150   21:   60
          29       1:    9   51:  131   21:   60
          30     100:  108   51:  130    1:   20
          31      82:   99  131:  150   22:   60
          32       1:    9  132:  150    1:   20
New grid distribution:   3
           1      25:   70   32:   53    1:   25
           2      92:  108    1:   29   25:   60
           3      71:   91    1:   29    1:   24
           4      17:   70    1:   31   25:   60
           5      17:   75  123:  150    1:   25
           6      71:   91    1:   29   25:   60
           7       1:   16    1:   31   25:   60
           8       1:   16    1:   31    1:   24
           9      15:   75   54:  122    1:   24
          10      95:  108  119:  150   26:   60
          11       1:   24   32:   53    1:   25
          12      26:   70   32:   53   26:   60
          13      17:   70    1:   31    1:   24
          14       1:   25   32:   53   26:   60
          15      71:   89   30:   53   27:   60
          16      71:   89   30:   53    1:   26
          17      76:   96   54:  118    1:   24
          18      97:  108   54:  118    1:   24
          19      90:  108   30:   53    1:   26
          20      15:   75   54:  122   25:   60
          21      76:   96   54:  118   25:   60
          22      97:  108   54:  118   25:   60
          23      90:  108   30:   53   27:   60
          24      92:  108    1:   29    1:   24
          25       1:   14   54:  122    1:   24
          26      76:   94  119:  150    1:   25
          27       1:   16  123:  150    1:   25
          28      17:   75  123:  150   26:   60
          29       1:   14   54:  122   25:   60
          30      76:   94  119:  150   26:   60
          31       1:   16  123:  150   26:   60
          32      95:  108  119:  150    1:   25
Setting up quadratic distribution...
ExtMesh (bp) on 0 =   125 x   138 x   127 =     2190750
PhiOnMesh: Number of (b)points on node 0 =                10982
PhiOnMesh: nlist on node 0 =               343325

stepf: Fermi-Dirac step function

siesta: Program's energy decomposition (eV):
siesta: Ebs     =      -640.472789
siesta: Eions   =      3553.971015
siesta: Ena     =       374.982733
siesta: Ekin    =      3170.974969
siesta: Enl     =     -2984.377201
siesta: Eso     =        -0.003883
siesta: Edftu   =         0.000000
siesta: DEna    =       129.663835
siesta: DUscf   =        75.372572
siesta: DUext   =         0.000000
siesta: Exc     =     -1168.593791
siesta: eta*DQ  =         0.000000
siesta: Emadel  =         0.000000
siesta: Emeta   =         0.000000
siesta: Emolmec =         0.000000
siesta: Ekinion =         0.000000
siesta: Eharris =     -3885.442239
siesta: Etot    =     -3955.951781
siesta: FreeEng =     -3955.955082

        iscf     Eharris(eV)        E_KS(eV)     FreeEng(eV)     dDmax    Ef(eV) dHmax(eV)
   scf:    1    -3885.442239    -3955.951781    -3955.955082  0.970494 -4.935182 21.372884
     spin moment: S , {S} =    2.02344  -0.00000  -0.00000   2.02344
timer: Routine,Calls,Time,% = IterSCF        1       3.891   9.62
   scf:    2    -3998.063978    -3989.482169    -3989.482182  0.466311 -4.290022 10.562275
     spin moment: S , {S} =    2.00007   0.00000  -0.00000   2.00007
   scf:    3    -3969.045464    -3988.612383    -3988.651163  0.421063 -4.167709 10.201401
     spin moment: S , {S} =    1.64846   0.00000  -0.00000   1.64846
   scf:    4    -4001.851245    -3997.456390    -3997.456390  0.202759 -3.914098  6.063505
     spin moment: S , {S} =    0.00010  -0.00000   0.00000   0.00010
   scf:    5    -3998.814250    -3998.210217    -3998.210217  0.038539 -3.824903  3.827387
     spin moment: S , {S} =    0.00006  -0.00000   0.00000   0.00006
   scf:    6    -3998.951485    -3998.582718    -3998.582718  0.025502 -3.817873  1.959298
     spin moment: S , {S} =    0.00003  -0.00000   0.00000   0.00003
   scf:    7    -3998.959896    -3998.764836    -3998.764836  0.022753 -3.868422  0.708631
     spin moment: S , {S} =    0.00001  -0.00000   0.00000   0.00001
   scf:    8    -3998.886302    -3998.823288    -3998.823288  0.011822 -3.907712  0.427097
     spin moment: S , {S} =    0.00000  -0.00000   0.00000   0.00000
   scf:    9    -3998.870473    -3998.845818    -3998.845818  0.006969 -3.924469  0.329031
     spin moment: S , {S} =    0.00000  -0.00000   0.00000   0.00000
   scf:   10    -3998.900513    -3998.866769    -3998.866769  0.019944 -3.945817  0.157896
     spin moment: S , {S} =    0.00000  -0.00000  -0.00000  -0.00000
   scf:   11    -3998.869871    -3998.868389    -3998.868390  0.004071 -3.935433  0.046753
     spin moment: S , {S} =    0.00000  -0.00000  -0.00000  -0.00000
   scf:   12    -3998.868979    -3998.868695    -3998.868695  0.001399 -3.933564  0.027797
     spin moment: S , {S} =    0.00000  -0.00000  -0.00000  -0.00000
   scf:   13    -3998.869071    -3998.868881    -3998.868881  0.001000 -3.932071  0.016388
     spin moment: S , {S} =    0.00000  -0.00000  -0.00000   0.00000
   scf:   14    -3998.869135    -3998.869001    -3998.869002  0.001216 -3.931316  0.012303
     spin moment: S , {S} =    0.00000  -0.00000  -0.00000   0.00000
   scf:   15    -3998.869135    -3998.869063    -3998.869064  0.001010 -3.931012  0.009746
     spin moment: S , {S} =    0.00000  -0.00000  -0.00000   0.00000
   scf:   16    -3998.869154    -3998.869103    -3998.869104  0.001048 -3.930919  0.005960
     spin moment: S , {S} =    0.00000  -0.00000  -0.00000   0.00000
   scf:   17    -3998.869128    -3998.869115    -3998.869115  0.000536 -3.930977  0.004482
     spin moment: S , {S} =    0.00000  -0.00000  -0.00000   0.00000
   scf:   18    -3998.869127    -3998.869120    -3998.869120  0.000426 -3.931048  0.002613
     spin moment: S , {S} =    0.00000  -0.00000  -0.00000   0.00000
   scf:   19    -3998.869125    -3998.869122    -3998.869123  0.000335 -3.931059  0.001250
     spin moment: S , {S} =    0.00000  -0.00000  -0.00000   0.00000
   scf:   20    -3998.869123    -3998.869123    -3998.869123  0.000105 -3.931072  0.000784
     spin moment: S , {S} =    0.00000  -0.00000  -0.00000   0.00000
   scf:   21    -3998.869123    -3998.869123    -3998.869123  0.000079 -3.931072  0.000444
     spin moment: S , {S} =    0.00000  -0.00000  -0.00000   0.00000
   scf:   22    -3998.869123    -3998.869123    -3998.869123  0.000069 -3.931080  0.000134
     spin moment: S , {S} =    0.00000  -0.00000  -0.00000  -0.00000
   scf:   23    -3998.869123    -3998.869123    -3998.869123  0.000020 -3.931085  0.000079
     spin moment: S , {S} =    0.00000  -0.00000  -0.00000  -0.00000
   scf:   24    -3998.869123    -3998.869123    -3998.869123  0.000010 -3.931086  0.000061
     spin moment: S , {S} =    0.00000  -0.00000   0.00000  -0.00000
mix: Pulay -- resetting history
   scf:   25    -3998.869123    -3998.869123    -3998.869123  0.000006 -3.931085  0.000044
     spin moment: S , {S} =    0.00000  -0.00000   0.00000  -0.00000
   scf:   26    -3998.869123    -3998.869123    -3998.869123  0.000002 -3.931083  0.000029
     spin moment: S , {S} =    0.00000  -0.00000   0.00000  -0.00000
   scf:   27    -3998.869123    -3998.869123    -3998.869123  0.000003 -3.931080  0.000017
     spin moment: S , {S} =    0.00000  -0.00000  -0.00000  -0.00000
   scf:   28    -3998.869123    -3998.869123    -3998.869123  0.000001 -3.931079  0.000010
     spin moment: S , {S} =    0.00000   0.00000   0.00000  -0.00000
   scf:   29    -3998.869123    -3998.869123    -3998.869123  0.000001 -3.931081  0.000005
     spin moment: S , {S} =    0.00000   0.00000  -0.00000  -0.00000
   scf:   30    -3998.869123    -3998.869123    -3998.869123  0.000001 -3.931082  0.000002
     spin moment: S , {S} =    0.00000   0.00000   0.00000  -0.00000
   scf:   31    -3998.869123    -3998.869123    -3998.869123  0.000000 -3.931082  0.000002
     spin moment: S , {S} =    0.00000   0.00000   0.00000  -0.00000
   scf:   32    -3998.869123    -3998.869123    -3998.869123  0.000000 -3.931079  0.000001
     spin moment: S , {S} =    0.00000  -0.00000   0.00000  -0.00000
   scf:   33    -3998.869123    -3998.869123    -3998.869123  0.000000 -3.931079  0.000001
     spin moment: S , {S} =    0.00000  -0.00000   0.00000  -0.00000

SCF Convergence by DM+H criterion
max |DM_out - DM_in|         :     0.0000001421
max |H_out - H_in|      (eV) :     0.0000008291
SCF cycle converged after 33 iterations

Using DM_out to compute the final energy and forces
No. of atoms with KB's overlaping orbs in proc 0. Max # of overlaps:      21     157

siesta: E_KS(eV) =            -3998.8691

siesta: E_KS - E_eggbox =     -3998.8691
     spin moment: S , {S} =    0.00000  -0.00000   0.00000  -0.00000

siesta: Atomic forces (eV/Ang):
     1    0.307599    0.026224   -0.000000
     2   -0.022496    0.017596    0.000000
     3   -0.025431   -0.007286   -0.000000
     4    0.248140   -0.143402   -0.000000
     5    0.001813   -0.038327    0.000000
     6   -0.164045    0.016739    0.000000
     7    0.910987    0.007176   -0.000002
     8   -0.628509    1.363671    0.000003
     9    0.197755   -0.886422   -0.000007
    10   -0.134898    0.123583    0.000002
    11   -0.154000   -0.323523    0.000002
    12   -0.254798    0.039706    0.000000
    13   -0.115704   -0.076160    0.000000
    14    0.032306   -0.106126   -0.000000
    15    0.092854    0.094961    0.000000
    16   -0.113214   -0.037031   -0.000945
    17    0.036504   -0.082736   -0.000800
    18   -0.140937    0.032548    0.005243
    19    0.038738   -0.083249   -0.001455
    20    0.109570    0.072157   -0.000982
    21    0.030704   -0.022145   -0.006757
    22    0.036212    0.007476    0.101312
    23    0.027172    0.029884   -0.016796
    24    0.031555    0.029587   -0.080299
    25   -0.583748   -0.363959    0.001007
    26    1.945742   -4.086979    0.000505
    27    0.326272   -0.455617   -0.000550
    28   -0.117356    0.604223   -0.000075
    29    0.125106    0.154377   -0.000218
    30    1.274263   -2.601061    0.000261
----------------------------------------
   Tot    3.318155   -6.694114   -0.000551
----------------------------------------
   Max    4.086979
   Res    0.619776    sqrt( Sum f_i^2 / 3N )
----------------------------------------
   Max    4.086979    constrained

Stress tensor Voigt[x,y,z,yz,xz,xy] (kbar):        0.32        0.90       -0.06       -0.02        0.00        0.29
(Free)E + p*V (eV/cell)    -4000.0959
Target enthalpy (eV/cell)    -3998.8691

siesta: Stress tensor (static) (eV/Ang**3):
         0.000198    0.000180    0.000001
         0.000180    0.000562   -0.000011
         0.000001   -0.000011   -0.000035

siesta: Pressure (static):         -0.38709785  kBar

siesta: Stress tensor (total) (eV/Ang**3):
         0.000198    0.000180    0.000001
         0.000180    0.000562   -0.000011
         0.000001   -0.000011   -0.000035

siesta: Pressure (total):         -0.38709785  kBar

siesta: Temp_ion =       0.000 K

siesta: Eigenvalues (eV):
ik =     1
  -22.9113  -22.9113  -22.4334  -22.4334  -21.7855  -21.7855  -21.3243  -21.3243  -21.1415  -21.1415
  -20.9370  -20.9370  -19.5126  -19.5126  -19.3567  -19.3567  -18.7286  -18.7286  -15.0739  -15.0739
  -14.1504  -14.1504  -13.7523  -13.7523  -13.6157  -13.6157  -13.1316  -13.1316  -13.0087  -13.0087
  -12.6213  -12.6213  -12.1743  -12.1743  -11.9572  -11.9572  -11.6865  -11.6865  -11.5324  -11.5324
  -11.0611  -11.0611  -10.6709  -10.6709  -10.3193  -10.3193   -9.6090   -9.6090   -9.3516   -9.3516
   -9.2603   -9.2603   -9.1515   -9.1515   -9.0745   -9.0745   -8.9167   -8.9167   -8.6531   -8.6531
   -8.4447   -8.4447   -8.3513   -8.3513   -8.2508   -8.2508   -8.0607   -8.0607   -8.0246   -8.0246
   -7.8196   -7.8196   -7.4773   -7.4773   -7.4202   -7.4202   -7.3351   -7.3351   -6.9222   -6.9222
   -6.9032   -6.9032   -6.7963   -6.7963   -6.5143   -6.5143   -6.3881   -6.3881   -6.2984   -6.2984
   -5.9075   -5.9075   -5.7604   -5.7604   -5.6642   -5.6642   -4.3201   -4.3201   -3.5421   -3.5421
   -2.7459   -2.7459   -2.2928   -2.2928   -2.2648   -2.2648   -2.1783   -2.1783   -2.0678   -2.0678
   -2.0279   -2.0279   -1.8238   -1.8238   -1.6936   -1.6936   -1.6811   -1.6811   -1.5169   -1.5169
   -1.2031   -1.2031   -0.6562   -0.6562   -0.4200   -0.4200   -0.3217   -0.3217   -0.2161   -0.2161
   -0.0504   -0.0504    0.0113    0.0113    0.2011    0.2011    0.4469    0.4469    0.4718    0.4718
    0.5617    0.5617    0.6891    0.6891    1.0462    1.0462    1.1754    1.1754    1.3190    1.3190
    1.4057    1.4057    1.5175    1.5175    1.8172    1.8172    1.9089    1.9089    2.0958    2.0958
    2.3529    2.3529    2.5706    2.5706    2.7304    2.7304    2.7584    2.7584    2.8824    2.8824
    2.9659    2.9659    2.9700    2.9700    3.2116    3.2116    3.2471    3.2471    3.2917    3.2917
    3.5756    3.5756    3.8527    3.8527    4.0774    4.0774    4.1303    4.1303    4.1842    4.1842
    4.3128    4.3128    4.5907    4.5907    4.7038    4.7038    4.7485    4.7485    4.9794    4.9794
    5.0274    5.0274    5.1548    5.1548    5.5198    5.5198    5.6559    5.6559    5.6735    5.6735
    5.7741    5.7741    6.0038    6.0038    6.0607    6.0607    6.2177    6.2177    6.2364    6.2364
    6.5402    6.5402    6.6271    6.6271    6.7693    6.7693    7.0261    7.0261    7.1387    7.1387
    7.1438    7.1438    7.3899    7.3899    7.5680    7.5680    7.7945    7.7945    7.8483    7.8483
    8.0388    8.0388    8.1015    8.1015    8.2946    8.2946    8.3312    8.3312    8.6322    8.6322
    8.8170    8.8170    8.9608    8.9608    8.9753    8.9753    9.1941    9.1941    9.5474    9.5474
    9.5998    9.5998    9.7578    9.7578    9.7752    9.7752    9.8411    9.8411    9.9811    9.9811
   10.1185   10.1185   10.3385   10.3385   10.6608   10.6608   10.8752   10.8752   10.9492   10.9492
   11.2179   11.2179   11.3843   11.3843   11.5925   11.5925   11.6129   11.6129   11.6677   11.6677
   11.8914   11.8914   12.2618   12.2618   12.3305   12.3305   12.4085   12.4085   12.5375   12.5375
   12.8921   12.8921   12.9076   12.9076   12.9998   12.9998   13.2345   13.2345   13.2524   13.2524
   13.4770   13.4770   13.6714   13.6714   14.4644   14.4644   14.6300   14.6300   14.7314   14.7314
   14.7448   14.7448   14.8540   14.8540   15.1181   15.1181   16.0601   16.0601   16.5251   16.5251
   16.6913   16.6913   16.8130   16.8130   16.9828   16.9828   17.1317   17.1317   17.4225   17.4225
   18.1574   18.1574   18.2026   18.2026   18.4838   18.4838   18.7062   18.7062   18.7445   18.7445
   18.7621   18.7621   19.4986   19.4986   19.8064   19.8064   19.9695   19.9695   20.2345   20.2345
   20.6194   20.6194   20.9953   20.9953   21.2121   21.2121   21.6653   21.6653   22.1510   22.1510
   22.2557   22.2557   22.8292   22.8292   22.9731   22.9731   23.0807   23.0807   23.8064   23.8064
   24.5453   24.5453   24.7748   24.7748   24.8242   24.8242   25.7173   25.7173   25.9032   25.9032
   26.0146   26.0146   26.4907   26.4907   26.5360   26.5360   27.6914   27.6914   27.9573   27.9573
   28.3345   28.3345   28.6840   28.6840   29.3949   29.3949   30.0232   30.0232   30.4672   30.4672
   30.7370   30.7370   30.7397   30.7397   30.9950   30.9950   31.2886   31.2886   31.6149   31.6149
   31.7928   31.7928   31.9516   31.9516   32.0244   32.0244   33.3220   33.3220   33.3436   33.3436
   33.7996   33.7996   34.0050   34.0050   34.3161   34.3161   34.6560   34.6560   35.0293   35.0293
   35.9187   35.9187   35.9930   35.9930   36.4692   36.4692   37.0827   37.0827   37.2889   37.2889
   37.6454   37.6454   38.0833   38.0833   38.3923   38.3923   38.4423   38.4423   38.5846   38.5846
   39.0567   39.0567   40.1715   40.1715   40.4843   40.4843   40.7454   40.7454   41.4498   41.4498
   41.5237   41.5237   42.0120   42.0120   42.5606   42.5606   43.3779   43.3779   43.6772   43.6772
   43.9981   43.9981   44.4485   44.4485   44.6964   44.6964   45.0861   45.0861   45.2351   45.2351
   45.5978   45.5978   45.9783   45.9783   46.4492   46.4492   46.4902   46.4902   47.0275   47.0275
   47.1208   47.1208   47.7877   47.7877   48.5355   48.5355   48.9251   48.9251   49.3474   49.3474
   50.0160   50.0160   50.0871   50.0871   50.2995   50.2995   50.3299   50.3299   50.4657   50.4657
   51.6801   51.6801   52.6358   52.6358   52.9696   52.9696   53.8992   53.8992   54.5260   54.5260
   54.6236   54.6236   54.8599   54.8599   55.7332   55.7332   56.4003   56.4003   56.4671   56.4671
   57.4193   57.4193   57.9537   57.9537   58.0479   58.0479   59.1895   59.1895   59.7191   59.7191
   60.6678   60.6678   61.3230   61.3230   61.7244   61.7244   62.8912   62.8912   63.3856   63.3856
   65.2680   65.2680   65.4470   65.4470   66.9916   66.9916   67.3325   67.3325   68.3595   68.3595
   68.5355   68.5355   70.6043   70.6043   71.9163   71.9163   77.4595   77.4595   88.6432   88.6432
   92.2492   92.2492   93.0243   93.0243   95.0406   95.0406   96.6525   96.6525  100.1050  100.1050
  101.2907  101.2907  102.5290  102.5290  114.6763  114.6763  118.6610  118.6610  123.2363  123.2363
  132.7219  132.7219  139.0013  139.0013
siesta: Fermi energy =      -3.931079 eV

siesta: Program's energy decomposition (eV):
siesta: Ebs     =     -1119.124131
siesta: Eions   =      3553.971015
siesta: Ena     =       374.982733
siesta: Ekin    =      2743.054655
siesta: Enl     =     -2522.816394
siesta: Eso     =        -0.004663
siesta: Edftu   =         0.000000
siesta: DEna    =        36.899758
siesta: DUscf   =        13.847720
siesta: DUext   =         0.000000
siesta: Exc     =     -1090.861918
siesta: eta*DQ  =         0.000000
siesta: Emadel  =         0.000000
siesta: Emeta   =         0.000000
siesta: Emolmec =         0.000000
siesta: Ekinion =         0.000000
siesta: Eharris =     -3998.869123
siesta: Etot    =     -3998.869123
siesta: FreeEng =     -3998.869123

siesta: Final energy (eV):
siesta:  Band Struct. =   -1119.124131
siesta:       Kinetic =    2743.054655
siesta:       Hartree =    7609.847227
siesta:       Edftu   =       0.000000
siesta:       Eso     =      -0.004663
siesta:    Ext. field =       0.000000
siesta:   Exch.-corr. =   -1090.861918
siesta:  Ion-electron =  -17666.141504
siesta:       Ion-ion =    4405.237080
siesta:       Ekinion =       0.000000
siesta:         Total =   -3998.869123
siesta:         Fermi =      -3.931079

siesta: Atomic forces (eV/Ang):
siesta:      1    0.307599    0.026224   -0.000000
siesta:      2   -0.022496    0.017596    0.000000
siesta:      3   -0.025431   -0.007286   -0.000000
siesta:      4    0.248140   -0.143402   -0.000000
siesta:      5    0.001813   -0.038327    0.000000
siesta:      6   -0.164045    0.016739    0.000000
siesta:      7    0.910987    0.007176   -0.000002
siesta:      8   -0.628509    1.363671    0.000003
siesta:      9    0.197755   -0.886422   -0.000007
siesta:     10   -0.134898    0.123583    0.000002
siesta:     11   -0.154000   -0.323523    0.000002
siesta:     12   -0.254798    0.039706    0.000000
siesta:     13   -0.115704   -0.076160    0.000000
siesta:     14    0.032306   -0.106126   -0.000000
siesta:     15    0.092854    0.094961    0.000000
siesta:     16   -0.113214   -0.037031   -0.000945
siesta:     17    0.036504   -0.082736   -0.000800
siesta:     18   -0.140937    0.032548    0.005243
siesta:     19    0.038738   -0.083249   -0.001455
siesta:     20    0.109570    0.072157   -0.000982
siesta:     21    0.030704   -0.022145   -0.006757
siesta:     22    0.036212    0.007476    0.101312
siesta:     23    0.027172    0.029884   -0.016796
siesta:     24    0.031555    0.029587   -0.080299
siesta:     25   -0.583748   -0.363959    0.001007
siesta:     26    1.945742   -4.086979    0.000505
siesta:     27    0.326272   -0.455617   -0.000550
siesta:     28   -0.117356    0.604223   -0.000075
siesta:     29    0.125106    0.154377   -0.000218
siesta:     30    1.274263   -2.601061    0.000261
siesta: ----------------------------------------
siesta:    Tot    3.318155   -6.694114   -0.000551

siesta: Stress tensor (static) (eV/Ang**3):
siesta:     0.000198    0.000180    0.000001
siesta:     0.000180    0.000562   -0.000011
siesta:     0.000001   -0.000011   -0.000035

siesta: Cell volume =       5077.655674 Ang**3

siesta: Pressure (static):
siesta:                Solid            Molecule  Units
siesta:          -0.00000263          0.00001091  Ry/Bohr**3
siesta:          -0.00024160          0.00100199  eV/Ang**3
siesta:          -0.38709785          1.60538396  kBar
(Free)E+ p_basis*V_orbitals  =       -3977.741038
(Free)Eharris+ p_basis*V_orbitals  =       -3977.741038
     spin moment: S , {S} =    0.00000  -0.00000   0.00000  -0.00000

siesta: Electric dipole (a.u.)  =   -1.268843    1.727288   -0.001753
siesta: Electric dipole (Debye) =   -3.225081    4.390332   -0.004456

cite: Please see "AT.bib" for an exhaustive BiBTeX file.
cite: Please clearly indicate Siesta version in published work: v4.1.5-1-g384057250
cite: This calculation has made use of the following articles
cite: which are encouraged to be cited in a published work.
        Primary SIESTA paper
          DOI: www.doi.org/10.1088/0953-8984/14/11/302
        Spin-orbit coupling (on-site approximation)
          DOI: www.doi.org/10.1088/0953-8984/19/19/489001


WARNING: alloc-realloc-dealloc name mismatch
         Name: atomlist isa
         Size:              -120. Bytes
         Node:     0
         Subsequent mismatches will not be reported
>> End of run:  16-OCT-2023  20:40:40
Job completed
