Siesta Version  : v4.1.5-1-g384057250
Architecture    : gcc
Compiler version: GNU Fortran (Ubuntu 11.3.0-1ubuntu1~22.04) 11.3.0
Compiler flags  : mpifort -O2 -fPIC -ftree-vectorize -fallow-argument-mismatch
PP flags        : -DFC_HAVE_ABORT -DMPI -DSIESTA__FLOOK -DSIESTA__METIS -DSIESTA__MUMPS -DCDF -DNCDF -DNCDF_4 -DNCDF_PARALLEL -DSIESTA__MRRR -DSIESTA__ELPA
Libraries       : libncdf.a libfdict.a  -lflookall -ldl -lnetcdff -lnetcdf -lhdf5_hl -lhdf5 -lhdf5_fortran -lz -lscalapack-openmpi -lopenblas -lmetis -lzmumps -lcmumps -ldmumps -lmumps_common -lpord -lsmumps -lesmumps -lscotch -lscotcherr -fopenmp -lelpa
PARALLEL version
NetCDF support
NetCDF-4 support
NetCDF-4 MPI-IO support
METIS ordering support
Lua support

* Running on 4 nodes in parallel
>> Start of run:  22-MAY-2023  16:37:12

                           ***********************       
                           *  WELCOME TO SIESTA  *       
                           ***********************       

reinit: Reading from standard input
reinit: Dumped input in INPUT_TMP.85115
************************** Dump of input data file ****************************
SystemLabel      GC
NumberOfAtoms    29
NumberOfSpecies  4
%block ChemicalSpeciesLabel
    1    8  O
    2    7  N
    3   14  Si
    4    1  H
%endblock ChemicalSpeciesLabel
# Single point calculation
MD.TypeOfRun                CG
MD.Steps                    0
SCF.MustConverge            F # In case it does not. There can be 2 very close atoms
AtomicCoordinatesFormat NotScaledCartesianAng
%block AtomicCoordinatesAndAtomicSpecies
0.854927710    3.902811360    0.000000000       1
-3.151486600   0.823854130    0.000000000       2
1.928518680    1.174000900    0.000000000       2
0.979899500    -1.830275890   0.000000000       2
-2.159258930   -2.028004800   0.000000000       2
3.785319770    -1.112700660   0.000000000       2
-1.345933810   0.976250250    0.000000000       3
-0.599439880   -1.096077170   0.000000000       3
0.453182890    2.350510230    0.000000000       3
2.133302030    -0.576510800   0.000000000       3
-3.516065660   -0.842056510   0.000000000       3
2.824527830    1.754723110    0.000000000       4
-4.877551690   -1.469214660   0.000000000       4
3.994952020    -2.143204000   0.000000000       4
4.620903610    -0.483666060   0.000000000       4
-2.279085180   -3.081514090   0.000000000       4
4.403802126    4.716602072    0.000000000       3
6.272761616    5.976245702    0.000000000       3
5.813829236    1.974863852    0.000000000       3
7.881421956    4.481455072    0.000000000       3
4.463332076    3.031649612    0.000000000       2
2.773802926    5.346662302    0.000000000       2
7.457718106    2.765954262    0.000000000       2
6.553125316    7.446468222    0.000000000       4
9.376833336    4.700307612    0.000000000       4
2.529343936    6.365128252    0.000000000       4
1.947061746    4.689814172    0.000000000       4
5.873104996    0.392421822    0.000000000       1
8.229373696    2.038986902    0.000000000       4
%endblock AtomicCoordinatesAndAtomicSpecies
%include ../../../Defaults.fdf
************************** End of input data file *****************************

reinit: -----------------------------------------------------------------------
reinit: System Name: 
reinit: -----------------------------------------------------------------------
reinit: System Label: GC
reinit: -----------------------------------------------------------------------

initatom: Reading input for the pseudopotentials and atomic orbitals ----------
Species number:   1 Atomic number:    8 Label: O
Species number:   2 Atomic number:    7 Label: N
Species number:   3 Atomic number:   14 Label: Si
Species number:   4 Atomic number:    1 Label: H

Ground state valence configuration:   2s02  2p04
Reading pseudopotential information in formatted form from O.psf

Pseudopotential generated from a relativistic atomic calculation

Valence configuration for pseudopotential generation:
2s( 2.00) rc: 0.45
2p( 4.00) rc: 0.92
3d( 0.00) rc: 2.24
4f( 0.00) rc: 0.25
Ground state valence configuration:   2s02  2p03
Reading pseudopotential information in formatted form from N.psf

Pseudopotential generated from a relativistic atomic calculation

Valence configuration for pseudopotential generation:
2s( 2.00) rc: 0.94
2p( 3.00) rc: 0.59
3d( 0.00) rc: 3.46
4f( 0.00) rc: 2.47
Ground state valence configuration:   3s02  3p02
Reading pseudopotential information in formatted form from Si.psf

Pseudopotential generated from a relativistic atomic calculation

Valence configuration for pseudopotential generation:
3s( 2.00) rc: 1.67
3p( 2.00) rc: 2.04
3d( 0.00) rc: 2.89
4f( 0.00) rc: 2.49
Ground state valence configuration:   1s01
Reading pseudopotential information in formatted form from H.psf

Pseudopotential generated from a relativistic atomic calculation

Valence configuration for pseudopotential generation:
1s( 1.00) rc: 0.01
2p( 0.00) rc: 0.60
3d( 0.00) rc: 1.99
4f( 0.00) rc: 2.49
For O, standard SIESTA heuristics set lmxkb to 3
 (one more than the basis l, including polarization orbitals).
Use PS.lmax or PS.KBprojectors blocks to override.
For N, standard SIESTA heuristics set lmxkb to 3
 (one more than the basis l, including polarization orbitals).
Use PS.lmax or PS.KBprojectors blocks to override.
For Si, standard SIESTA heuristics set lmxkb to 3
 (one more than the basis l, including polarization orbitals).
Use PS.lmax or PS.KBprojectors blocks to override.
For H, standard SIESTA heuristics set lmxkb to 2
 (one more than the basis l, including polarization orbitals).
Use PS.lmax or PS.KBprojectors blocks to override.

<basis_specs>
===============================================================================
O                    Z=   8    Mass=  16.000        Charge= 0.17977+309
Lmxo=1 Lmxkb= 3    BasisType=split      Semic=F
L=0  Nsemic=0  Cnfigmx=2
          i=1  nzeta=2  polorb=0  (2s)
            splnorm:   0.28000    
               vcte:    0.0000    
               rinn:    0.0000    
               qcoe:    0.0000    
               qyuk:    0.0000    
               qwid:   0.10000E-01
                rcs:    0.0000      0.0000    
            lambdas:    1.0000      1.0000    
L=1  Nsemic=0  Cnfigmx=2
          i=1  nzeta=2  polorb=1  (2p)
            splnorm:   0.28000    
               vcte:    0.0000    
               rinn:    0.0000    
               qcoe:    0.0000    
               qyuk:    0.0000    
               qwid:   0.10000E-01
                rcs:    0.0000      0.0000    
            lambdas:    1.0000      1.0000    
-------------------------------------------------------------------------------
L=0  Nkbl=1  erefs: 0.17977+309
L=1  Nkbl=1  erefs: 0.17977+309
L=2  Nkbl=1  erefs: 0.17977+309
L=3  Nkbl=1  erefs: 0.17977+309
===============================================================================
</basis_specs>

atom: Called for O                     (Z =   8)

read_vps: Pseudopotential generation method:
read_vps: ATM4.2.7  Troullier-Martins                       
Valence charge for ps generation:    6.00000

xc_check: Exchange-correlation functional:
xc_check: GGA Perdew, Burke & Ernzerhof 1996
V l=0 = -2*Zval/r beyond r=  1.1000
V l=1 = -2*Zval/r beyond r=  1.1000
V l=2 = -2*Zval/r beyond r=  2.2154
V l=3 = -2*Zval/r beyond r=  1.1000
All V_l potentials equal beyond r=  2.2154
This should be close to max(r_c) in ps generation
All pots = -2*Zval/r beyond r=  2.2154

VLOCAL1: 99.0% of the norm of Vloc inside      8.845 Ry
VLOCAL1: 99.9% of the norm of Vloc inside     20.157 Ry
atom: Maximum radius for 4*pi*r*r*local-pseudopot. charge    2.67231
atom: Maximum radius for r*vlocal+2*Zval:    2.32897
GHOST: No ghost state for L =  0
GHOST: No ghost state for L =  1
GHOST: No ghost state for L =  2
GHOST: No ghost state for L =  3

KBgen: Kleinman-Bylander projectors: 
   l= 0   rc=  2.243238   el= -1.759686   Ekb=**********   kbcos= -0.171774
   l= 1   rc=  2.328968   el= -0.663873   Ekb=-14.506792   kbcos= -0.519897
   l= 2   rc=  2.573941   el=  0.002031   Ekb= -1.137373   kbcos= -0.019581
   l= 3   rc=  2.606321   el=  0.003153   Ekb= -1.013546   kbcos= -0.003122

KBgen: Total number of Kleinman-Bylander projectors:   16
atom: -------------------------------------------------------------------------

atom: SANKEY-TYPE ORBITALS:
atom: Selected multiple-zeta basis: split     

SPLIT: Orbitals with angular momentum L= 0

SPLIT: Basis orbitals for state 2s

SPLIT: PAO cut-off radius determined from an
SPLIT: energy shift=  0.002000 Ry

   izeta = 1
                 lambda =    1.000000
                     rc =    4.243912
                 energy =   -1.758270
                kinetic =    3.286084
    potential(screened) =   -5.044353
       potential(ionic) =  -12.921184

   izeta = 2
                 rmatch =    2.187845
              splitnorm =    0.280000
                 energy =   -0.885018
                kinetic =    8.134434
    potential(screened) =   -9.019452
       potential(ionic) =  -17.710645

SPLIT: Orbitals with angular momentum L= 1

SPLIT: Basis orbitals for state 2p

SPLIT: PAO cut-off radius determined from an
SPLIT: energy shift=  0.002000 Ry

   izeta = 1
                 lambda =    1.000000
                     rc =    5.314825
                 energy =   -0.661986
                kinetic =    4.917472
    potential(screened) =   -5.579458
       potential(ionic) =  -13.236259

   izeta = 2
                 rmatch =    2.160663
              splitnorm =    0.280000
                 energy =   -0.068760
                kinetic =    9.183374
    potential(screened) =   -9.252135
       potential(ionic) =  -18.274251

POLgen: Perturbative polarization orbital with L=  2

POLgen: Polarization orbital for state 2p

   izeta = 1
                     rc =    5.314825
                 energy =    1.970580
                kinetic =    3.886128
    potential(screened) =   -1.915547
       potential(ionic) =   -7.749584
atom: Total number of Sankey-type orbitals: 13

atm_pop: Valence configuration (for local Pseudopot. screening):
 2s( 2.00)                                                            
 2p( 4.00)                                                            
Vna: chval, zval:    6.00000   6.00000

Vna:  Cut-off radius for the neutral-atom potential:   5.314825

atom: _________________________________________________________________________

<basis_specs>
===============================================================================
N                    Z=   7    Mass=  14.010        Charge= 0.17977+309
Lmxo=1 Lmxkb= 3    BasisType=split      Semic=F
L=0  Nsemic=0  Cnfigmx=2
          i=1  nzeta=2  polorb=0  (2s)
            splnorm:   0.28000    
               vcte:    0.0000    
               rinn:    0.0000    
               qcoe:    0.0000    
               qyuk:    0.0000    
               qwid:   0.10000E-01
                rcs:    0.0000      0.0000    
            lambdas:    1.0000      1.0000    
L=1  Nsemic=0  Cnfigmx=2
          i=1  nzeta=2  polorb=1  (2p)
            splnorm:   0.28000    
               vcte:    0.0000    
               rinn:    0.0000    
               qcoe:    0.0000    
               qyuk:    0.0000    
               qwid:   0.10000E-01
                rcs:    0.0000      0.0000    
            lambdas:    1.0000      1.0000    
-------------------------------------------------------------------------------
L=0  Nkbl=1  erefs: 0.17977+309
L=1  Nkbl=1  erefs: 0.17977+309
L=2  Nkbl=1  erefs: 0.17977+309
L=3  Nkbl=1  erefs: 0.17977+309
===============================================================================
</basis_specs>

atom: Called for N                     (Z =   7)

read_vps: Pseudopotential generation method:
read_vps: ATM4.2.7  Troullier-Martins                       
Valence charge for ps generation:    5.00000

xc_check: Exchange-correlation functional:
xc_check: GGA Perdew, Burke & Ernzerhof 1996
V l=0 = -2*Zval/r beyond r=  1.2889
V l=1 = -2*Zval/r beyond r=  1.2889
V l=2 = -2*Zval/r beyond r=  3.4178
V l=3 = -2*Zval/r beyond r=  2.4084
All V_l potentials equal beyond r=  3.3753
This should be close to max(r_c) in ps generation
All pots = -2*Zval/r beyond r=  3.4178

VLOCAL1: 99.0% of the norm of Vloc inside      3.810 Ry
VLOCAL1: 99.9% of the norm of Vloc inside      8.683 Ry
atom: Maximum radius for 4*pi*r*r*local-pseudopot. charge    4.02088
atom: Maximum radius for r*vlocal+2*Zval:    3.54838
GHOST: No ghost state for L =  0
GHOST: No ghost state for L =  1
GHOST: No ghost state for L =  2
GHOST: No ghost state for L =  3

KBgen: Kleinman-Bylander projectors: 
   l= 0   rc=  3.417763   el= -1.365098   Ekb= -4.433130   kbcos= -0.707855
   l= 1   rc=  3.375302   el= -0.521201   Ekb=-13.264039   kbcos= -0.535594
   l= 2   rc=  3.872880   el=  0.001991   Ekb= -0.641094   kbcos= -0.062456
   l= 3   rc=  3.970931   el=  0.003093   Ekb= -0.474517   kbcos= -0.018236

KBgen: Total number of Kleinman-Bylander projectors:   16
atom: -------------------------------------------------------------------------

atom: SANKEY-TYPE ORBITALS:
atom: Selected multiple-zeta basis: split     

SPLIT: Orbitals with angular momentum L= 0

SPLIT: Basis orbitals for state 2s

SPLIT: PAO cut-off radius determined from an
SPLIT: energy shift=  0.002000 Ry

   izeta = 1
                 lambda =    1.000000
                     rc =    4.730425
                 energy =   -1.363399
                kinetic =    1.245246
    potential(screened) =   -2.608645
       potential(ionic) =   -8.121105

   izeta = 2
                 rmatch =    2.531849
              splitnorm =    0.280000
                 energy =   -0.959908
                kinetic =    2.409435
    potential(screened) =   -3.369343
       potential(ionic) =   -9.427975

SPLIT: Orbitals with angular momentum L= 1

SPLIT: Basis orbitals for state 2p

SPLIT: PAO cut-off radius determined from an
SPLIT: energy shift=  0.002000 Ry

   izeta = 1
                 lambda =    1.000000
                     rc =    5.924108
                 energy =   -0.519262
                kinetic =    3.672940
    potential(screened) =   -4.192202
       potential(ionic) =   -9.518354

   izeta = 2
                 rmatch =    2.531849
              splitnorm =    0.280000
                 energy =   -0.104258
                kinetic =    6.807538
    potential(screened) =   -6.911796
       potential(ionic) =  -13.149920

POLgen: Perturbative polarization orbital with L=  2

POLgen: Polarization orbital for state 2p

   izeta = 1
                     rc =    5.924108
                 energy =    1.427508
                kinetic =    2.872379
    potential(screened) =   -1.444871
       potential(ionic) =   -5.563644
atom: Total number of Sankey-type orbitals: 13

atm_pop: Valence configuration (for local Pseudopot. screening):
 2s( 2.00)                                                            
 2p( 3.00)                                                            
Vna: chval, zval:    5.00000   5.00000

Vna:  Cut-off radius for the neutral-atom potential:   5.924108

atom: _________________________________________________________________________

<basis_specs>
===============================================================================
Si                   Z=  14    Mass=  28.090        Charge= 0.17977+309
Lmxo=1 Lmxkb= 3    BasisType=split      Semic=F
L=0  Nsemic=0  Cnfigmx=3
          i=1  nzeta=2  polorb=0  (3s)
            splnorm:   0.28000    
               vcte:    0.0000    
               rinn:    0.0000    
               qcoe:    0.0000    
               qyuk:    0.0000    
               qwid:   0.10000E-01
                rcs:    0.0000      0.0000    
            lambdas:    1.0000      1.0000    
L=1  Nsemic=0  Cnfigmx=3
          i=1  nzeta=2  polorb=1  (3p)
            splnorm:   0.28000    
               vcte:    0.0000    
               rinn:    0.0000    
               qcoe:    0.0000    
               qyuk:    0.0000    
               qwid:   0.10000E-01
                rcs:    0.0000      0.0000    
            lambdas:    1.0000      1.0000    
-------------------------------------------------------------------------------
L=0  Nkbl=1  erefs: 0.17977+309
L=1  Nkbl=1  erefs: 0.17977+309
L=2  Nkbl=1  erefs: 0.17977+309
L=3  Nkbl=1  erefs: 0.17977+309
===============================================================================
</basis_specs>

atom: Called for Si                    (Z =  14)

read_vps: Pseudopotential generation method:
read_vps: ATM4.2.7  Troullier-Martins                       
Valence charge for ps generation:    4.00000

xc_check: Exchange-correlation functional:
xc_check: GGA Perdew, Burke & Ernzerhof 1996
V l=0 = -2*Zval/r beyond r=  2.7826
V l=1 = -2*Zval/r beyond r=  2.7826
V l=2 = -2*Zval/r beyond r=  2.9253
V l=3 = -2*Zval/r beyond r=  2.7826
All V_l potentials equal beyond r=  2.8530
This should be close to max(r_c) in ps generation
All pots = -2*Zval/r beyond r=  2.9253

VLOCAL1: 99.0% of the norm of Vloc inside      5.333 Ry
VLOCAL1: 99.9% of the norm of Vloc inside     12.154 Ry
atom: Maximum radius for 4*pi*r*r*local-pseudopot. charge    3.39869
atom: Maximum radius for r*vlocal+2*Zval:    2.96205
GHOST: No ghost state for L =  0
GHOST: No ghost state for L =  1
GHOST: No ghost state for L =  2
GHOST: No ghost state for L =  3

KBgen: Kleinman-Bylander projectors: 
   l= 0   rc=  3.075247   el= -0.794092   Ekb=  5.879390   kbcos=  0.167461
   l= 1   rc=  3.153101   el= -0.300068   Ekb=  2.642817   kbcos=  0.058301
   l= 2   rc=  3.273594   el=  0.001958   Ekb= -1.185135   kbcos= -0.104411
   l= 3   rc=  3.232927   el=  0.003046   Ekb= -0.497174   kbcos= -0.015889

KBgen: Total number of Kleinman-Bylander projectors:   16
atom: -------------------------------------------------------------------------

atom: SANKEY-TYPE ORBITALS:
atom: Selected multiple-zeta basis: split     

SPLIT: Orbitals with angular momentum L= 0

SPLIT: Basis orbitals for state 3s

SPLIT: PAO cut-off radius determined from an
SPLIT: energy shift=  0.002000 Ry

   izeta = 1
                 lambda =    1.000000
                     rc =    6.429618
                 energy =   -0.792283
                kinetic =    0.525293
    potential(screened) =   -1.317576
       potential(ionic) =   -3.744923

   izeta = 2
                 rmatch =    3.998416
              splitnorm =    0.280000
                 energy =   -0.583081
                kinetic =    1.069570
    potential(screened) =   -1.652651
       potential(ionic) =   -4.235185

SPLIT: Orbitals with angular momentum L= 1

SPLIT: Basis orbitals for state 3p

SPLIT: PAO cut-off radius determined from an
SPLIT: energy shift=  0.002000 Ry

   izeta = 1
                 lambda =    1.000000
                     rc =    8.464845
                 energy =   -0.298236
                kinetic =    0.785360
    potential(screened) =   -1.083596
       potential(ionic) =   -3.273779

   izeta = 2
                 rmatch =    4.587816
              splitnorm =    0.280000
                 energy =   -0.131871
                kinetic =    1.403687
    potential(screened) =   -1.535557
       potential(ionic) =   -4.015310

POLgen: Perturbative polarization orbital with L=  2

POLgen: Polarization orbital for state 3p

   izeta = 1
                     rc =    8.464845
                 energy =    0.321949
                kinetic =    1.055677
    potential(screened) =   -0.733728
       potential(ionic) =   -2.672950
atom: Total number of Sankey-type orbitals: 13

atm_pop: Valence configuration (for local Pseudopot. screening):
 3s( 2.00)                                                            
 3p( 2.00)                                                            
Vna: chval, zval:    4.00000   4.00000

Vna:  Cut-off radius for the neutral-atom potential:   8.464845

atom: _________________________________________________________________________

<basis_specs>
===============================================================================
H                    Z=   1    Mass=  1.0100        Charge= 0.17977+309
Lmxo=0 Lmxkb= 2    BasisType=split      Semic=F
L=0  Nsemic=0  Cnfigmx=1
          i=1  nzeta=2  polorb=1  (1s)
            splnorm:   0.62000    
               vcte:    0.0000    
               rinn:    0.0000    
               qcoe:    0.0000    
               qyuk:    0.0000    
               qwid:   0.10000E-01
                rcs:    0.0000      0.0000    
            lambdas:    1.0000      1.0000    
-------------------------------------------------------------------------------
L=0  Nkbl=1  erefs: 0.17977+309
L=1  Nkbl=1  erefs: 0.17977+309
L=2  Nkbl=1  erefs: 0.17977+309
===============================================================================
</basis_specs>

atom: Called for H                     (Z =   1)

read_vps: Pseudopotential generation method:
read_vps: ATM4.2.7  Troullier-Martins                       
Valence charge for ps generation:    1.00000

xc_check: Exchange-correlation functional:
xc_check: GGA Perdew, Burke & Ernzerhof 1996
V l=0 = -2*Zval/r beyond r=  0.0098
V l=1 = -2*Zval/r beyond r=  0.5817
V l=2 = -2*Zval/r beyond r=  1.9372
All V_l potentials equal beyond r=  1.9372
This should be close to max(r_c) in ps generation
All pots = -2*Zval/r beyond r=  1.9372

VLOCAL1: 99.0% of the norm of Vloc inside     11.567 Ry
VLOCAL1: 99.9% of the norm of Vloc inside     26.362 Ry
atom: Maximum radius for 4*pi*r*r*local-pseudopot. charge    2.25106
atom: Maximum radius for r*vlocal+2*Zval:    1.91306
GHOST: No ghost state for L =  0
GHOST: No ghost state for L =  1
GHOST: No ghost state for L =  2

KBgen: Kleinman-Bylander projectors: 
   l= 0   rc=  2.036604   el= -0.477180   Ekb= -6.081590   kbcos= -0.277285
   l= 1   rc=  2.195416   el=  0.001076   Ekb= -0.926943   kbcos= -0.034643
   l= 2   rc=  2.251056   el=  0.002010   Ekb= -0.130941   kbcos= -0.009788

KBgen: Total number of Kleinman-Bylander projectors:    9
atom: -------------------------------------------------------------------------

atom: SANKEY-TYPE ORBITALS:
atom: Selected multiple-zeta basis: split     

SPLIT: Orbitals with angular momentum L= 0

SPLIT: Basis orbitals for state 1s

SPLIT: PAO cut-off radius determined from an
SPLIT: energy shift=  0.002000 Ry

   izeta = 1
                 lambda =    1.000000
                     rc =    6.518340
                 energy =   -0.475305
                kinetic =    0.912139
    potential(screened) =   -1.387444
       potential(ionic) =   -1.907295

   izeta = 2
                 rmatch =    2.141150
              splitnorm =    0.620000
                 energy =    0.566467
                kinetic =    3.772856
    potential(screened) =   -3.206389
       potential(ionic) =   -3.759093

POLgen: Perturbative polarization orbital with L=  1

POLgen: Polarization orbital for state 1s

   izeta = 1
                     rc =    6.518340
                 energy =    0.533861
                kinetic =    1.121086
    potential(screened) =   -0.587225
       potential(ionic) =   -1.053027
atom: Total number of Sankey-type orbitals:  5

atm_pop: Valence configuration (for local Pseudopot. screening):
 1s( 1.00)                                                            
Vna: chval, zval:    1.00000   1.00000

Vna:  Cut-off radius for the neutral-atom potential:   6.518340

atom: _________________________________________________________________________

prinput: Basis input ----------------------------------------------------------

PAO.BasisType split     

%block ChemicalSpeciesLabel
    1    8 O                       # Species index, atomic number, species label
    2    7 N                       # Species index, atomic number, species label
    3   14 Si                      # Species index, atomic number, species label
    4    1 H                       # Species index, atomic number, species label
%endblock ChemicalSpeciesLabel

%block PAO.Basis                 # Define Basis set
O                     2                    # Species label, number of l-shells
 n=2   0   2                         # n, l, Nzeta 
   4.244      2.188   
   1.000      1.000   
 n=2   1   2 P   1                   # n, l, Nzeta, Polarization, NzetaPol
   5.315      2.161   
   1.000      1.000   
N                     2                    # Species label, number of l-shells
 n=2   0   2                         # n, l, Nzeta 
   4.730      2.532   
   1.000      1.000   
 n=2   1   2 P   1                   # n, l, Nzeta, Polarization, NzetaPol
   5.924      2.532   
   1.000      1.000   
Si                    2                    # Species label, number of l-shells
 n=3   0   2                         # n, l, Nzeta 
   6.430      3.998   
   1.000      1.000   
 n=3   1   2 P   1                   # n, l, Nzeta, Polarization, NzetaPol
   8.465      4.588   
   1.000      1.000   
H                     1                    # Species label, number of l-shells
 n=1   0   2 P   1                   # n, l, Nzeta, Polarization, NzetaPol
   6.518      2.141   
   1.000      1.000   
%endblock PAO.Basis

prinput: ----------------------------------------------------------------------

Dumping basis to NetCDF file O.ion.nc
Dumping basis to NetCDF file N.ion.nc
Dumping basis to NetCDF file Si.ion.nc
Dumping basis to NetCDF file H.ion.nc
coor:   Atomic-coordinates input format  =     Cartesian coordinates
coor:                                          (in Angstroms)

siesta: Atomic coordinates (Bohr) and species
siesta:      1.61558   7.37525   0.00000  1        1
siesta:     -5.95545   1.55686   0.00000  2        2
siesta:      3.64437   2.21854   0.00000  2        3
siesta:      1.85174  -3.45872   0.00000  2        4
siesta:     -4.08041  -3.83238   0.00000  2        5
siesta:      7.15322  -2.10270   0.00000  2        6
siesta:     -2.54345   1.84485   0.00000  3        7
siesta:     -1.13278  -2.07129   0.00000  3        8
siesta:      0.85639   4.44182   0.00000  3        9
siesta:      4.03136  -1.08945   0.00000  3       10
siesta:     -6.64440  -1.59126   0.00000  3       11
siesta:      5.33759   3.31595   0.00000  4       12
siesta:     -9.21724  -2.77641   0.00000  4       13
siesta:      7.54937  -4.05007   0.00000  4       14
siesta:      8.73225  -0.91400   0.00000  4       15
siesta:     -4.30685  -5.82322   0.00000  4       16
siesta:      8.32198   8.91309   0.00000  3       17
siesta:     11.85381  11.29347   0.00000  3       18
siesta:     10.98655   3.73195   0.00000  3       19
siesta:     14.89373   8.46873   0.00000  3       20
siesta:      8.43448   5.72899   0.00000  2       21
siesta:      5.24173  10.10373   0.00000  2       22
siesta:     14.09305   5.22690   0.00000  2       23
siesta:     12.38362  14.07179   0.00000  4       24
siesta:     17.71965   8.88230   0.00000  4       25
siesta:      4.77977  12.02835   0.00000  4       26
siesta:      3.67941   8.86247   0.00000  4       27
siesta:     11.09856   0.74157   0.00000  1       28
siesta:     15.55127   3.85313   0.00000  4       29

siesta: Automatic unit cell vectors (Ang):
siesta:   23.268406    0.000000    0.000000
siesta:    0.000000   19.169363    0.000000
siesta:    0.000000    0.000000    9.854683

siesta: System type = molecule  

initatomlists: Number of atoms, orbitals, and projectors:     29   297   394

siesta: ******************** Simulation parameters ****************************
siesta:
siesta: The following are some of the parameters of the simulation.
siesta: A complete list of the parameters used, including default values,
siesta: can be found in file out.fdf
siesta:
redata: Spin configuration                          = spin-orbit
redata: Number of spin components                   = 8
redata: Time-Reversal Symmetry                      = F
redata: Spin spiral                                 = F
############################################################
This spin-orbit implementation uses a local approximation.
From 4.2 and onwards the full non-local approximation is implemented
You are strongly advised to use >=4.2 versions!
############################################################
redata: Long output                                 =   F
redata: Number of Atomic Species                    =        4
redata: Charge density info will appear in .RHO file
redata: Write Mulliken Pop.                         = Atomic and Orbital charges
redata: Matel table size (NRTAB)                    =     1024
redata: Mesh Cutoff                                 =   340.0000 Ry
redata: Net charge of the system                    =     0.0000 |e|
redata: Min. number of SCF Iter                     =        1
redata: Max. number of SCF Iter                     =      200
redata: SCF mix quantity                            = Hamiltonian
redata: Mix DM or H after convergence               =   F
redata: Recompute H after scf cycle                 =   F
redata: Mix DM in first SCF step                    =   T
redata: Write Pulay info on disk                    =   F
redata: New DM Occupancy tolerance                  = 0.000000000001
redata: No kicks to SCF
redata: DM Mixing Weight for Kicks                  =     0.5000
redata: Require Harris convergence for SCF          =   F
redata: Harris energy tolerance for SCF             =     0.000100 eV
redata: Require DM convergence for SCF              =   T
redata: DM tolerance for SCF                        =     0.000008
redata: Require EDM convergence for SCF             =   F
redata: EDM tolerance for SCF                       =     0.001000 eV
redata: Require H convergence for SCF               =   T
redata: Hamiltonian tolerance for SCF               =     0.000001 eV
redata: Require (free) Energy convergence for SCF   =   F
redata: (free) Energy tolerance for SCF             =     0.000100 eV
redata: Using Saved Data (generic)                  =   F
redata: Use continuation files for DM               =   F
redata: Neglect nonoverlap interactions             =   F
redata: Method of Calculation                       = Diagonalization
redata: Electronic Temperature                      =   299.9978 K
redata: Fix the spin of the system                  =   F
redata: Dynamics option                             = Single-point calculation
mix.SCF: Pulay mixing                            = Pulay
mix.SCF:    Variant                              = stable
mix.SCF:    History steps                        = 6
mix.SCF:    Linear mixing weight                 =     0.250000
mix.SCF:    Mixing weight                        =     0.250000
mix.SCF:    SVD condition                        = 0.1000E-07
mix.SCF:    Restart steps                        = 24
mix.SCF:    Restart save steps                   = 3
mix.SCF: Spin-component mixing                   all
redata: Save all siesta data in one NC              =   F
redata: ***********************************************************************

%block SCF.Mixers
  Pulay
%endblock SCF.Mixers

%block SCF.Mixer.Pulay
  # Mixing method
  method pulay
  variant stable

  # Mixing options
  weight 0.2500
  weight.linear 0.2500
  history 6
  restart 24
  restart.save 3
%endblock SCF.Mixer.Pulay

DM_history_depth set to one: no extrapolation allowed by default for geometry relaxation
Size of DM history Fstack: 1
Total number of electrons:    98.000000
Total ionic charge:    98.000000

* ProcessorY, Blocksize:    2  24


* Orbital distribution balance (max,min):    81    72


Time-reversal symmetry not used.

siesta: k-grid: Number of k-points =     1
siesta: k-grid: Cutoff (effective) =     4.927 Ang
siesta: k-grid: Supercell and displacements
siesta: k-grid:    1   0   0      0.000
siesta: k-grid:    0   1   0      0.000
siesta: k-grid:    0   0   1      0.000

diag: Algorithm                                     = ELPA-1stage
diag: Parallel over k                               =   F
diag: Use parallel 2D distribution                  =   T
diag: Parallel block-size                           = 24
diag: Parallel distribution                         =     2 x     2
diag: Used triangular part                          = Lower
diag: Absolute tolerance                            =  0.100E-15
diag: Orthogonalization factor                      =  0.100E-05
diag: Memory factor                                 =  1.0000


ts: **************************************************************
ts: Save H and S matrices                           =    F
ts: Save DM and EDM matrices                        =    F
ts: Only save the overlap matrix S                  =    F
ts: **************************************************************

************************ Begin: TS CHECKS AND WARNINGS ************************
************************ End: TS CHECKS AND WARNINGS **************************


                     ====================================
                        Single-point calculation
                     ====================================

outcoor: Atomic coordinates (Ang):                          
    0.85492771    3.90281136    0.00000000   1       1  O
   -3.15148660    0.82385413    0.00000000   2       2  N
    1.92851868    1.17400090    0.00000000   2       3  N
    0.97989950   -1.83027589    0.00000000   2       4  N
   -2.15925893   -2.02800480    0.00000000   2       5  N
    3.78531977   -1.11270066    0.00000000   2       6  N
   -1.34593381    0.97625025    0.00000000   3       7  Si
   -0.59943988   -1.09607717    0.00000000   3       8  Si
    0.45318289    2.35051023    0.00000000   3       9  Si
    2.13330203   -0.57651080    0.00000000   3      10  Si
   -3.51606566   -0.84205651    0.00000000   3      11  Si
    2.82452783    1.75472311    0.00000000   4      12  H
   -4.87755169   -1.46921466    0.00000000   4      13  H
    3.99495202   -2.14320400    0.00000000   4      14  H
    4.62090361   -0.48366606    0.00000000   4      15  H
   -2.27908518   -3.08151409    0.00000000   4      16  H
    4.40380213    4.71660207    0.00000000   3      17  Si
    6.27276162    5.97624570    0.00000000   3      18  Si
    5.81382924    1.97486385    0.00000000   3      19  Si
    7.88142196    4.48145507    0.00000000   3      20  Si
    4.46333208    3.03164961    0.00000000   2      21  N
    2.77380293    5.34666230    0.00000000   2      22  N
    7.45771811    2.76595426    0.00000000   2      23  N
    6.55312532    7.44646822    0.00000000   4      24  H
    9.37683334    4.70030761    0.00000000   4      25  H
    2.52934394    6.36512825    0.00000000   4      26  H
    1.94706175    4.68981417    0.00000000   4      27  H
    5.87310500    0.39242182    0.00000000   1      28  O
    8.22937370    2.03898690    0.00000000   4      29  H

outcell: Unit cell vectors (Ang):
       23.268406    0.000000    0.000000
        0.000000   19.169363    0.000000
        0.000000    0.000000    9.854683

outcell: Cell vector modules (Ang)   :   23.268406   19.169363    9.854683
outcell: Cell angles (23,13,12) (deg):     90.0000     90.0000     90.0000
outcell: Cell volume (Ang**3)        :   4395.5882
<dSpData1D:S at geom step 0
  <sparsity:sparsity for geom step 0
    nrows_g=297 nrows=81 sparsity=.2381 nnzs=21003, refcount: 8>
  <dData1D:(new from dSpData1D) n=21003, refcount: 1>
refcount: 1>
new_DM -- step:     1
Initializing Density Matrix...
DM filled with atomic data:
<dSpData2D:DM initialized from atoms
  <sparsity:sparsity for geom step 0
    nrows_g=297 nrows=81 sparsity=.2381 nnzs=21003, refcount: 9>
  <dData2D:DM n=21003 m=8, refcount: 1>
refcount: 1>
     spin moment: S , {S} =   56.00000   0.00000   0.00000  56.00000
No. of atoms with KB's overlaping orbs in proc 0. Max # of overlaps:      29     214

Initializing spin-orbit part of the Hamiltonian
  Adding spin-orbit effects for O 
  Adding spin-orbit effects for N 
  Adding spin-orbit effects for Si
  Adding spin-orbit effects for H 


New grid distribution:   1
           1       1:  135    1:   54    1:   30
           2       1:  135    1:   54   31:   60
           3       1:  135   55:  108    1:   30
           4       1:  135   55:  108   31:   60

InitMesh: MESH =   270 x   216 x   120 =     6998400
InitMesh: (bp) =   135 x   108 x    60 =      874800
InitMesh: Mesh cutoff (required, used) =   340.000   350.908 Ry
ExtMesh (bp) on 0 =   239 x   158 x   142 =     5362204
New grid distribution:   2
           1      31:  135    1:   25    1:   60
           2       1:   30    1:   22    1:   60
           3      31:  135   26:  108    1:   60
           4       1:   30   23:  108    1:   60
New grid distribution:   3
           1      44:  135    1:   33    1:   60
           2       1:   43    1:   37    1:   60
           3      44:  135   34:  108    1:   60
           4       1:   43   38:  108    1:   60
Setting up quadratic distribution...
ExtMesh (bp) on 0 =   209 x   129 x   172 =     4637292
PhiOnMesh: Number of (b)points on node 0 =               157500
PhiOnMesh: nlist on node 0 =              2683263

stepf: Fermi-Dirac step function

siesta: Program's energy decomposition (eV):
siesta: Ebs     =      -601.552289
siesta: Eions   =      3585.165840
siesta: Ena     =       384.862176
siesta: Ekin    =      3376.952264
siesta: Enl     =     -3309.281798
siesta: Eso     =        -0.003427
siesta: Edftu   =         0.000000
siesta: DEna    =       156.547382
siesta: DUscf   =        79.571174
siesta: DUext   =         0.000000
siesta: Exc     =     -1206.471630
siesta: eta*DQ  =         0.000000
siesta: Emadel  =         0.000000
siesta: Emeta   =         0.000000
siesta: Emolmec =         0.000000
siesta: Ekinion =         0.000000
siesta: Eharris =     -4022.635794
siesta: Etot    =     -4102.989699
siesta: FreeEng =     -4102.991226

        iscf     Eharris(eV)        E_KS(eV)     FreeEng(eV)     dDmax    Ef(eV) dHmax(eV)
   scf:    1    -4022.635794    -4102.989699    -4102.991226  0.951276 -4.892736 20.221911
     spin moment: S , {S} =    2.00789   0.00000  -0.00000   2.00789
timer: Routine,Calls,Time,% = IterSCF        1      11.971  15.99
   scf:    2    -4151.310267    -4138.475307    -4138.481110  0.473451 -4.189668 11.297095
     spin moment: S , {S} =    1.95532  -0.00000  -0.00000   1.95532
   scf:    3    -4114.315883    -4136.199375    -4136.231414  0.438313 -4.265772 10.887316
     spin moment: S , {S} =    2.00441   0.00000   0.00000   2.00441
   scf:    4    -4150.659268    -4146.100397    -4146.100399  0.261510 -3.911814  5.844626
     spin moment: S , {S} =    0.00011   0.00000  -0.00000   0.00011
   scf:    5    -4147.322388    -4146.811646    -4146.811646  0.037624 -3.725725  4.368065
     spin moment: S , {S} =    0.00006   0.00000   0.00000   0.00006
   scf:    6    -4147.633546    -4147.226183    -4147.226183  0.027829 -3.648837  2.131983
     spin moment: S , {S} =    0.00003  -0.00000  -0.00000   0.00003
   scf:    7    -4147.589971    -4147.411376    -4147.411376  0.021716 -3.684736  0.814099
     spin moment: S , {S} =    0.00001  -0.00000   0.00000   0.00001
   scf:    8    -4147.529787    -4147.469122    -4147.469122  0.012813 -3.810193  0.409254
     spin moment: S , {S} =    0.00000  -0.00000  -0.00000   0.00000
   scf:    9    -4147.505565    -4147.486895    -4147.486895  0.007022 -3.745854  0.265374
     spin moment: S , {S} =    0.00000  -0.00000  -0.00000   0.00000
   scf:   10    -4147.529114    -4147.505554    -4147.505554  0.013585 -3.790477  0.139582
     spin moment: S , {S} =    0.00000  -0.00000  -0.00000  -0.00000
   scf:   11    -4147.511106    -4147.508115    -4147.508115  0.005659 -3.793649  0.059460
     spin moment: S , {S} =    0.00000   0.00000   0.00000   0.00000
   scf:   12    -4147.509555    -4147.508807    -4147.508807  0.002689 -3.789115  0.035969
     spin moment: S , {S} =    0.00000   0.00000   0.00000   0.00000
   scf:   13    -4147.509812    -4147.509275    -4147.509275  0.002501 -3.786760  0.031142
     spin moment: S , {S} =    0.00000   0.00000   0.00000   0.00000
   scf:   14    -4147.510308    -4147.509714    -4147.509714  0.003830 -3.784314  0.017460
     spin moment: S , {S} =    0.00000   0.00000   0.00000   0.00000
   scf:   15    -4147.510052    -4147.509852    -4147.509852  0.002535 -3.783396  0.009805
     spin moment: S , {S} =    0.00000   0.00000  -0.00000   0.00000
   scf:   16    -4147.509928    -4147.509883    -4147.509883  0.001261 -3.783686  0.005668
     spin moment: S , {S} =    0.00000   0.00000  -0.00000   0.00000
   scf:   17    -4147.509901    -4147.509891    -4147.509891  0.000568 -3.783977  0.003274
     spin moment: S , {S} =    0.00000   0.00000  -0.00000  -0.00000
   scf:   18    -4147.509901    -4147.509895    -4147.509895  0.000411 -3.784050  0.001500
     spin moment: S , {S} =    0.00000   0.00000  -0.00000  -0.00000
   scf:   19    -4147.509899    -4147.509897    -4147.509897  0.000227 -3.784004  0.000757
     spin moment: S , {S} =    0.00000   0.00000   0.00000  -0.00000
   scf:   20    -4147.509898    -4147.509897    -4147.509897  0.000096 -3.783917  0.000422
     spin moment: S , {S} =    0.00000   0.00000   0.00000  -0.00000
   scf:   21    -4147.509898    -4147.509897    -4147.509897  0.000112 -3.783857  0.000180
     spin moment: S , {S} =    0.00000   0.00000   0.00000  -0.00000
   scf:   22    -4147.509897    -4147.509897    -4147.509897  0.000009 -3.783846  0.000094
     spin moment: S , {S} =    0.00000   0.00000   0.00000  -0.00000
   scf:   23    -4147.509897    -4147.509897    -4147.509897  0.000007 -3.783840  0.000049
     spin moment: S , {S} =    0.00000   0.00000   0.00000  -0.00000
   scf:   24    -4147.509897    -4147.509897    -4147.509897  0.000004 -3.783836  0.000025
     spin moment: S , {S} =    0.00000   0.00000   0.00000  -0.00000
mix: Pulay -- resetting history
   scf:   25    -4147.509897    -4147.509897    -4147.509897  0.000002 -3.783835  0.000018
     spin moment: S , {S} =    0.00000   0.00000   0.00000  -0.00000
   scf:   26    -4147.509897    -4147.509897    -4147.509897  0.000001 -3.783835  0.000009
     spin moment: S , {S} =    0.00000   0.00000  -0.00000  -0.00000
   scf:   27    -4147.509897    -4147.509897    -4147.509897  0.000001 -3.783836  0.000005
     spin moment: S , {S} =    0.00000   0.00000  -0.00000  -0.00000
   scf:   28    -4147.509897    -4147.509897    -4147.509897  0.000000 -3.783836  0.000002
     spin moment: S , {S} =    0.00000   0.00000  -0.00000  -0.00000
   scf:   29    -4147.509897    -4147.509897    -4147.509897  0.000000 -3.783836  0.000002
     spin moment: S , {S} =    0.00000   0.00000  -0.00000  -0.00000
   scf:   30    -4147.509897    -4147.509897    -4147.509897  0.000000 -3.783836  0.000001
     spin moment: S , {S} =    0.00000   0.00000  -0.00000  -0.00000
   scf:   31    -4147.509897    -4147.509897    -4147.509897  0.000000 -3.783836  0.000001
     spin moment: S , {S} =    0.00000   0.00000   0.00000  -0.00000

SCF Convergence by DM+H criterion
max |DM_out - DM_in|         :     0.0000001125
max |H_out - H_in|      (eV) :     0.0000008005
SCF cycle converged after 31 iterations

Using DM_out to compute the final energy and forces
No. of atoms with KB's overlaping orbs in proc 0. Max # of overlaps:      29     214

siesta: E_KS(eV) =            -4147.5099

siesta: E_KS - E_eggbox =     -4147.5099
     spin moment: S , {S} =    0.00000   0.00000   0.00000  -0.00000

siesta: Atomic forces (eV/Ang):
     1   -0.456420   -0.701479   -0.000000
     2   -0.049943   -0.010558   -0.000000
     3   -0.916661    0.351608    0.000000
     4   -0.823037   -0.061753   -0.000000
     5   -0.086811    0.131838    0.000000
     6   -2.038634   -0.862021   -0.000000
     7   -0.064201    0.283960   -0.000000
     8    0.477813   -0.274038    0.000000
     9    0.208969   -1.455064    0.000000
    10    1.177334   -0.277828   -0.000000
    11   -0.004946    0.047294   -0.000000
    12    0.400358    0.251755    0.000000
    13   -0.000345    0.092467   -0.000000
    14   -0.235330   -0.043899    0.000000
    15    1.143839    0.791422   -0.000000
    16    0.078649    0.126882    0.000000
    17   -1.216803    1.242493    0.000000
    18    0.260585   -0.225981   -0.000000
    19    0.303995    1.357878   -0.000000
    20    0.004200    0.460153    0.000000
    21    0.394759   -1.154149   -0.000000
    22    3.368917    1.610494   -0.000000
    23   -0.291127   -0.590441   -0.000000
    24   -0.113071    0.216479   -0.000000
    25    0.033758   -0.050535    0.000000
    26    0.165017    0.339573    0.000000
    27   -1.169761   -0.979147    0.000000
    28   -2.293050   -1.736054    0.000000
    29    0.086928    0.063286    0.000000
----------------------------------------
   Tot   -1.655017   -1.055365   -0.000000
----------------------------------------
   Max    3.368917
   Res    0.723224    sqrt( Sum f_i^2 / 3N )
----------------------------------------
   Max    3.368917    constrained

Stress tensor Voigt[x,y,z,yz,xz,xy] (kbar):       -1.70       -1.82       -0.11        0.00        0.00       -2.20
(Free)E + p*V (eV/cell)    -4144.1886
Target enthalpy (eV/cell)    -4147.5099

mulliken: Atomic and Orbital Populations:

Species: O                   

Atom      Orb        Charge      Spin       Svec
----------------------------------------------------------------
    1  1 2s         1.70136   0.00000      0.000   0.000   0.000
    1  2 2s         0.07251   0.00000     -0.000  -0.000   0.000
    1  3 2py        1.34502   0.00000      0.000  -0.000  -0.000
    1  4 2pz        1.62763   0.00000      0.000   0.000   0.000
    1  5 2px        1.61897   0.00000      0.000  -0.000  -0.000
    1  6 2py        0.09580   0.00000     -0.000  -0.000  -0.000
    1  7 2pz       -0.01610   0.00000     -0.000  -0.000   0.000
    1  8 2px        0.00688   0.00000     -0.000   0.000  -0.000
    1  9 3Pdxy      0.01114   0.00000      0.000   0.000  -0.000
    1 10 3Pdyz      0.00752   0.00000      0.000   0.000   0.000
    1 11 3Pdz2      0.00279   0.00000      0.000   0.000   0.000
    1 12 3Pdxz      0.00023   0.00000      0.000   0.000  -0.000
    1 13 3Pdx2-y2   0.00582   0.00000     -0.000  -0.000  -0.000
    1     Total     6.47957   0.00000      0.000  -0.000   0.000

   28  1 2s         1.72919   0.00000     -0.000  -0.000   0.000
   28  2 2s         0.06383   0.00000      0.000   0.000  -0.000
   28  3 2py        1.35720   0.00000      0.000   0.000  -0.000
   28  4 2pz        1.60387   0.00000     -0.000   0.000   0.000
   28  5 2px        1.65616   0.00000      0.000   0.000   0.000
   28  6 2py        0.08298   0.00000     -0.000  -0.000  -0.000
   28  7 2pz       -0.01364   0.00000      0.000  -0.000   0.000
   28  8 2px       -0.00282   0.00000     -0.000  -0.000   0.000
   28  9 3Pdxy      0.01037   0.00000      0.000  -0.000  -0.000
   28 10 3Pdyz      0.00899   0.00000      0.000   0.000  -0.000
   28 11 3Pdz2      0.00212   0.00000     -0.000  -0.000  -0.000
   28 12 3Pdxz      0.00011   0.00000      0.000  -0.000   0.000
   28 13 3Pdx2-y2   0.00719   0.00000      0.000  -0.000  -0.000
   28     Total     6.50556   0.00000      0.000   0.000   0.000

----------------------------------------------------------------
Total              12.98513   0.00000      0.000   0.000   0.000


Species: N                   

Atom      Orb        Charge      Spin       Svec
----------------------------------------------------------------
    2  1 2s         1.54685   0.00000      0.000  -0.000   0.000
    2  2 2s         0.08519   0.00000     -0.000  -0.000   0.000
    2  3 2py        1.03064   0.00000     -0.000  -0.000   0.000
    2  4 2pz        1.22444   0.00000     -0.000  -0.000   0.000
    2  5 2px        1.00891   0.00000      0.000  -0.000   0.000
    2  6 2py        0.19266   0.00000      0.000   0.000  -0.000
    2  7 2pz        0.05448   0.00000      0.000   0.000  -0.000
    2  8 2px        0.19070   0.00000     -0.000   0.000  -0.000
    2  9 3Pdxy      0.00838   0.00000     -0.000   0.000   0.000
    2 10 3Pdyz      0.01078   0.00000      0.000   0.000  -0.000
    2 11 3Pdz2      0.00190   0.00000     -0.000   0.000  -0.000
    2 12 3Pdxz      0.00749   0.00000      0.000   0.000  -0.000
    2 13 3Pdx2-y2   0.00893   0.00000     -0.000  -0.000   0.000
    2     Total     5.37135   0.00000      0.000  -0.000   0.000

    3  1 2s         1.39059   0.00000     -0.000   0.000  -0.000
    3  2 2s         0.12102   0.00000      0.000  -0.000   0.000
    3  3 2py        0.93072   0.00000      0.000   0.000  -0.000
    3  4 2pz        1.53018   0.00000     -0.000  -0.000  -0.000
    3  5 2px        1.08257   0.00000      0.000  -0.000  -0.000
    3  6 2py        0.25617   0.00000     -0.000  -0.000   0.000
    3  7 2pz        0.00698   0.00000      0.000   0.000   0.000
    3  8 2px        0.18071   0.00000     -0.000   0.000   0.000
    3  9 3Pdxy      0.00432   0.00000      0.000   0.000  -0.000
    3 10 3Pdyz      0.00394   0.00000      0.000   0.000   0.000
    3 11 3Pdz2      0.00051   0.00000     -0.000  -0.000  -0.000
    3 12 3Pdxz      0.00263   0.00000     -0.000  -0.000   0.000
    3 13 3Pdx2-y2   0.00265   0.00000     -0.000  -0.000  -0.000
    3     Total     5.51298   0.00000      0.000  -0.000  -0.000

    4  1 2s         1.47120   0.00000      0.000   0.000  -0.000
    4  2 2s         0.11709   0.00000     -0.000  -0.000  -0.000
    4  3 2py        1.10170   0.00000      0.000   0.000  -0.000
    4  4 2pz        1.28647   0.00000     -0.000  -0.000  -0.000
    4  5 2px        0.84016   0.00000      0.000  -0.000  -0.000
    4  6 2py        0.15765   0.00000     -0.000  -0.000  -0.000
    4  7 2pz        0.05342   0.00000      0.000   0.000  -0.000
    4  8 2px        0.28686   0.00000     -0.000   0.000   0.000
    4  9 3Pdxy      0.00855   0.00000      0.000  -0.000  -0.000
    4 10 3Pdyz      0.01078   0.00000      0.000   0.000   0.000
    4 11 3Pdz2      0.00134   0.00000      0.000   0.000  -0.000
    4 12 3Pdxz      0.00484   0.00000      0.000   0.000  -0.000
    4 13 3Pdx2-y2   0.00850   0.00000     -0.000   0.000   0.000
    4     Total     5.34857   0.00000      0.000  -0.000  -0.000

    5  1 2s         1.37304   0.00000     -0.000  -0.000   0.000
    5  2 2s         0.12927   0.00000      0.000   0.000  -0.000
    5  3 2py        1.02731   0.00000     -0.000  -0.000   0.000
    5  4 2pz        1.50139   0.00000     -0.000  -0.000   0.000
    5  5 2px        1.05870   0.00000      0.000  -0.000   0.000
    5  6 2py        0.20322   0.00000      0.000   0.000  -0.000
    5  7 2pz        0.01331   0.00000      0.000   0.000  -0.000
    5  8 2px        0.20319   0.00000     -0.000   0.000  -0.000
    5  9 3Pdxy      0.00365   0.00000     -0.000   0.000  -0.000
    5 10 3Pdyz      0.00253   0.00000      0.000  -0.000  -0.000
    5 11 3Pdz2      0.00139   0.00000     -0.000   0.000  -0.000
    5 12 3Pdxz      0.00652   0.00000     -0.000  -0.000  -0.000
    5 13 3Pdx2-y2   0.00576   0.00000      0.000  -0.000  -0.000
    5     Total     5.52928   0.00000      0.000  -0.000   0.000

    6  1 2s         1.26878   0.00000     -0.000   0.000  -0.000
    6  2 2s         0.17908   0.00000      0.000  -0.000   0.000
    6  3 2py        1.06208   0.00000      0.000   0.000   0.000
    6  4 2pz        1.51104   0.00000     -0.000  -0.000  -0.000
    6  5 2px        0.97733   0.00000     -0.000  -0.000  -0.000
    6  6 2py        0.20056   0.00000     -0.000   0.000   0.000
    6  7 2pz        0.03441   0.00000      0.000   0.000   0.000
    6  8 2px        0.25913   0.00000      0.000   0.000   0.000
    6  9 3Pdxy      0.00274   0.00000     -0.000  -0.000   0.000
    6 10 3Pdyz      0.00002   0.00000      0.000   0.000  -0.000
    6 11 3Pdz2      0.00161   0.00000     -0.000  -0.000   0.000
    6 12 3Pdxz      0.00358   0.00000      0.000  -0.000   0.000
    6 13 3Pdx2-y2   0.00352   0.00000      0.000  -0.000   0.000
    6     Total     5.50388   0.00000     -0.000   0.000  -0.000

   21  1 2s         1.40357   0.00000      0.000   0.000   0.000
   21  2 2s         0.13133   0.00000     -0.000  -0.000  -0.000
   21  3 2py        0.88806   0.00000      0.000  -0.000   0.000
   21  4 2pz        1.33302   0.00000      0.000  -0.000  -0.000
   21  5 2px        1.16943   0.00000      0.000   0.000   0.000
   21  6 2py        0.27643   0.00000     -0.000  -0.000  -0.000
   21  7 2pz        0.04098   0.00000     -0.000   0.000   0.000
   21  8 2px        0.15772   0.00000     -0.000  -0.000  -0.000
   21  9 3Pdxy      0.00666   0.00000      0.000  -0.000   0.000
   21 10 3Pdyz      0.00461   0.00000     -0.000   0.000  -0.000
   21 11 3Pdz2     -0.00011   0.00000      0.000   0.000  -0.000
   21 12 3Pdxz      0.00566   0.00000      0.000   0.000  -0.000
   21 13 3Pdx2-y2   0.00555   0.00000      0.000   0.000  -0.000
   21     Total     5.42292   0.00000      0.000   0.000   0.000

   22  1 2s         1.29911   0.00000      0.000  -0.000   0.000
   22  2 2s         0.16867   0.00000     -0.000  -0.000  -0.000
   22  3 2py        1.07140   0.00000     -0.000   0.000  -0.000
   22  4 2pz        1.46021   0.00000      0.000  -0.000  -0.000
   22  5 2px        1.01916   0.00000      0.000  -0.000   0.000
   22  6 2py        0.20139   0.00000     -0.000  -0.000   0.000
   22  7 2pz        0.03424   0.00000      0.000   0.000   0.000
   22  8 2px        0.23257   0.00000     -0.000   0.000  -0.000
   22  9 3Pdxy      0.00468   0.00000     -0.000  -0.000  -0.000
   22 10 3Pdyz      0.00000   0.00000     -0.000   0.000  -0.000
   22 11 3Pdz2      0.00248   0.00000     -0.000   0.000  -0.000
   22 12 3Pdxz      0.00397   0.00000      0.000  -0.000  -0.000
   22 13 3Pdx2-y2   0.00382   0.00000      0.000  -0.000  -0.000
   22     Total     5.50170   0.00000      0.000  -0.000   0.000

   23  1 2s         1.37089   0.00000     -0.000  -0.000   0.000
   23  2 2s         0.13061   0.00000      0.000   0.000  -0.000
   23  3 2py        0.99579   0.00000     -0.000  -0.000  -0.000
   23  4 2pz        1.53328   0.00000     -0.000   0.000   0.000
   23  5 2px        1.06048   0.00000      0.000  -0.000   0.000
   23  6 2py        0.22458   0.00000      0.000   0.000   0.000
   23  7 2pz        0.00467   0.00000      0.000   0.000  -0.000
   23  8 2px        0.19675   0.00000     -0.000   0.000   0.000
   23  9 3Pdxy      0.00537   0.00000      0.000  -0.000  -0.000
   23 10 3Pdyz      0.00462   0.00000     -0.000   0.000   0.000
   23 11 3Pdz2      0.00076   0.00000     -0.000  -0.000  -0.000
   23 12 3Pdxz      0.00227   0.00000      0.000   0.000  -0.000
   23 13 3Pdx2-y2   0.00126   0.00000     -0.000  -0.000  -0.000
   23     Total     5.53131   0.00000     -0.000   0.000  -0.000

----------------------------------------------------------------
Total              56.70712   0.00000      0.000  -0.000   0.000


Species: Si                  

Atom      Orb        Charge      Spin       Svec
----------------------------------------------------------------
    7  1 3s         0.68507   0.00000     -0.000   0.000  -0.000
    7  2 3s         0.36000   0.00000     -0.000  -0.000   0.000
    7  3 3py        0.44719   0.00000      0.000   0.000   0.000
    7  4 3pz        0.70639   0.00000     -0.000  -0.000   0.000
    7  5 3px        0.13355   0.00000      0.000   0.000  -0.000
    7  6 3py        0.28748   0.00000     -0.000   0.000  -0.000
    7  7 3pz        0.25984   0.00000      0.000   0.000  -0.000
    7  8 3px        0.42317   0.00000      0.000  -0.000  -0.000
    7  9 3Pdxy      0.24338   0.00000      0.000   0.000  -0.000
    7 10 3Pdyz      0.02982   0.00000     -0.000  -0.000  -0.000
    7 11 3Pdz2      0.01191   0.00000     -0.000  -0.000  -0.000
    7 12 3Pdxz      0.13981   0.00000     -0.000  -0.000   0.000
    7 13 3Pdx2-y2   0.11474   0.00000      0.000   0.000  -0.000
    7     Total     3.84235   0.00000     -0.000   0.000  -0.000

    8  1 3s         0.64650   0.00000     -0.000  -0.000  -0.000
    8  2 3s         0.37177   0.00000      0.000   0.000  -0.000
    8  3 3py        0.39276   0.00000      0.000   0.000  -0.000
    8  4 3pz        0.50020   0.00000     -0.000   0.000  -0.000
    8  5 3px       -0.02112   0.00000      0.000   0.000  -0.000
    8  6 3py        0.30103   0.00000     -0.000  -0.000   0.000
    8  7 3pz        0.20626   0.00000      0.000  -0.000  -0.000
    8  8 3px        0.51942   0.00000     -0.000  -0.000  -0.000
    8  9 3Pdxy      0.26286   0.00000     -0.000  -0.000  -0.000
    8 10 3Pdyz      0.10919   0.00000     -0.000  -0.000  -0.000
    8 11 3Pdz2      0.01263   0.00000     -0.000  -0.000  -0.000
    8 12 3Pdxz      0.15984   0.00000      0.000   0.000  -0.000
    8 13 3Pdx2-y2   0.19079   0.00000      0.000   0.000  -0.000
    8     Total     3.65214   0.00000     -0.000  -0.000  -0.000

    9  1 3s         0.62897   0.00000     -0.000   0.000   0.000
    9  2 3s         0.35784   0.00000      0.000  -0.000   0.000
    9  3 3py        0.12888   0.00000      0.000   0.000   0.000
    9  4 3pz        0.47163   0.00000      0.000   0.000   0.000
    9  5 3px        0.32930   0.00000     -0.000  -0.000   0.000
    9  6 3py        0.38768   0.00000     -0.000  -0.000   0.000
    9  7 3pz        0.18857   0.00000     -0.000  -0.000   0.000
    9  8 3px        0.28852   0.00000      0.000   0.000  -0.000
    9  9 3Pdxy      0.27232   0.00000     -0.000   0.000   0.000
    9 10 3Pdyz      0.18569   0.00000     -0.000   0.000   0.000
    9 11 3Pdz2      0.00927   0.00000      0.000   0.000   0.000
    9 12 3Pdxz      0.09859   0.00000      0.000   0.000   0.000
    9 13 3Pdx2-y2   0.16148   0.00000      0.000   0.000   0.000
    9     Total     3.50874   0.00000      0.000   0.000   0.000

   10  1 3s         0.49012   0.00000     -0.000   0.000   0.000
   10  2 3s         0.37700   0.00000      0.000  -0.000   0.000
   10  3 3py        0.23743   0.00000     -0.000  -0.000   0.000
   10  4 3pz        0.42385   0.00000     -0.000   0.000   0.000
   10  5 3px        0.10525   0.00000     -0.000  -0.000   0.000
   10  6 3py        0.33200   0.00000      0.000   0.000  -0.000
   10  7 3pz        0.21432   0.00000      0.000  -0.000   0.000
   10  8 3px        0.43461   0.00000      0.000  -0.000   0.000
   10  9 3Pdxy      0.17343   0.00000     -0.000  -0.000   0.000
   10 10 3Pdyz      0.14010   0.00000     -0.000  -0.000  -0.000
   10 11 3Pdz2      0.01058   0.00000     -0.000  -0.000   0.000
   10 12 3Pdxz      0.17850   0.00000      0.000  -0.000   0.000
   10 13 3Pdx2-y2   0.31929   0.00000      0.000  -0.000  -0.000
   10     Total     3.43648   0.00000     -0.000  -0.000   0.000

   11  1 3s         0.55963   0.00000     -0.000  -0.000  -0.000
   11  2 3s         0.38192   0.00000      0.000   0.000  -0.000
   11  3 3py        0.30660   0.00000      0.000  -0.000  -0.000
   11  4 3pz        0.53967   0.00000      0.000  -0.000  -0.000
   11  5 3px        0.14028   0.00000      0.000  -0.000  -0.000
   11  6 3py        0.30244   0.00000     -0.000   0.000  -0.000
   11  7 3pz        0.17700   0.00000      0.000   0.000  -0.000
   11  8 3px        0.43190   0.00000     -0.000   0.000  -0.000
   11  9 3Pdxy      0.24468   0.00000     -0.000  -0.000  -0.000
   11 10 3Pdyz      0.12544   0.00000      0.000  -0.000  -0.000
   11 11 3Pdz2      0.00941   0.00000     -0.000  -0.000   0.000
   11 12 3Pdxz      0.05290   0.00000     -0.000   0.000  -0.000
   11 13 3Pdx2-y2   0.18453   0.00000     -0.000   0.000  -0.000
   11     Total     3.45639   0.00000     -0.000  -0.000  -0.000

   17  1 3s         0.64861   0.00000      0.000  -0.000   0.000
   17  2 3s         0.35563   0.00000     -0.000   0.000  -0.000
   17  3 3py        0.23951   0.00000     -0.000   0.000  -0.000
   17  4 3pz        0.43575   0.00000      0.000   0.000  -0.000
   17  5 3px        0.22670   0.00000     -0.000  -0.000  -0.000
   17  6 3py        0.36237   0.00000      0.000  -0.000   0.000
   17  7 3pz        0.21140   0.00000     -0.000  -0.000  -0.000
   17  8 3px        0.39156   0.00000      0.000   0.000   0.000
   17  9 3Pdxy      0.28119   0.00000      0.000  -0.000   0.000
   17 10 3Pdyz      0.13369   0.00000     -0.000  -0.000  -0.000
   17 11 3Pdz2      0.00834   0.00000      0.000  -0.000  -0.000
   17 12 3Pdxz      0.15002   0.00000     -0.000   0.000  -0.000
   17 13 3Pdx2-y2   0.17925   0.00000     -0.000  -0.000  -0.000
   17     Total     3.62403   0.00000      0.000   0.000  -0.000

   18  1 3s         0.74543   0.00000     -0.000   0.000  -0.000
   18  2 3s         0.34152   0.00000      0.000  -0.000   0.000
   18  3 3py        0.07323   0.00000      0.000  -0.000   0.000
   18  4 3pz        0.81121   0.00000     -0.000  -0.000  -0.000
   18  5 3px        0.55139   0.00000      0.000  -0.000  -0.000
   18  6 3py        0.52282   0.00000     -0.000   0.000  -0.000
   18  7 3pz        0.19510   0.00000     -0.000   0.000  -0.000
   18  8 3px        0.25339   0.00000     -0.000  -0.000   0.000
   18  9 3Pdxy      0.10673   0.00000      0.000   0.000  -0.000
   18 10 3Pdyz      0.02787   0.00000     -0.000  -0.000   0.000
   18 11 3Pdz2      0.00904   0.00000     -0.000   0.000   0.000
   18 12 3Pdxz      0.03200   0.00000      0.000   0.000   0.000
   18 13 3Pdx2-y2   0.10266   0.00000     -0.000  -0.000  -0.000
   18     Total     3.77238   0.00000     -0.000  -0.000  -0.000

   19  1 3s         0.45854   0.00000     -0.000  -0.000   0.000
   19  2 3s         0.36269   0.00000      0.000   0.000  -0.000
   19  3 3py        0.06268   0.00000     -0.000  -0.000  -0.000
   19  4 3pz        0.39550   0.00000      0.000   0.000   0.000
   19  5 3px        0.24513   0.00000      0.000   0.000   0.000
   19  6 3py        0.46052   0.00000      0.000   0.000   0.000
   19  7 3pz        0.19609   0.00000     -0.000  -0.000  -0.000
   19  8 3px        0.30322   0.00000      0.000  -0.000  -0.000
   19  9 3Pdxy      0.32407   0.00000      0.000   0.000  -0.000
   19 10 3Pdyz      0.18502   0.00000      0.000  -0.000  -0.000
   19 11 3Pdz2      0.01064   0.00000      0.000   0.000   0.000
   19 12 3Pdxz      0.09770   0.00000     -0.000   0.000  -0.000
   19 13 3Pdx2-y2   0.22628   0.00000      0.000   0.000  -0.000
   19     Total     3.32807   0.00000     -0.000   0.000  -0.000

   20  1 3s         0.67917   0.00000     -0.000   0.000   0.000
   20  2 3s         0.37722   0.00000      0.000  -0.000   0.000
   20  3 3py        0.34573   0.00000     -0.000   0.000   0.000
   20  4 3pz        0.60177   0.00000      0.000   0.000   0.000
   20  5 3px        0.14488   0.00000      0.000   0.000   0.000
   20  6 3py        0.28239   0.00000      0.000   0.000  -0.000
   20  7 3pz        0.16069   0.00000     -0.000  -0.000   0.000
   20  8 3px        0.49690   0.00000     -0.000  -0.000  -0.000
   20  9 3Pdxy      0.10201   0.00000     -0.000  -0.000   0.000
   20 10 3Pdyz      0.13116   0.00000      0.000   0.000   0.000
   20 11 3Pdz2      0.00803   0.00000      0.000  -0.000  -0.000
   20 12 3Pdxz      0.02631   0.00000     -0.000  -0.000  -0.000
   20 13 3Pdx2-y2   0.17641   0.00000      0.000   0.000   0.000
   20     Total     3.53268   0.00000      0.000   0.000   0.000

----------------------------------------------------------------
Total              88.86038   0.00000      0.000  -0.000   0.000


Species: H                   

Atom      Orb        Charge      Spin       Svec
----------------------------------------------------------------
   12  1 1s         0.47942   0.00000      0.000  -0.000   0.000
   12  2 1s         0.18040   0.00000     -0.000  -0.000  -0.000
   12  3 2Ppy       0.04639   0.00000     -0.000  -0.000   0.000
   12  4 2Ppz       0.03355   0.00000      0.000  -0.000   0.000
   12  5 2Ppx       0.05365   0.00000      0.000  -0.000   0.000
   12     Total     0.79341   0.00000      0.000  -0.000   0.000

   13  1 1s         1.02130   0.00000      0.000   0.000   0.000
   13  2 1s         0.09449   0.00000     -0.000  -0.000  -0.000
   13  3 2Ppy       0.01981   0.00000      0.000  -0.000   0.000
   13  4 2Ppz       0.02003   0.00000     -0.000   0.000  -0.000
   13  5 2Ppx       0.03316   0.00000      0.000   0.000   0.000
   13     Total     1.18879   0.00000      0.000   0.000   0.000

   14  1 1s         0.49366   0.00000     -0.000   0.000  -0.000
   14  2 1s         0.19508   0.00000      0.000  -0.000  -0.000
   14  3 2Ppy       0.02085   0.00000      0.000   0.000   0.000
   14  4 2Ppz       0.04968   0.00000     -0.000   0.000  -0.000
   14  5 2Ppx       0.02128   0.00000     -0.000   0.000   0.000
   14     Total     0.78055   0.00000     -0.000   0.000  -0.000

   15  1 1s         0.41209   0.00000      0.000   0.000   0.000
   15  2 1s         0.19610   0.00000     -0.000  -0.000  -0.000
   15  3 2Ppy       0.04911   0.00000     -0.000   0.000   0.000
   15  4 2Ppz       0.05198   0.00000      0.000  -0.000   0.000
   15  5 2Ppx       0.09513   0.00000     -0.000  -0.000  -0.000
   15     Total     0.80441   0.00000      0.000  -0.000   0.000

   16  1 1s         0.50589   0.00000      0.000   0.000  -0.000
   16  2 1s         0.18774   0.00000     -0.000  -0.000  -0.000
   16  3 2Ppy       0.02995   0.00000      0.000   0.000  -0.000
   16  4 2Ppz       0.03907   0.00000      0.000   0.000   0.000
   16  5 2Ppx       0.02303   0.00000     -0.000  -0.000  -0.000
   16     Total     0.78568   0.00000      0.000   0.000  -0.000

   24  1 1s         1.05672   0.00000     -0.000   0.000  -0.000
   24  2 1s         0.07602   0.00000      0.000  -0.000   0.000
   24  3 2Ppy       0.03165   0.00000      0.000   0.000  -0.000
   24  4 2Ppz       0.03063   0.00000     -0.000  -0.000  -0.000
   24  5 2Ppx       0.01781   0.00000     -0.000   0.000   0.000
   24     Total     1.21284   0.00000     -0.000   0.000  -0.000

   25  1 1s         1.04714   0.00000     -0.000  -0.000  -0.000
   25  2 1s         0.08444   0.00000      0.000  -0.000   0.000
   25  3 2Ppy       0.01168   0.00000     -0.000   0.000  -0.000
   25  4 2Ppz       0.01849   0.00000     -0.000  -0.000   0.000
   25  5 2Ppx       0.03622   0.00000      0.000   0.000   0.000
   25     Total     1.19798   0.00000     -0.000  -0.000  -0.000

   26  1 1s         0.50022   0.00000      0.000  -0.000   0.000
   26  2 1s         0.19491   0.00000     -0.000   0.000  -0.000
   26  3 2Ppy       0.02285   0.00000      0.000  -0.000   0.000
   26  4 2Ppz       0.05090   0.00000     -0.000   0.000   0.000
   26  5 2Ppx       0.02154   0.00000      0.000   0.000  -0.000
   26     Total     0.79042   0.00000      0.000   0.000   0.000

   27  1 1s         0.37508   0.00000     -0.000  -0.000   0.000
   27  2 1s         0.20625   0.00000      0.000   0.000  -0.000
   27  3 2Ppy       0.06573   0.00000     -0.000  -0.000   0.000
   27  4 2Ppz       0.05619   0.00000     -0.000   0.000   0.000
   27  5 2Ppx       0.11612   0.00000      0.000  -0.000  -0.000
   27     Total     0.81937   0.00000     -0.000   0.000   0.000

   29  1 1s         0.49051   0.00000     -0.000   0.000  -0.000
   29  2 1s         0.18785   0.00000      0.000  -0.000  -0.000
   29  3 2Ppy       0.02515   0.00000      0.000  -0.000  -0.000
   29  4 2Ppz       0.03522   0.00000      0.000  -0.000  -0.000
   29  5 2Ppx       0.02743   0.00000      0.000  -0.000  -0.000
   29     Total     0.76617   0.00000     -0.000  -0.000  -0.000

----------------------------------------------------------------
Total              98.00000   0.00000      0.000   0.000  -0.000


siesta: Eigenvalues (eV):
ik =     1
  -23.1324  -23.1324  -22.9933  -22.9933  -21.4116  -21.4116  -21.3038  -21.3038  -20.8536  -20.8536
  -20.5234  -20.5234  -20.1393  -20.1393  -19.6638  -19.6638  -19.5085  -19.5085  -19.3796  -19.3796
  -14.7299  -14.7299  -13.8584  -13.8584  -13.2658  -13.2658  -13.1567  -13.1567  -12.9495  -12.9495
  -12.7482  -12.7482  -12.5348  -12.5348  -11.9970  -11.9970  -11.9688  -11.9688  -11.7729  -11.7729
  -10.9935  -10.9935  -10.7812  -10.7812  -10.5898  -10.5898  -10.2951  -10.2951  -10.1227  -10.1227
   -9.7241   -9.7241   -9.0698   -9.0698   -8.9496   -8.9496   -8.8808   -8.8808   -8.6926   -8.6926
   -8.4932   -8.4932   -8.4496   -8.4496   -8.3929   -8.3929   -7.9759   -7.9759   -7.8834   -7.8834
   -7.5637   -7.5637   -7.4472   -7.4472   -7.4297   -7.4297   -7.2285   -7.2285   -6.9697   -6.9697
   -6.8246   -6.8246   -6.7005   -6.7005   -6.5576   -6.5576   -6.4209   -6.4209   -6.1469   -6.1469
   -6.0357   -6.0357   -5.9019   -5.9019   -5.4692   -5.4692   -4.3842   -4.3842   -3.1866   -3.1866
   -2.4663   -2.4663   -2.2992   -2.2992   -2.2112   -2.2112   -2.0036   -2.0036   -1.8891   -1.8891
   -1.8498   -1.8498   -1.6973   -1.6973   -1.6529   -1.6529   -1.2737   -1.2737   -1.1408   -1.1408
   -1.1004   -1.1004   -0.5199   -0.5199   -0.4719   -0.4719   -0.4121   -0.4121    0.3512    0.3512
    0.3615    0.3615    0.5603    0.5603    0.7796    0.7796    0.8601    0.8601    1.2201    1.2201
    1.3678    1.3678    1.4516    1.4516    1.4830    1.4830    1.5522    1.5522    1.9917    1.9917
    2.2457    2.2457    2.5730    2.5730    2.6839    2.6839    2.7833    2.7833    2.9946    2.9946
    3.0491    3.0491    3.2662    3.2662    3.3425    3.3425    3.4193    3.4193    3.7916    3.7916
    3.8162    3.8162    4.0679    4.0679    4.1319    4.1319    4.2259    4.2259    4.3898    4.3898
    4.5940    4.5940    4.6317    4.6317    4.7431    4.7431    5.0938    5.0938    5.2916    5.2916
    5.3257    5.3257    5.5816    5.5816    5.5929    5.5929    5.7421    5.7421    5.8746    5.8746
    5.9721    5.9721    6.4078    6.4078    6.4661    6.4661    6.5961    6.5961    6.6763    6.6763
    6.8363    6.8363    6.9386    6.9386    7.1437    7.1437    7.2028    7.2028    7.2917    7.2917
    7.5284    7.5284    7.6425    7.6425    7.8013    7.8013    8.0702    8.0702    8.0826    8.0826
    8.2309    8.2309    8.4645    8.4645    8.6207    8.6207    8.6936    8.6936    8.7911    8.7911
    8.9358    8.9358    9.0948    9.0948    9.2990    9.2990    9.4605    9.4605    9.5811    9.5811
    9.8068    9.8068    9.8432    9.8432    9.9172    9.9172   10.0172   10.0172   10.2678   10.2678
   10.5769   10.5769   10.6972   10.6972   11.1768   11.1768   11.2257   11.2257   11.2600   11.2600
   11.4369   11.4369   11.7734   11.7734   12.3257   12.3257   12.4358   12.4358   12.4780   12.4780
   12.4825   12.4825   12.6501   12.6501   13.4654   13.4654   13.5156   13.5156   13.5533   13.5533
   13.7285   13.7285   13.8524   13.8524   14.1329   14.1329   14.2229   14.2229   14.3716   14.3716
   14.4971   14.4971   14.7805   14.7805   15.0114   15.0114   15.0741   15.0741   15.1663   15.1663
   15.6048   15.6048   16.5044   16.5044   16.7530   16.7530   16.7796   16.7796   16.8008   16.8008
   17.3653   17.3653   17.9029   17.9029   18.4688   18.4688   18.5505   18.5505   19.0781   19.0781
   19.8024   19.8024   20.2399   20.2399   20.2589   20.2589   20.7328   20.7328   21.1111   21.1111
   21.3942   21.3942   22.0237   22.0237   22.2697   22.2697   22.8712   22.8712   22.9812   22.9812
   23.6889   23.6889   23.9074   23.9074   24.2304   24.2304   24.7250   24.7250   25.0553   25.0553
   25.8042   25.8042   26.4322   26.4322   26.9515   26.9515   27.8571   27.8571   28.7023   28.7023
   29.3147   29.3147   29.8778   29.8778   30.0645   30.0645   30.3061   30.3061   30.6722   30.6722
   30.9500   30.9500   31.0124   31.0124   31.3219   31.3219   31.7161   31.7161   32.0003   32.0003
   33.1644   33.1644   33.7524   33.7524   33.8996   33.8996   34.2159   34.2159   34.7358   34.7358
   34.7966   34.7966   35.3635   35.3635   36.3505   36.3505   36.4471   36.4471   36.7490   36.7490
   37.0253   37.0253   37.2431   37.2431   37.5020   37.5020   37.8054   37.8054   38.5778   38.5778
   39.1345   39.1345   39.3282   39.3282   39.7392   39.7392   39.8670   39.8670   40.3333   40.3333
   40.4908   40.4908   40.9249   40.9249   41.9121   41.9121   42.1835   42.1835   42.2055   42.2055
   42.4039   42.4039   42.9463   42.9463   43.2312   43.2312   43.2702   43.2702   43.8541   43.8541
   44.4258   44.4258   44.4624   44.4624   44.7698   44.7698   44.9558   44.9558   45.2923   45.2923
   45.4219   45.4219   46.0259   46.0259   46.5985   46.5985   46.7482   46.7482   47.0042   47.0042
   47.9512   47.9512   47.9747   47.9747   49.7538   49.7538   49.7804   49.7804   49.8679   49.8679
   50.6214   50.6214   50.8153   50.8153   51.0315   51.0315   51.3821   51.3821   51.9441   51.9441
   52.5075   52.5075   52.9401   52.9401   53.0029   53.0029   54.5551   54.5551   54.6420   54.6420
   54.9716   54.9716   55.7669   55.7669   56.0400   56.0400   56.4108   56.4108   56.4989   56.4989
   56.6631   56.6631   57.6698   57.6698   58.4938   58.4938   58.6258   58.6258   60.1008   60.1008
   60.4124   60.4124   60.7375   60.7375   60.9262   60.9262   62.0822   62.0822   62.8626   62.8626
   63.0197   63.0197   64.1718   64.1718   65.2157   65.2157   65.4618   65.4618   66.5225   66.5225
   67.3125   67.3125   68.5122   68.5122   70.4174   70.4174   70.5104   70.5104   71.6045   71.6045
   72.6106   72.6106   73.7680   73.7680   76.4124   76.4124   77.6143   77.6143   89.1702   89.1702
   90.9495   90.9495   91.1592   91.1592   94.8944   94.8944   98.3208   98.3208   98.8219   98.8219
  103.3239  103.3239  103.9802  103.9802  104.7404  104.7404  105.5368  105.5368  110.2115  110.2115
  116.4419  116.4419  120.0347  120.0347  125.2171  125.2171  128.4900  128.4900  140.3309  140.3309
  149.9884  149.9884  150.8496  150.8496
siesta: Fermi energy =      -3.783836 eV

siesta: Program's energy decomposition (eV):
siesta: Ebs     =     -1136.531806
siesta: Eions   =      3585.165840
siesta: Ena     =       384.862176
siesta: Ekin    =      2919.406212
siesta: Enl     =     -2804.530735
siesta: Eso     =        -0.004327
siesta: Edftu   =         0.000000
siesta: DEna    =        48.559618
siesta: DUscf   =        13.787217
siesta: DUext   =         0.000000
siesta: Exc     =     -1124.424218
siesta: eta*DQ  =         0.000000
siesta: Emadel  =         0.000000
siesta: Emeta   =         0.000000
siesta: Emolmec =         0.000000
siesta: Ekinion =         0.000000
siesta: Eharris =     -4147.509897
siesta: Etot    =     -4147.509897
siesta: FreeEng =     -4147.509897

siesta: Final energy (eV):
siesta:  Band Struct. =   -1136.531806
siesta:       Kinetic =    2919.406212
siesta:       Hartree =    9180.140054
siesta:       Edftu   =       0.000000
siesta:       Eso     =      -0.004327
siesta:    Ext. field =       0.000000
siesta:   Exch.-corr. =   -1124.424218
siesta:  Ion-electron =  -20956.320563
siesta:       Ion-ion =    5833.692945
siesta:       Ekinion =       0.000000
siesta:         Total =   -4147.509897
siesta:         Fermi =      -3.783836

siesta: Atomic forces (eV/Ang):
siesta:      1   -0.456420   -0.701479   -0.000000
siesta:      2   -0.049943   -0.010558   -0.000000
siesta:      3   -0.916661    0.351608    0.000000
siesta:      4   -0.823037   -0.061753   -0.000000
siesta:      5   -0.086811    0.131838    0.000000
siesta:      6   -2.038634   -0.862021   -0.000000
siesta:      7   -0.064201    0.283960   -0.000000
siesta:      8    0.477813   -0.274038    0.000000
siesta:      9    0.208969   -1.455064    0.000000
siesta:     10    1.177334   -0.277828   -0.000000
siesta:     11   -0.004946    0.047294   -0.000000
siesta:     12    0.400358    0.251755    0.000000
siesta:     13   -0.000345    0.092467   -0.000000
siesta:     14   -0.235330   -0.043899    0.000000
siesta:     15    1.143839    0.791422   -0.000000
siesta:     16    0.078649    0.126882    0.000000
siesta:     17   -1.216803    1.242493    0.000000
siesta:     18    0.260585   -0.225981   -0.000000
siesta:     19    0.303995    1.357878   -0.000000
siesta:     20    0.004200    0.460153    0.000000
siesta:     21    0.394759   -1.154149   -0.000000
siesta:     22    3.368917    1.610494   -0.000000
siesta:     23   -0.291127   -0.590441   -0.000000
siesta:     24   -0.113071    0.216479   -0.000000
siesta:     25    0.033758   -0.050535    0.000000
siesta:     26    0.165017    0.339573    0.000000
siesta:     27   -1.169761   -0.979147    0.000000
siesta:     28   -2.293050   -1.736054    0.000000
siesta:     29    0.086928    0.063286    0.000000
siesta: ----------------------------------------
siesta:    Tot   -1.655017   -1.055365   -0.000000

siesta: Stress tensor (static) (eV/Ang**3):
siesta:    -0.001062   -0.001370   -0.000000
siesta:    -0.001370   -0.001135    0.000000
siesta:     0.000000    0.000000   -0.000070

siesta: Cell volume =       4395.588203 Ang**3

siesta: Pressure (static):
siesta:                Solid            Molecule  Units
siesta:           0.00000823          0.00000650  Ry/Bohr**3
siesta:           0.00075560          0.00059665  eV/Ang**3
siesta:           1.21061252          0.95595426  kBar
(Free)E+ p_basis*V_orbitals  =       -4127.659480
(Free)Eharris+ p_basis*V_orbitals  =       -4127.659480
     spin moment: S , {S} =    0.00000   0.00000   0.00000  -0.00000

siesta: Electric dipole (a.u.)  =    1.361985    0.067410   -0.000000
siesta: Electric dipole (Debye) =    3.461822    0.171339   -0.000000

cite: Please see "GC.bib" for an exhaustive BiBTeX file.
cite: Please clearly indicate Siesta version in published work: v4.1.5-1-g384057250
cite: This calculation has made use of the following articles
cite: which are encouraged to be cited in a published work.
        Primary SIESTA paper
          DOI: www.doi.org/10.1088/0953-8984/14/11/302
        Spin-orbit coupling (on-site approximation)
          DOI: www.doi.org/10.1088/0953-8984/19/19/489001


WARNING: alloc-realloc-dealloc name mismatch
         Name: atomlist isa
         Size:              -116. Bytes
         Node:     0
         Subsequent mismatches will not be reported
>> End of run:  22-MAY-2023  16:41:44
Job completed
