Siesta Version  : v4.1.5-1-g384057250
Architecture    : gcc
Compiler version: GNU Fortran (Ubuntu 11.3.0-1ubuntu1~22.04) 11.3.0
Compiler flags  : mpifort -O2 -fPIC -ftree-vectorize -fallow-argument-mismatch
PP flags        : -DFC_HAVE_ABORT -DMPI -DSIESTA__FLOOK -DSIESTA__METIS -DSIESTA__MUMPS -DCDF -DNCDF -DNCDF_4 -DNCDF_PARALLEL -DSIESTA__MRRR -DSIESTA__ELPA
Libraries       : libncdf.a libfdict.a  -lflookall -ldl -lnetcdff -lnetcdf -lhdf5_hl -lhdf5 -lhdf5_fortran -lz -lscalapack-openmpi -lopenblas -lmetis -lzmumps -lcmumps -ldmumps -lmumps_common -lpord -lsmumps -lesmumps -lscotch -lscotcherr -fopenmp -lelpa
PARALLEL version
NetCDF support
NetCDF-4 support
NetCDF-4 MPI-IO support
METIS ordering support
Lua support

* Running on 4 nodes in parallel
>> Start of run:  28-JUN-2023  16:11:46

                           ***********************       
                           *  WELCOME TO SIESTA  *       
                           ***********************       

reinit: Reading from standard input
reinit: Dumped input in INPUT_TMP.46878
************************** Dump of input data file ****************************
SystemLabel      GC
NumberOfAtoms    29
NumberOfSpecies  4
%block ChemicalSpeciesLabel
    1    8  O
    2    7  N
    3   14  Si
    4    1  H
%endblock ChemicalSpeciesLabel
# Single point calculation
MD.TypeOfRun                CG
MD.Steps                    0
SCF.MustConverge            F # In case it does not. There can be 2 very close atoms
AtomicCoordinatesFormat NotScaledCartesianAng
%block AtomicCoordinatesAndAtomicSpecies
1.043624880    3.939228610    0.000000000       1
-3.040641290   1.071078170    0.000000000       2
2.054601450    1.213582070    0.000000000       2
0.999014100    -1.732643800   0.000000000       2
-2.132351640   -1.812968220   0.000000000       2
3.860190550    -1.112298180   0.000000000       2
-1.236183220   1.152964460    0.000000000       3
-0.532924260   -0.939006270   0.000000000       3
0.635660470    2.374516770    0.000000000       3
2.245170240    -0.549967100   0.000000000       3
-3.449816660   -0.583665030   0.000000000       3
2.963714090    1.790992630    0.000000000       4
-4.845591350   -1.123549660   0.000000000       4
4.007020910    -2.152308560   0.000000000       4
4.772194380    -0.502318160   0.000000000       4
-2.265399090   -2.864605110   0.000000000       4
7.729176720    6.806989794    0.000000000       3
9.634060690    8.013628734    0.000000000       3
9.138306550    4.040654824    0.000000000       3
11.215776840   6.509871984    0.000000000       3
7.788799390    5.089562224    0.000000000       2
6.190041660    7.560667104    0.000000000       2
10.790601810   4.770492044    0.000000000       2
9.825405490    9.505782484    0.000000000       4
12.700144820   6.728602804    0.000000000       4
6.078696380    8.609862214    0.000000000       4
5.257483950    6.935752924    0.000000000       4
9.128079720    2.432543704    0.000000000       1
11.566027690   4.043800484    0.000000000       4
%endblock AtomicCoordinatesAndAtomicSpecies
%include ../../../Defaults.fdf
************************** End of input data file *****************************

reinit: -----------------------------------------------------------------------
reinit: System Name: 
reinit: -----------------------------------------------------------------------
reinit: System Label: GC
reinit: -----------------------------------------------------------------------

initatom: Reading input for the pseudopotentials and atomic orbitals ----------
Species number:   1 Atomic number:    8 Label: O
Species number:   2 Atomic number:    7 Label: N
Species number:   3 Atomic number:   14 Label: Si
Species number:   4 Atomic number:    1 Label: H

Ground state valence configuration:   2s02  2p04
Reading pseudopotential information in formatted form from O.psf

Pseudopotential generated from a relativistic atomic calculation

Valence configuration for pseudopotential generation:
2s( 2.00) rc: 0.45
2p( 4.00) rc: 0.92
3d( 0.00) rc: 2.24
4f( 0.00) rc: 0.25
Ground state valence configuration:   2s02  2p03
Reading pseudopotential information in formatted form from N.psf

Pseudopotential generated from a relativistic atomic calculation

Valence configuration for pseudopotential generation:
2s( 2.00) rc: 0.94
2p( 3.00) rc: 0.59
3d( 0.00) rc: 3.46
4f( 0.00) rc: 2.47
Ground state valence configuration:   3s02  3p02
Reading pseudopotential information in formatted form from Si.psf

Pseudopotential generated from a relativistic atomic calculation

Valence configuration for pseudopotential generation:
3s( 2.00) rc: 1.67
3p( 2.00) rc: 2.04
3d( 0.00) rc: 2.89
4f( 0.00) rc: 2.49
Ground state valence configuration:   1s01
Reading pseudopotential information in formatted form from H.psf

Pseudopotential generated from a relativistic atomic calculation

Valence configuration for pseudopotential generation:
1s( 1.00) rc: 0.01
2p( 0.00) rc: 0.60
3d( 0.00) rc: 1.99
4f( 0.00) rc: 2.49
For O, standard SIESTA heuristics set lmxkb to 3
 (one more than the basis l, including polarization orbitals).
Use PS.lmax or PS.KBprojectors blocks to override.
For N, standard SIESTA heuristics set lmxkb to 3
 (one more than the basis l, including polarization orbitals).
Use PS.lmax or PS.KBprojectors blocks to override.
For Si, standard SIESTA heuristics set lmxkb to 3
 (one more than the basis l, including polarization orbitals).
Use PS.lmax or PS.KBprojectors blocks to override.
For H, standard SIESTA heuristics set lmxkb to 2
 (one more than the basis l, including polarization orbitals).
Use PS.lmax or PS.KBprojectors blocks to override.

<basis_specs>
===============================================================================
O                    Z=   8    Mass=  16.000        Charge= 0.17977+309
Lmxo=1 Lmxkb= 3    BasisType=split      Semic=F
L=0  Nsemic=0  Cnfigmx=2
          i=1  nzeta=2  polorb=0  (2s)
            splnorm:   0.28000    
               vcte:    0.0000    
               rinn:    0.0000    
               qcoe:    0.0000    
               qyuk:    0.0000    
               qwid:   0.10000E-01
                rcs:    0.0000      0.0000    
            lambdas:    1.0000      1.0000    
L=1  Nsemic=0  Cnfigmx=2
          i=1  nzeta=2  polorb=1  (2p)
            splnorm:   0.28000    
               vcte:    0.0000    
               rinn:    0.0000    
               qcoe:    0.0000    
               qyuk:    0.0000    
               qwid:   0.10000E-01
                rcs:    0.0000      0.0000    
            lambdas:    1.0000      1.0000    
-------------------------------------------------------------------------------
L=0  Nkbl=1  erefs: 0.17977+309
L=1  Nkbl=1  erefs: 0.17977+309
L=2  Nkbl=1  erefs: 0.17977+309
L=3  Nkbl=1  erefs: 0.17977+309
===============================================================================
</basis_specs>

atom: Called for O                     (Z =   8)

read_vps: Pseudopotential generation method:
read_vps: ATM4.2.7  Troullier-Martins                       
Valence charge for ps generation:    6.00000

xc_check: Exchange-correlation functional:
xc_check: GGA Perdew, Burke & Ernzerhof 1996
V l=0 = -2*Zval/r beyond r=  1.1000
V l=1 = -2*Zval/r beyond r=  1.1000
V l=2 = -2*Zval/r beyond r=  2.2154
V l=3 = -2*Zval/r beyond r=  1.1000
All V_l potentials equal beyond r=  2.2154
This should be close to max(r_c) in ps generation
All pots = -2*Zval/r beyond r=  2.2154

VLOCAL1: 99.0% of the norm of Vloc inside      8.845 Ry
VLOCAL1: 99.9% of the norm of Vloc inside     20.157 Ry
atom: Maximum radius for 4*pi*r*r*local-pseudopot. charge    2.67231
atom: Maximum radius for r*vlocal+2*Zval:    2.32897
GHOST: No ghost state for L =  0
GHOST: No ghost state for L =  1
GHOST: No ghost state for L =  2
GHOST: No ghost state for L =  3

KBgen: Kleinman-Bylander projectors: 
   l= 0   rc=  2.243238   el= -1.759686   Ekb=**********   kbcos= -0.171774
   l= 1   rc=  2.328968   el= -0.663873   Ekb=-14.506792   kbcos= -0.519897
   l= 2   rc=  2.573941   el=  0.002031   Ekb= -1.137373   kbcos= -0.019581
   l= 3   rc=  2.606321   el=  0.003153   Ekb= -1.013546   kbcos= -0.003122

KBgen: Total number of Kleinman-Bylander projectors:   16
atom: -------------------------------------------------------------------------

atom: SANKEY-TYPE ORBITALS:
atom: Selected multiple-zeta basis: split     

SPLIT: Orbitals with angular momentum L= 0

SPLIT: Basis orbitals for state 2s

SPLIT: PAO cut-off radius determined from an
SPLIT: energy shift=  0.002000 Ry

   izeta = 1
                 lambda =    1.000000
                     rc =    4.243912
                 energy =   -1.758270
                kinetic =    3.286084
    potential(screened) =   -5.044353
       potential(ionic) =  -12.921184

   izeta = 2
                 rmatch =    2.187845
              splitnorm =    0.280000
                 energy =   -0.885018
                kinetic =    8.134434
    potential(screened) =   -9.019452
       potential(ionic) =  -17.710645

SPLIT: Orbitals with angular momentum L= 1

SPLIT: Basis orbitals for state 2p

SPLIT: PAO cut-off radius determined from an
SPLIT: energy shift=  0.002000 Ry

   izeta = 1
                 lambda =    1.000000
                     rc =    5.314825
                 energy =   -0.661986
                kinetic =    4.917472
    potential(screened) =   -5.579458
       potential(ionic) =  -13.236259

   izeta = 2
                 rmatch =    2.160663
              splitnorm =    0.280000
                 energy =   -0.068760
                kinetic =    9.183374
    potential(screened) =   -9.252135
       potential(ionic) =  -18.274251

POLgen: Perturbative polarization orbital with L=  2

POLgen: Polarization orbital for state 2p

   izeta = 1
                     rc =    5.314825
                 energy =    1.970580
                kinetic =    3.886128
    potential(screened) =   -1.915547
       potential(ionic) =   -7.749584
atom: Total number of Sankey-type orbitals: 13

atm_pop: Valence configuration (for local Pseudopot. screening):
 2s( 2.00)                                                            
 2p( 4.00)                                                            
Vna: chval, zval:    6.00000   6.00000

Vna:  Cut-off radius for the neutral-atom potential:   5.314825

atom: _________________________________________________________________________

<basis_specs>
===============================================================================
N                    Z=   7    Mass=  14.010        Charge= 0.17977+309
Lmxo=1 Lmxkb= 3    BasisType=split      Semic=F
L=0  Nsemic=0  Cnfigmx=2
          i=1  nzeta=2  polorb=0  (2s)
            splnorm:   0.28000    
               vcte:    0.0000    
               rinn:    0.0000    
               qcoe:    0.0000    
               qyuk:    0.0000    
               qwid:   0.10000E-01
                rcs:    0.0000      0.0000    
            lambdas:    1.0000      1.0000    
L=1  Nsemic=0  Cnfigmx=2
          i=1  nzeta=2  polorb=1  (2p)
            splnorm:   0.28000    
               vcte:    0.0000    
               rinn:    0.0000    
               qcoe:    0.0000    
               qyuk:    0.0000    
               qwid:   0.10000E-01
                rcs:    0.0000      0.0000    
            lambdas:    1.0000      1.0000    
-------------------------------------------------------------------------------
L=0  Nkbl=1  erefs: 0.17977+309
L=1  Nkbl=1  erefs: 0.17977+309
L=2  Nkbl=1  erefs: 0.17977+309
L=3  Nkbl=1  erefs: 0.17977+309
===============================================================================
</basis_specs>

atom: Called for N                     (Z =   7)

read_vps: Pseudopotential generation method:
read_vps: ATM4.2.7  Troullier-Martins                       
Valence charge for ps generation:    5.00000

xc_check: Exchange-correlation functional:
xc_check: GGA Perdew, Burke & Ernzerhof 1996
V l=0 = -2*Zval/r beyond r=  1.2889
V l=1 = -2*Zval/r beyond r=  1.2889
V l=2 = -2*Zval/r beyond r=  3.4178
V l=3 = -2*Zval/r beyond r=  2.4084
All V_l potentials equal beyond r=  3.3753
This should be close to max(r_c) in ps generation
All pots = -2*Zval/r beyond r=  3.4178

VLOCAL1: 99.0% of the norm of Vloc inside      3.810 Ry
VLOCAL1: 99.9% of the norm of Vloc inside      8.683 Ry
atom: Maximum radius for 4*pi*r*r*local-pseudopot. charge    4.02088
atom: Maximum radius for r*vlocal+2*Zval:    3.54838
GHOST: No ghost state for L =  0
GHOST: No ghost state for L =  1
GHOST: No ghost state for L =  2
GHOST: No ghost state for L =  3

KBgen: Kleinman-Bylander projectors: 
   l= 0   rc=  3.417763   el= -1.365098   Ekb= -4.433130   kbcos= -0.707855
   l= 1   rc=  3.375302   el= -0.521201   Ekb=-13.264039   kbcos= -0.535594
   l= 2   rc=  3.872880   el=  0.001991   Ekb= -0.641094   kbcos= -0.062456
   l= 3   rc=  3.970931   el=  0.003093   Ekb= -0.474517   kbcos= -0.018236

KBgen: Total number of Kleinman-Bylander projectors:   16
atom: -------------------------------------------------------------------------

atom: SANKEY-TYPE ORBITALS:
atom: Selected multiple-zeta basis: split     

SPLIT: Orbitals with angular momentum L= 0

SPLIT: Basis orbitals for state 2s

SPLIT: PAO cut-off radius determined from an
SPLIT: energy shift=  0.002000 Ry

   izeta = 1
                 lambda =    1.000000
                     rc =    4.730425
                 energy =   -1.363399
                kinetic =    1.245246
    potential(screened) =   -2.608645
       potential(ionic) =   -8.121105

   izeta = 2
                 rmatch =    2.531849
              splitnorm =    0.280000
                 energy =   -0.959908
                kinetic =    2.409435
    potential(screened) =   -3.369343
       potential(ionic) =   -9.427975

SPLIT: Orbitals with angular momentum L= 1

SPLIT: Basis orbitals for state 2p

SPLIT: PAO cut-off radius determined from an
SPLIT: energy shift=  0.002000 Ry

   izeta = 1
                 lambda =    1.000000
                     rc =    5.924108
                 energy =   -0.519262
                kinetic =    3.672940
    potential(screened) =   -4.192202
       potential(ionic) =   -9.518354

   izeta = 2
                 rmatch =    2.531849
              splitnorm =    0.280000
                 energy =   -0.104258
                kinetic =    6.807538
    potential(screened) =   -6.911796
       potential(ionic) =  -13.149920

POLgen: Perturbative polarization orbital with L=  2

POLgen: Polarization orbital for state 2p

   izeta = 1
                     rc =    5.924108
                 energy =    1.427508
                kinetic =    2.872379
    potential(screened) =   -1.444871
       potential(ionic) =   -5.563644
atom: Total number of Sankey-type orbitals: 13

atm_pop: Valence configuration (for local Pseudopot. screening):
 2s( 2.00)                                                            
 2p( 3.00)                                                            
Vna: chval, zval:    5.00000   5.00000

Vna:  Cut-off radius for the neutral-atom potential:   5.924108

atom: _________________________________________________________________________

<basis_specs>
===============================================================================
Si                   Z=  14    Mass=  28.090        Charge= 0.17977+309
Lmxo=1 Lmxkb= 3    BasisType=split      Semic=F
L=0  Nsemic=0  Cnfigmx=3
          i=1  nzeta=2  polorb=0  (3s)
            splnorm:   0.28000    
               vcte:    0.0000    
               rinn:    0.0000    
               qcoe:    0.0000    
               qyuk:    0.0000    
               qwid:   0.10000E-01
                rcs:    0.0000      0.0000    
            lambdas:    1.0000      1.0000    
L=1  Nsemic=0  Cnfigmx=3
          i=1  nzeta=2  polorb=1  (3p)
            splnorm:   0.28000    
               vcte:    0.0000    
               rinn:    0.0000    
               qcoe:    0.0000    
               qyuk:    0.0000    
               qwid:   0.10000E-01
                rcs:    0.0000      0.0000    
            lambdas:    1.0000      1.0000    
-------------------------------------------------------------------------------
L=0  Nkbl=1  erefs: 0.17977+309
L=1  Nkbl=1  erefs: 0.17977+309
L=2  Nkbl=1  erefs: 0.17977+309
L=3  Nkbl=1  erefs: 0.17977+309
===============================================================================
</basis_specs>

atom: Called for Si                    (Z =  14)

read_vps: Pseudopotential generation method:
read_vps: ATM4.2.7  Troullier-Martins                       
Valence charge for ps generation:    4.00000

xc_check: Exchange-correlation functional:
xc_check: GGA Perdew, Burke & Ernzerhof 1996
V l=0 = -2*Zval/r beyond r=  2.7826
V l=1 = -2*Zval/r beyond r=  2.7826
V l=2 = -2*Zval/r beyond r=  2.9253
V l=3 = -2*Zval/r beyond r=  2.7826
All V_l potentials equal beyond r=  2.8530
This should be close to max(r_c) in ps generation
All pots = -2*Zval/r beyond r=  2.9253

VLOCAL1: 99.0% of the norm of Vloc inside      5.333 Ry
VLOCAL1: 99.9% of the norm of Vloc inside     12.154 Ry
atom: Maximum radius for 4*pi*r*r*local-pseudopot. charge    3.39869
atom: Maximum radius for r*vlocal+2*Zval:    2.96205
GHOST: No ghost state for L =  0
GHOST: No ghost state for L =  1
GHOST: No ghost state for L =  2
GHOST: No ghost state for L =  3

KBgen: Kleinman-Bylander projectors: 
   l= 0   rc=  3.075247   el= -0.794092   Ekb=  5.879390   kbcos=  0.167461
   l= 1   rc=  3.153101   el= -0.300068   Ekb=  2.642817   kbcos=  0.058301
   l= 2   rc=  3.273594   el=  0.001958   Ekb= -1.185135   kbcos= -0.104411
   l= 3   rc=  3.232927   el=  0.003046   Ekb= -0.497174   kbcos= -0.015889

KBgen: Total number of Kleinman-Bylander projectors:   16
atom: -------------------------------------------------------------------------

atom: SANKEY-TYPE ORBITALS:
atom: Selected multiple-zeta basis: split     

SPLIT: Orbitals with angular momentum L= 0

SPLIT: Basis orbitals for state 3s

SPLIT: PAO cut-off radius determined from an
SPLIT: energy shift=  0.002000 Ry

   izeta = 1
                 lambda =    1.000000
                     rc =    6.429618
                 energy =   -0.792283
                kinetic =    0.525293
    potential(screened) =   -1.317576
       potential(ionic) =   -3.744923

   izeta = 2
                 rmatch =    3.998416
              splitnorm =    0.280000
                 energy =   -0.583081
                kinetic =    1.069570
    potential(screened) =   -1.652651
       potential(ionic) =   -4.235185

SPLIT: Orbitals with angular momentum L= 1

SPLIT: Basis orbitals for state 3p

SPLIT: PAO cut-off radius determined from an
SPLIT: energy shift=  0.002000 Ry

   izeta = 1
                 lambda =    1.000000
                     rc =    8.464845
                 energy =   -0.298236
                kinetic =    0.785360
    potential(screened) =   -1.083596
       potential(ionic) =   -3.273779

   izeta = 2
                 rmatch =    4.587816
              splitnorm =    0.280000
                 energy =   -0.131871
                kinetic =    1.403687
    potential(screened) =   -1.535557
       potential(ionic) =   -4.015310

POLgen: Perturbative polarization orbital with L=  2

POLgen: Polarization orbital for state 3p

   izeta = 1
                     rc =    8.464845
                 energy =    0.321949
                kinetic =    1.055677
    potential(screened) =   -0.733728
       potential(ionic) =   -2.672950
atom: Total number of Sankey-type orbitals: 13

atm_pop: Valence configuration (for local Pseudopot. screening):
 3s( 2.00)                                                            
 3p( 2.00)                                                            
Vna: chval, zval:    4.00000   4.00000

Vna:  Cut-off radius for the neutral-atom potential:   8.464845

atom: _________________________________________________________________________

<basis_specs>
===============================================================================
H                    Z=   1    Mass=  1.0100        Charge= 0.17977+309
Lmxo=0 Lmxkb= 2    BasisType=split      Semic=F
L=0  Nsemic=0  Cnfigmx=1
          i=1  nzeta=2  polorb=1  (1s)
            splnorm:   0.62000    
               vcte:    0.0000    
               rinn:    0.0000    
               qcoe:    0.0000    
               qyuk:    0.0000    
               qwid:   0.10000E-01
                rcs:    0.0000      0.0000    
            lambdas:    1.0000      1.0000    
-------------------------------------------------------------------------------
L=0  Nkbl=1  erefs: 0.17977+309
L=1  Nkbl=1  erefs: 0.17977+309
L=2  Nkbl=1  erefs: 0.17977+309
===============================================================================
</basis_specs>

atom: Called for H                     (Z =   1)

read_vps: Pseudopotential generation method:
read_vps: ATM4.2.7  Troullier-Martins                       
Valence charge for ps generation:    1.00000

xc_check: Exchange-correlation functional:
xc_check: GGA Perdew, Burke & Ernzerhof 1996
V l=0 = -2*Zval/r beyond r=  0.0098
V l=1 = -2*Zval/r beyond r=  0.5817
V l=2 = -2*Zval/r beyond r=  1.9372
All V_l potentials equal beyond r=  1.9372
This should be close to max(r_c) in ps generation
All pots = -2*Zval/r beyond r=  1.9372

VLOCAL1: 99.0% of the norm of Vloc inside     11.567 Ry
VLOCAL1: 99.9% of the norm of Vloc inside     26.362 Ry
atom: Maximum radius for 4*pi*r*r*local-pseudopot. charge    2.25106
atom: Maximum radius for r*vlocal+2*Zval:    1.91306
GHOST: No ghost state for L =  0
GHOST: No ghost state for L =  1
GHOST: No ghost state for L =  2

KBgen: Kleinman-Bylander projectors: 
   l= 0   rc=  2.036604   el= -0.477180   Ekb= -6.081590   kbcos= -0.277285
   l= 1   rc=  2.195416   el=  0.001076   Ekb= -0.926943   kbcos= -0.034643
   l= 2   rc=  2.251056   el=  0.002010   Ekb= -0.130941   kbcos= -0.009788

KBgen: Total number of Kleinman-Bylander projectors:    9
atom: -------------------------------------------------------------------------

atom: SANKEY-TYPE ORBITALS:
atom: Selected multiple-zeta basis: split     

SPLIT: Orbitals with angular momentum L= 0

SPLIT: Basis orbitals for state 1s

SPLIT: PAO cut-off radius determined from an
SPLIT: energy shift=  0.002000 Ry

   izeta = 1
                 lambda =    1.000000
                     rc =    6.518340
                 energy =   -0.475305
                kinetic =    0.912139
    potential(screened) =   -1.387444
       potential(ionic) =   -1.907295

   izeta = 2
                 rmatch =    2.141150
              splitnorm =    0.620000
                 energy =    0.566467
                kinetic =    3.772856
    potential(screened) =   -3.206389
       potential(ionic) =   -3.759093

POLgen: Perturbative polarization orbital with L=  1

POLgen: Polarization orbital for state 1s

   izeta = 1
                     rc =    6.518340
                 energy =    0.533861
                kinetic =    1.121086
    potential(screened) =   -0.587225
       potential(ionic) =   -1.053027
atom: Total number of Sankey-type orbitals:  5

atm_pop: Valence configuration (for local Pseudopot. screening):
 1s( 1.00)                                                            
Vna: chval, zval:    1.00000   1.00000

Vna:  Cut-off radius for the neutral-atom potential:   6.518340

atom: _________________________________________________________________________

prinput: Basis input ----------------------------------------------------------

PAO.BasisType split     

%block ChemicalSpeciesLabel
    1    8 O                       # Species index, atomic number, species label
    2    7 N                       # Species index, atomic number, species label
    3   14 Si                      # Species index, atomic number, species label
    4    1 H                       # Species index, atomic number, species label
%endblock ChemicalSpeciesLabel

%block PAO.Basis                 # Define Basis set
O                     2                    # Species label, number of l-shells
 n=2   0   2                         # n, l, Nzeta 
   4.244      2.188   
   1.000      1.000   
 n=2   1   2 P   1                   # n, l, Nzeta, Polarization, NzetaPol
   5.315      2.161   
   1.000      1.000   
N                     2                    # Species label, number of l-shells
 n=2   0   2                         # n, l, Nzeta 
   4.730      2.532   
   1.000      1.000   
 n=2   1   2 P   1                   # n, l, Nzeta, Polarization, NzetaPol
   5.924      2.532   
   1.000      1.000   
Si                    2                    # Species label, number of l-shells
 n=3   0   2                         # n, l, Nzeta 
   6.430      3.998   
   1.000      1.000   
 n=3   1   2 P   1                   # n, l, Nzeta, Polarization, NzetaPol
   8.465      4.588   
   1.000      1.000   
H                     1                    # Species label, number of l-shells
 n=1   0   2 P   1                   # n, l, Nzeta, Polarization, NzetaPol
   6.518      2.141   
   1.000      1.000   
%endblock PAO.Basis

prinput: ----------------------------------------------------------------------

Dumping basis to NetCDF file O.ion.nc
Dumping basis to NetCDF file N.ion.nc
Dumping basis to NetCDF file Si.ion.nc
Dumping basis to NetCDF file H.ion.nc
coor:   Atomic-coordinates input format  =     Cartesian coordinates
coor:                                          (in Angstroms)

siesta: Atomic coordinates (Bohr) and species
siesta:      1.97217   7.44407   0.00000  1        1
siesta:     -5.74598   2.02405   0.00000  2        2
siesta:      3.88264   2.29334   0.00000  2        3
siesta:      1.88786  -3.27422   0.00000  2        4
siesta:     -4.02956  -3.42601   0.00000  2        5
siesta:      7.29471  -2.10194   0.00000  2        6
siesta:     -2.33605   2.17879   0.00000  3        7
siesta:     -1.00708  -1.77447   0.00000  3        8
siesta:      1.20122   4.48719   0.00000  3        9
siesta:      4.24276  -1.03929   0.00000  3       10
siesta:     -6.51921  -1.10297   0.00000  3       11
siesta:      5.60061   3.38449   0.00000  4       12
siesta:     -9.15684  -2.12320   0.00000  4       13
siesta:      7.57218  -4.06728   0.00000  4       14
siesta:      9.01814  -0.94924   0.00000  4       15
siesta:     -4.28099  -5.41332   0.00000  4       16
siesta:     14.60603  12.86335   0.00000  3       17
siesta:     18.20574  15.14357   0.00000  3       18
siesta:     17.26890   7.63573   0.00000  3       19
siesta:     21.19475  12.30188   0.00000  3       20
siesta:     14.71870   9.61788   0.00000  2       21
siesta:     11.69749  14.28760   0.00000  2       22
siesta:     20.39129   9.01493   0.00000  2       23
siesta:     18.56733  17.96333   0.00000  4       24
siesta:     23.99981  12.71522   0.00000  4       25
siesta:     11.48708  16.27029   0.00000  4       26
siesta:      9.93521  13.10668   0.00000  4       27
siesta:     17.24958   4.59684   0.00000  1       28
siesta:     21.85663   7.64168   0.00000  4       29

siesta: Automatic unit cell vectors (Ang):
siesta:   26.888893    0.000000    0.000000
siesta:    0.000000   21.196009    0.000000
siesta:    0.000000    0.000000    9.854683

siesta: System type = molecule  

initatomlists: Number of atoms, orbitals, and projectors:     29   297   394

siesta: ******************** Simulation parameters ****************************
siesta:
siesta: The following are some of the parameters of the simulation.
siesta: A complete list of the parameters used, including default values,
siesta: can be found in file out.fdf
siesta:
redata: Spin configuration                          = spin-orbit
redata: Number of spin components                   = 8
redata: Time-Reversal Symmetry                      = F
redata: Spin spiral                                 = F
############################################################
This spin-orbit implementation uses a local approximation.
From 4.2 and onwards the full non-local approximation is implemented
You are strongly advised to use >=4.2 versions!
############################################################
redata: Long output                                 =   F
redata: Number of Atomic Species                    =        4
redata: Charge density info will appear in .RHO file
redata: Write Mulliken Pop.                         = Atomic and Orbital charges
redata: Matel table size (NRTAB)                    =     1024
redata: Mesh Cutoff                                 =   340.0000 Ry
redata: Net charge of the system                    =     0.0000 |e|
redata: Min. number of SCF Iter                     =        1
redata: Max. number of SCF Iter                     =      200
redata: SCF mix quantity                            = Hamiltonian
redata: Mix DM or H after convergence               =   F
redata: Recompute H after scf cycle                 =   F
redata: Mix DM in first SCF step                    =   T
redata: Write Pulay info on disk                    =   F
redata: New DM Occupancy tolerance                  = 0.000000000001
redata: No kicks to SCF
redata: DM Mixing Weight for Kicks                  =     0.5000
redata: Require Harris convergence for SCF          =   F
redata: Harris energy tolerance for SCF             =     0.000100 eV
redata: Require DM convergence for SCF              =   T
redata: DM tolerance for SCF                        =     0.000008
redata: Require EDM convergence for SCF             =   F
redata: EDM tolerance for SCF                       =     0.001000 eV
redata: Require H convergence for SCF               =   T
redata: Hamiltonian tolerance for SCF               =     0.000001 eV
redata: Require (free) Energy convergence for SCF   =   F
redata: (free) Energy tolerance for SCF             =     0.000100 eV
redata: Using Saved Data (generic)                  =   F
redata: Use continuation files for DM               =   F
redata: Neglect nonoverlap interactions             =   F
redata: Method of Calculation                       = Diagonalization
redata: Electronic Temperature                      =   299.9978 K
redata: Fix the spin of the system                  =   F
redata: Dynamics option                             = Single-point calculation
mix.SCF: Pulay mixing                            = Pulay
mix.SCF:    Variant                              = stable
mix.SCF:    History steps                        = 6
mix.SCF:    Linear mixing weight                 =     0.250000
mix.SCF:    Mixing weight                        =     0.250000
mix.SCF:    SVD condition                        = 0.1000E-07
mix.SCF:    Restart steps                        = 24
mix.SCF:    Restart save steps                   = 3
mix.SCF: Spin-component mixing                   all
redata: Save all siesta data in one NC              =   F
redata: ***********************************************************************

%block SCF.Mixers
  Pulay
%endblock SCF.Mixers

%block SCF.Mixer.Pulay
  # Mixing method
  method pulay
  variant stable

  # Mixing options
  weight 0.2500
  weight.linear 0.2500
  history 6
  restart 24
  restart.save 3
%endblock SCF.Mixer.Pulay

DM_history_depth set to one: no extrapolation allowed by default for geometry relaxation
Size of DM history Fstack: 1
Total number of electrons:    98.000000
Total ionic charge:    98.000000

* ProcessorY, Blocksize:    2  24


* Orbital distribution balance (max,min):    81    72


Time-reversal symmetry not used.

siesta: k-grid: Number of k-points =     1
siesta: k-grid: Cutoff (effective) =     4.927 Ang
siesta: k-grid: Supercell and displacements
siesta: k-grid:    1   0   0      0.000
siesta: k-grid:    0   1   0      0.000
siesta: k-grid:    0   0   1      0.000

diag: Algorithm                                     = ELPA-1stage
diag: Parallel over k                               =   F
diag: Use parallel 2D distribution                  =   T
diag: Parallel block-size                           = 24
diag: Parallel distribution                         =     2 x     2
diag: Used triangular part                          = Lower
diag: Absolute tolerance                            =  0.100E-15
diag: Orthogonalization factor                      =  0.100E-05
diag: Memory factor                                 =  1.0000


ts: **************************************************************
ts: Save H and S matrices                           =    F
ts: Save DM and EDM matrices                        =    F
ts: Only save the overlap matrix S                  =    F
ts: **************************************************************

************************ Begin: TS CHECKS AND WARNINGS ************************
************************ End: TS CHECKS AND WARNINGS **************************


                     ====================================
                        Single-point calculation
                     ====================================

outcoor: Atomic coordinates (Ang):                          
    1.04362488    3.93922861    0.00000000   1       1  O
   -3.04064129    1.07107817    0.00000000   2       2  N
    2.05460145    1.21358207    0.00000000   2       3  N
    0.99901410   -1.73264380    0.00000000   2       4  N
   -2.13235164   -1.81296822    0.00000000   2       5  N
    3.86019055   -1.11229818    0.00000000   2       6  N
   -1.23618322    1.15296446    0.00000000   3       7  Si
   -0.53292426   -0.93900627    0.00000000   3       8  Si
    0.63566047    2.37451677    0.00000000   3       9  Si
    2.24517024   -0.54996710    0.00000000   3      10  Si
   -3.44981666   -0.58366503    0.00000000   3      11  Si
    2.96371409    1.79099263    0.00000000   4      12  H
   -4.84559135   -1.12354966    0.00000000   4      13  H
    4.00702091   -2.15230856    0.00000000   4      14  H
    4.77219438   -0.50231816    0.00000000   4      15  H
   -2.26539909   -2.86460511    0.00000000   4      16  H
    7.72917672    6.80698979    0.00000000   3      17  Si
    9.63406069    8.01362873    0.00000000   3      18  Si
    9.13830655    4.04065482    0.00000000   3      19  Si
   11.21577684    6.50987198    0.00000000   3      20  Si
    7.78879939    5.08956222    0.00000000   2      21  N
    6.19004166    7.56066710    0.00000000   2      22  N
   10.79060181    4.77049204    0.00000000   2      23  N
    9.82540549    9.50578248    0.00000000   4      24  H
   12.70014482    6.72860280    0.00000000   4      25  H
    6.07869638    8.60986221    0.00000000   4      26  H
    5.25748395    6.93575292    0.00000000   4      27  H
    9.12807972    2.43254370    0.00000000   1      28  O
   11.56602769    4.04380048    0.00000000   4      29  H

outcell: Unit cell vectors (Ang):
       26.888893    0.000000    0.000000
        0.000000   21.196009    0.000000
        0.000000    0.000000    9.854683

outcell: Cell vector modules (Ang)   :   26.888893   21.196009    9.854683
outcell: Cell angles (23,13,12) (deg):     90.0000     90.0000     90.0000
outcell: Cell volume (Ang**3)        :   5616.5507
<dSpData1D:S at geom step 0
  <sparsity:sparsity for geom step 0
    nrows_g=297 nrows=81 sparsity=.1432 nnzs=12629, refcount: 8>
  <dData1D:(new from dSpData1D) n=12629, refcount: 1>
refcount: 1>
new_DM -- step:     1
Initializing Density Matrix...
DM filled with atomic data:
<dSpData2D:DM initialized from atoms
  <sparsity:sparsity for geom step 0
    nrows_g=297 nrows=81 sparsity=.1432 nnzs=12629, refcount: 9>
  <dData2D:DM n=12629 m=8, refcount: 1>
refcount: 1>
     spin moment: S , {S} =   56.00000   0.00000   0.00000  56.00000
No. of atoms with KB's overlaping orbs in proc 0. Max # of overlaps:      29     142

Initializing spin-orbit part of the Hamiltonian
  Adding spin-orbit effects for O 
  Adding spin-orbit effects for N 
  Adding spin-orbit effects for Si
  Adding spin-orbit effects for H 


New grid distribution:   1
           1       1:  150    1:   60    1:   30
           2       1:  150    1:   60   31:   60
           3       1:  150   61:  120    1:   30
           4       1:  150   61:  120   31:   60

InitMesh: MESH =   300 x   240 x   120 =     8640000
InitMesh: (bp) =   150 x   120 x    60 =     1080000
InitMesh: Mesh cutoff (required, used) =   340.000   344.032 Ry
ExtMesh (bp) on 0 =   250 x   164 x   142 =     5822000
New grid distribution:   2
           1      52:  150    1:   34    1:   60
           2       1:   51    1:   35    1:   60
           3      52:  150   35:  120    1:   60
           4       1:   51   36:  120    1:   60
New grid distribution:   3
           1      54:  150    1:   38    1:   60
           2       1:   53    1:   39    1:   60
           3      54:  150   39:  120    1:   60
           4       1:   53   40:  120    1:   60
Setting up quadratic distribution...
ExtMesh (bp) on 0 =   199 x   138 x   172 =     4723464
PhiOnMesh: Number of (b)points on node 0 =               201960
PhiOnMesh: nlist on node 0 =              2396142

stepf: Fermi-Dirac step function

siesta: Program's energy decomposition (eV):
siesta: Ebs     =      -622.519119
siesta: Eions   =      3585.165840
siesta: Ena     =       382.019161
siesta: Ekin    =      3369.306975
siesta: Enl     =     -3297.898104
siesta: Eso     =        -0.003411
siesta: Edftu   =         0.000000
siesta: DEna    =       153.684485
siesta: DUscf   =        81.838794
siesta: DUext   =         0.000000
siesta: Exc     =     -1204.020812
siesta: eta*DQ  =         0.000000
siesta: Emadel  =         0.000000
siesta: Emeta   =         0.000000
siesta: Emolmec =         0.000000
siesta: Ekinion =         0.000000
siesta: Eharris =     -4020.363069
siesta: Etot    =     -4100.238752
siesta: FreeEng =     -4100.240175

        iscf     Eharris(eV)        E_KS(eV)     FreeEng(eV)     dDmax    Ef(eV) dHmax(eV)
   scf:    1    -4020.363069    -4100.238752    -4100.240175  0.964993 -4.904572 21.834412
     spin moment: S , {S} =    2.00725  -0.00000   0.00000   2.00725
timer: Routine,Calls,Time,% = IterSCF        1      12.067  17.48
   scf:    2    -4146.944726    -4135.701765    -4135.703527  0.450790 -4.227484 11.750906
     spin moment: S , {S} =    1.98938   0.00000   0.00000   1.98938
   scf:    3    -4106.889368    -4133.130890    -4133.146634  0.421385 -4.336968 12.035937
     spin moment: S , {S} =    2.10648  -0.00000  -0.00000   2.10648
   scf:    4    -4149.533850    -4144.804791    -4144.804791  0.316643 -3.904921  7.151898
     spin moment: S , {S} =    0.00010  -0.00000  -0.00000   0.00010
   scf:    5    -4146.151487    -4145.583810    -4145.583810  0.036512 -3.713498  4.564440
     spin moment: S , {S} =    0.00006  -0.00000  -0.00000   0.00006
   scf:    6    -4146.358172    -4145.980477    -4145.980477  0.024317 -3.588436  2.228903
     spin moment: S , {S} =    0.00003   0.00000   0.00000   0.00003
   scf:    7    -4146.335566    -4146.154452    -4146.154452  0.021528 -3.804205  0.884896
     spin moment: S , {S} =    0.00001  -0.00000  -0.00000   0.00001
   scf:    8    -4146.273889    -4146.212178    -4146.212178  0.012313 -3.734093  0.504967
     spin moment: S , {S} =    0.00000  -0.00000  -0.00000   0.00000
   scf:    9    -4146.250689    -4146.230749    -4146.230749  0.006512 -3.690660  0.382546
     spin moment: S , {S} =    0.00000  -0.00000  -0.00000   0.00000
   scf:   10    -4146.282351    -4146.250165    -4146.250165  0.021759 -3.795469  0.232921
     spin moment: S , {S} =    0.00000   0.00000   0.00000  -0.00000
   scf:   11    -4146.253963    -4146.252067    -4146.252067  0.005653 -3.784086  0.061712
     spin moment: S , {S} =    0.00000   0.00000   0.00000  -0.00000
   scf:   12    -4146.253214    -4146.252654    -4146.252654  0.000978 -3.779559  0.027370
     spin moment: S , {S} =    0.00000   0.00000   0.00000  -0.00000
   scf:   13    -4146.253137    -4146.252892    -4146.252892  0.001245 -3.776629  0.017941
     spin moment: S , {S} =    0.00000   0.00000   0.00000  -0.00000
   scf:   14    -4146.253151    -4146.253015    -4146.253015  0.000996 -3.776290  0.010607
     spin moment: S , {S} =    0.00000   0.00000   0.00000  -0.00000
   scf:   15    -4146.253116    -4146.253062    -4146.253062  0.000835 -3.775390  0.007946
     spin moment: S , {S} =    0.00000   0.00000   0.00000   0.00000
   scf:   16    -4146.253134    -4146.253094    -4146.253094  0.000931 -3.774767  0.005477
     spin moment: S , {S} =    0.00000   0.00000   0.00000   0.00000
   scf:   17    -4146.253110    -4146.253101    -4146.253101  0.000399 -3.774713  0.004162
     spin moment: S , {S} =    0.00000   0.00000   0.00000   0.00000
   scf:   18    -4146.253110    -4146.253105    -4146.253105  0.000331 -3.774923  0.002574
     spin moment: S , {S} =    0.00000   0.00000   0.00000   0.00000
   scf:   19    -4146.253110    -4146.253107    -4146.253107  0.000236 -3.775074  0.001740
     spin moment: S , {S} =    0.00000   0.00000   0.00000   0.00000
   scf:   20    -4146.253109    -4146.253108    -4146.253108  0.000171 -3.775082  0.001102
     spin moment: S , {S} =    0.00000   0.00000   0.00000   0.00000
   scf:   21    -4146.253110    -4146.253109    -4146.253109  0.000180 -3.775055  0.000461
     spin moment: S , {S} =    0.00000   0.00000   0.00000   0.00000
   scf:   22    -4146.253109    -4146.253109    -4146.253109  0.000083 -3.775023  0.000194
     spin moment: S , {S} =    0.00000   0.00000   0.00000   0.00000
   scf:   23    -4146.253109    -4146.253109    -4146.253109  0.000021 -3.775022  0.000144
     spin moment: S , {S} =    0.00000   0.00000   0.00000   0.00000
   scf:   24    -4146.253109    -4146.253109    -4146.253109  0.000008 -3.775026  0.000069
     spin moment: S , {S} =    0.00000   0.00000   0.00000   0.00000
mix: Pulay -- resetting history
   scf:   25    -4146.253109    -4146.253109    -4146.253109  0.000004 -3.775029  0.000038
     spin moment: S , {S} =    0.00000   0.00000   0.00000   0.00000
   scf:   26    -4146.253109    -4146.253109    -4146.253109  0.000002 -3.775029  0.000030
     spin moment: S , {S} =    0.00000   0.00000   0.00000   0.00000
   scf:   27    -4146.253109    -4146.253109    -4146.253109  0.000002 -3.775026  0.000016
     spin moment: S , {S} =    0.00000   0.00000   0.00000   0.00000
   scf:   28    -4146.253109    -4146.253109    -4146.253109  0.000001 -3.775025  0.000010
     spin moment: S , {S} =    0.00000   0.00000   0.00000   0.00000
   scf:   29    -4146.253109    -4146.253109    -4146.253109  0.000001 -3.775024  0.000006
     spin moment: S , {S} =    0.00000   0.00000   0.00000  -0.00000
   scf:   30    -4146.253109    -4146.253109    -4146.253109  0.000001 -3.775024  0.000003
     spin moment: S , {S} =    0.00000   0.00000   0.00000  -0.00000
   scf:   31    -4146.253109    -4146.253109    -4146.253109  0.000000 -3.775024  0.000002
     spin moment: S , {S} =    0.00000   0.00000   0.00000  -0.00000
   scf:   32    -4146.253109    -4146.253109    -4146.253109  0.000000 -3.775024  0.000001
     spin moment: S , {S} =    0.00000   0.00000   0.00000  -0.00000
   scf:   33    -4146.253109    -4146.253109    -4146.253109  0.000000 -3.775025  0.000001
     spin moment: S , {S} =    0.00000   0.00000   0.00000  -0.00000

SCF Convergence by DM+H criterion
max |DM_out - DM_in|         :     0.0000001357
max |H_out - H_in|      (eV) :     0.0000006149
SCF cycle converged after 33 iterations

Using DM_out to compute the final energy and forces
No. of atoms with KB's overlaping orbs in proc 0. Max # of overlaps:      29     142

siesta: E_KS(eV) =            -4146.2531

siesta: E_KS - E_eggbox =     -4146.2531
     spin moment: S , {S} =    0.00000   0.00000   0.00000  -0.00000

siesta: Atomic forces (eV/Ang):
     1    3.356177    2.081266    0.000000
     2    0.045855    0.060175   -0.000000
     3    0.783293   -0.424788    0.000000
     4    0.770220   -0.015884    0.000000
     5    0.057418   -0.098472    0.000000
     6    1.827877    0.656894    0.000000
     7    0.041614   -0.263919    0.000000
     8   -0.435673    0.301619   -0.000000
     9   -0.204841    1.311157    0.000000
    10   -1.084076    0.371387   -0.000000
    11   -0.025212   -0.019974    0.000000
    12   -0.393056   -0.294289    0.000000
    13    0.045869   -0.084972    0.000000
    14    0.238631   -0.050822   -0.000000
    15   -1.378408   -0.943617    0.000000
    16   -0.036247    0.146695    0.000000
    17    1.061116   -1.144209    0.000000
    18   -0.225145    0.205156    0.000000
    19   -0.197417   -1.306809   -0.000000
    20   -0.012478   -0.436886   -0.000000
    21   -0.329839    1.080832    0.000000
    22   -2.227000   -0.887495   -0.000000
    23    0.268637    0.570678    0.000000
    24    0.120458   -0.017571   -0.000000
    25    0.133303   -0.015181   -0.000000
    26   -0.237337   -0.189090    0.000000
    27    1.698256    1.385161    0.000000
    28    3.723888    0.989386   -0.000000
    29   -0.082292    0.209713    0.000000
----------------------------------------
   Tot    7.303591    3.176141    0.000000
----------------------------------------
   Max    3.723888
   Res    0.823766    sqrt( Sum f_i^2 / 3N )
----------------------------------------
   Max    3.723888    constrained

Stress tensor Voigt[x,y,z,yz,xz,xy] (kbar):        0.06        1.62       -0.08        0.00       -0.00        1.33
(Free)E + p*V (eV/cell)    -4148.1225
Target enthalpy (eV/cell)    -4146.2531

mulliken: Atomic and Orbital Populations:

Species: O                   

Atom      Orb        Charge      Spin       Svec
----------------------------------------------------------------
    1  1 2s         1.75434   0.00000      0.000  -0.000  -0.000
    1  2 2s         0.06012   0.00000     -0.000   0.000   0.000
    1  3 2py        1.42648   0.00000     -0.000   0.000  -0.000
    1  4 2pz        1.54359   0.00000     -0.000  -0.000  -0.000
    1  5 2px        1.62495   0.00000     -0.000  -0.000  -0.000
    1  6 2py        0.03908   0.00000      0.000  -0.000   0.000
    1  7 2pz       -0.00636   0.00000     -0.000   0.000   0.000
    1  8 2px        0.00659   0.00000      0.000   0.000   0.000
    1  9 3Pdxy      0.00707   0.00000      0.000   0.000   0.000
    1 10 3Pdyz      0.00909   0.00000      0.000   0.000   0.000
    1 11 3Pdz2      0.00161   0.00000     -0.000   0.000  -0.000
    1 12 3Pdxz      0.00038   0.00000     -0.000   0.000   0.000
    1 13 3Pdx2-y2   0.00699   0.00000      0.000  -0.000   0.000
    1     Total     6.47392   0.00000     -0.000  -0.000  -0.000

   28  1 2s         1.74687   0.00000      0.000  -0.000   0.000
   28  2 2s         0.06646   0.00000     -0.000   0.000  -0.000
   28  3 2py        1.40821   0.00000     -0.000  -0.000  -0.000
   28  4 2pz        1.54323   0.00000      0.000  -0.000  -0.000
   28  5 2px        1.64534   0.00000      0.000   0.000  -0.000
   28  6 2py        0.04207   0.00000     -0.000  -0.000   0.000
   28  7 2pz       -0.00449   0.00000     -0.000  -0.000  -0.000
   28  8 2px        0.00976   0.00000     -0.000  -0.000   0.000
   28  9 3Pdxy      0.00645   0.00000      0.000  -0.000   0.000
   28 10 3Pdyz      0.00976   0.00000     -0.000   0.000  -0.000
   28 11 3Pdz2      0.00126   0.00000      0.000   0.000   0.000
   28 12 3Pdxz     -0.00018   0.00000     -0.000  -0.000   0.000
   28 13 3Pdx2-y2   0.00772   0.00000      0.000  -0.000  -0.000
   28     Total     6.48245   0.00000      0.000  -0.000  -0.000

----------------------------------------------------------------
Total              12.95637   0.00000      0.000  -0.000  -0.000


Species: N                   

Atom      Orb        Charge      Spin       Svec
----------------------------------------------------------------
    2  1 2s         1.55134   0.00000     -0.000  -0.000  -0.000
    2  2 2s         0.08418   0.00000      0.000   0.000   0.000
    2  3 2py        1.04377   0.00000     -0.000  -0.000  -0.000
    2  4 2pz        1.22419   0.00000     -0.000  -0.000  -0.000
    2  5 2px        0.98956   0.00000     -0.000  -0.000  -0.000
    2  6 2py        0.18847   0.00000     -0.000  -0.000   0.000
    2  7 2pz        0.05540   0.00000      0.000   0.000   0.000
    2  8 2px        0.19590   0.00000      0.000  -0.000   0.000
    2  9 3Pdxy      0.00839   0.00000     -0.000   0.000   0.000
    2 10 3Pdyz      0.01099   0.00000     -0.000  -0.000   0.000
    2 11 3Pdz2      0.00195   0.00000     -0.000  -0.000   0.000
    2 12 3Pdxz      0.00758   0.00000      0.000   0.000   0.000
    2 13 3Pdx2-y2   0.00909   0.00000      0.000  -0.000  -0.000
    2     Total     5.37081   0.00000     -0.000  -0.000  -0.000

    3  1 2s         1.40078   0.00000     -0.000   0.000  -0.000
    3  2 2s         0.11636   0.00000      0.000  -0.000   0.000
    3  3 2py        0.94153   0.00000     -0.000   0.000  -0.000
    3  4 2pz        1.54359   0.00000     -0.000   0.000  -0.000
    3  5 2px        1.08177   0.00000      0.000   0.000  -0.000
    3  6 2py        0.24855   0.00000      0.000  -0.000   0.000
    3  7 2pz        0.00725   0.00000      0.000  -0.000   0.000
    3  8 2px        0.17858   0.00000     -0.000   0.000   0.000
    3  9 3Pdxy      0.00399   0.00000     -0.000  -0.000   0.000
    3 10 3Pdyz      0.00418   0.00000      0.000  -0.000   0.000
    3 11 3Pdz2      0.00075   0.00000     -0.000   0.000   0.000
    3 12 3Pdxz      0.00279   0.00000      0.000   0.000  -0.000
    3 13 3Pdx2-y2   0.00283   0.00000     -0.000  -0.000  -0.000
    3     Total     5.53295   0.00000     -0.000   0.000  -0.000

    4  1 2s         1.45981   0.00000     -0.000   0.000  -0.000
    4  2 2s         0.11891   0.00000      0.000  -0.000   0.000
    4  3 2py        1.13092   0.00000      0.000   0.000  -0.000
    4  4 2pz        1.29467   0.00000     -0.000   0.000  -0.000
    4  5 2px        0.82596   0.00000     -0.000   0.000  -0.000
    4  6 2py        0.14951   0.00000      0.000  -0.000   0.000
    4  7 2pz        0.05361   0.00000      0.000  -0.000   0.000
    4  8 2px        0.29229   0.00000     -0.000  -0.000   0.000
    4  9 3Pdxy      0.00869   0.00000     -0.000   0.000   0.000
    4 10 3Pdyz      0.01045   0.00000     -0.000  -0.000   0.000
    4 11 3Pdz2      0.00126   0.00000     -0.000  -0.000  -0.000
    4 12 3Pdxz      0.00498   0.00000      0.000   0.000  -0.000
    4 13 3Pdx2-y2   0.00797   0.00000      0.000   0.000  -0.000
    4     Total     5.35904   0.00000     -0.000   0.000  -0.000

    5  1 2s         1.37628   0.00000     -0.000  -0.000  -0.000
    5  2 2s         0.12792   0.00000      0.000   0.000   0.000
    5  3 2py        1.02644   0.00000      0.000  -0.000  -0.000
    5  4 2pz        1.50086   0.00000      0.000   0.000  -0.000
    5  5 2px        1.06001   0.00000     -0.000  -0.000  -0.000
    5  6 2py        0.20356   0.00000      0.000   0.000   0.000
    5  7 2pz        0.01341   0.00000     -0.000  -0.000   0.000
    5  8 2px        0.20095   0.00000      0.000  -0.000   0.000
    5  9 3Pdxy      0.00393   0.00000     -0.000  -0.000   0.000
    5 10 3Pdyz      0.00241   0.00000      0.000   0.000   0.000
    5 11 3Pdz2      0.00143   0.00000      0.000   0.000   0.000
    5 12 3Pdxz      0.00685   0.00000     -0.000  -0.000   0.000
    5 13 3Pdx2-y2   0.00560   0.00000     -0.000  -0.000   0.000
    5     Total     5.52964   0.00000      0.000   0.000  -0.000

    6  1 2s         1.26980   0.00000     -0.000   0.000  -0.000
    6  2 2s         0.17907   0.00000      0.000  -0.000   0.000
    6  3 2py        1.07695   0.00000     -0.000  -0.000  -0.000
    6  4 2pz        1.57414   0.00000      0.000   0.000  -0.000
    6  5 2px        0.95586   0.00000     -0.000   0.000  -0.000
    6  6 2py        0.18789   0.00000      0.000   0.000   0.000
    6  7 2pz        0.02987   0.00000      0.000  -0.000   0.000
    6  8 2px        0.25562   0.00000     -0.000  -0.000   0.000
    6  9 3Pdxy      0.00246   0.00000      0.000  -0.000   0.000
    6 10 3Pdyz      0.00016   0.00000      0.000  -0.000  -0.000
    6 11 3Pdz2      0.00177   0.00000     -0.000   0.000   0.000
    6 12 3Pdxz      0.00326   0.00000      0.000   0.000   0.000
    6 13 3Pdx2-y2   0.00396   0.00000     -0.000  -0.000  -0.000
    6     Total     5.54081   0.00000     -0.000   0.000  -0.000

   21  1 2s         1.42436   0.00000      0.000  -0.000   0.000
   21  2 2s         0.12796   0.00000     -0.000   0.000  -0.000
   21  3 2py        0.87113   0.00000      0.000   0.000  -0.000
   21  4 2pz        1.29443   0.00000      0.000  -0.000  -0.000
   21  5 2px        1.15648   0.00000      0.000  -0.000  -0.000
   21  6 2py        0.27563   0.00000     -0.000  -0.000   0.000
   21  7 2pz        0.04898   0.00000     -0.000   0.000   0.000
   21  8 2px        0.16321   0.00000     -0.000   0.000   0.000
   21  9 3Pdxy      0.00649   0.00000      0.000  -0.000   0.000
   21 10 3Pdyz      0.00508   0.00000      0.000   0.000  -0.000
   21 11 3Pdz2      0.00017   0.00000     -0.000   0.000  -0.000
   21 12 3Pdxz      0.00576   0.00000      0.000  -0.000  -0.000
   21 13 3Pdx2-y2   0.00561   0.00000     -0.000   0.000  -0.000
   21     Total     5.38530   0.00000      0.000  -0.000  -0.000

   22  1 2s         1.29469   0.00000      0.000   0.000   0.000
   22  2 2s         0.16765   0.00000     -0.000  -0.000  -0.000
   22  3 2py        1.05694   0.00000     -0.000   0.000  -0.000
   22  4 2pz        1.55747   0.00000      0.000   0.000  -0.000
   22  5 2px        0.98304   0.00000      0.000   0.000  -0.000
   22  6 2py        0.19645   0.00000      0.000  -0.000  -0.000
   22  7 2pz        0.02828   0.00000      0.000  -0.000  -0.000
   22  8 2px        0.23489   0.00000     -0.000  -0.000   0.000
   22  9 3Pdxy      0.00331   0.00000     -0.000  -0.000   0.000
   22 10 3Pdyz      0.00035   0.00000      0.000   0.000   0.000
   22 11 3Pdz2      0.00256   0.00000     -0.000  -0.000  -0.000
   22 12 3Pdxz      0.00316   0.00000      0.000   0.000   0.000
   22 13 3Pdx2-y2   0.00477   0.00000      0.000  -0.000  -0.000
   22     Total     5.53356   0.00000      0.000   0.000  -0.000

   23  1 2s         1.39710   0.00000     -0.000   0.000  -0.000
   23  2 2s         0.11793   0.00000      0.000  -0.000  -0.000
   23  3 2py        1.00674   0.00000      0.000   0.000  -0.000
   23  4 2pz        1.52458   0.00000     -0.000   0.000  -0.000
   23  5 2px        1.06487   0.00000      0.000  -0.000  -0.000
   23  6 2py        0.21161   0.00000     -0.000  -0.000   0.000
   23  7 2pz        0.00497   0.00000      0.000  -0.000   0.000
   23  8 2px        0.19805   0.00000     -0.000   0.000   0.000
   23  9 3Pdxy      0.00528   0.00000      0.000  -0.000   0.000
   23 10 3Pdyz      0.00445   0.00000      0.000   0.000  -0.000
   23 11 3Pdz2      0.00060   0.00000     -0.000   0.000   0.000
   23 12 3Pdxz      0.00243   0.00000     -0.000   0.000  -0.000
   23 13 3Pdx2-y2   0.00137   0.00000     -0.000  -0.000  -0.000
   23     Total     5.54000   0.00000      0.000   0.000  -0.000

----------------------------------------------------------------
Total              56.74848   0.00000      0.000   0.000  -0.000


Species: Si                  

Atom      Orb        Charge      Spin       Svec
----------------------------------------------------------------
    7  1 3s         0.66774   0.00000     -0.000  -0.000   0.000
    7  2 3s         0.36498   0.00000      0.000   0.000   0.000
    7  3 3py        0.48794   0.00000      0.000   0.000   0.000
    7  4 3pz        0.69038   0.00000     -0.000  -0.000  -0.000
    7  5 3px        0.12490   0.00000      0.000   0.000  -0.000
    7  6 3py        0.26456   0.00000     -0.000  -0.000   0.000
    7  7 3pz        0.25912   0.00000      0.000   0.000   0.000
    7  8 3px        0.43839   0.00000     -0.000  -0.000   0.000
    7  9 3Pdxy      0.24565   0.00000     -0.000   0.000   0.000
    7 10 3Pdyz      0.02940   0.00000     -0.000   0.000   0.000
    7 11 3Pdz2      0.01175   0.00000      0.000   0.000   0.000
    7 12 3Pdxz      0.14563   0.00000     -0.000  -0.000  -0.000
    7 13 3Pdx2-y2   0.11293   0.00000     -0.000  -0.000   0.000
    7     Total     3.84335   0.00000     -0.000   0.000   0.000

    8  1 3s         0.65681   0.00000      0.000  -0.000  -0.000
    8  2 3s         0.36851   0.00000     -0.000   0.000   0.000
    8  3 3py        0.38795   0.00000     -0.000   0.000   0.000
    8  4 3pz        0.52600   0.00000      0.000  -0.000  -0.000
    8  5 3px       -0.03081   0.00000      0.000   0.000  -0.000
    8  6 3py        0.30890   0.00000      0.000  -0.000   0.000
    8  7 3pz        0.20191   0.00000      0.000   0.000   0.000
    8  8 3px        0.51461   0.00000     -0.000  -0.000   0.000
    8  9 3Pdxy      0.24588   0.00000     -0.000  -0.000   0.000
    8 10 3Pdyz      0.11217   0.00000      0.000   0.000  -0.000
    8 11 3Pdz2      0.01453   0.00000      0.000   0.000   0.000
    8 12 3Pdxz      0.15322   0.00000      0.000   0.000   0.000
    8 13 3Pdx2-y2   0.20021   0.00000      0.000   0.000   0.000
    8     Total     3.65990   0.00000      0.000   0.000   0.000

    9  1 3s         0.60403   0.00000     -0.000   0.000   0.000
    9  2 3s         0.36629   0.00000      0.000  -0.000  -0.000
    9  3 3py        0.07543   0.00000     -0.000   0.000   0.000
    9  4 3pz        0.48501   0.00000      0.000  -0.000  -0.000
    9  5 3px        0.37816   0.00000     -0.000  -0.000  -0.000
    9  6 3py        0.44723   0.00000      0.000   0.000  -0.000
    9  7 3pz        0.18753   0.00000     -0.000   0.000  -0.000
    9  8 3px        0.27357   0.00000      0.000  -0.000   0.000
    9  9 3Pdxy      0.31194   0.00000      0.000  -0.000   0.000
    9 10 3Pdyz      0.18994   0.00000     -0.000   0.000  -0.000
    9 11 3Pdz2      0.01640   0.00000      0.000   0.000  -0.000
    9 12 3Pdxz      0.09709   0.00000     -0.000   0.000  -0.000
    9 13 3Pdx2-y2   0.17189   0.00000      0.000  -0.000   0.000
    9     Total     3.60452   0.00000     -0.000  -0.000  -0.000

   10  1 3s         0.48314   0.00000     -0.000  -0.000   0.000
   10  2 3s         0.37750   0.00000      0.000   0.000   0.000
   10  3 3py        0.24178   0.00000      0.000  -0.000   0.000
   10  4 3pz        0.40915   0.00000      0.000  -0.000   0.000
   10  5 3px        0.10115   0.00000      0.000   0.000   0.000
   10  6 3py        0.32761   0.00000     -0.000  -0.000   0.000
   10  7 3pz        0.22242   0.00000     -0.000   0.000   0.000
   10  8 3px        0.42863   0.00000     -0.000   0.000   0.000
   10  9 3Pdxy      0.16947   0.00000     -0.000   0.000   0.000
   10 10 3Pdyz      0.14021   0.00000      0.000   0.000   0.000
   10 11 3Pdz2      0.01038   0.00000      0.000  -0.000   0.000
   10 12 3Pdxz      0.17464   0.00000     -0.000   0.000   0.000
   10 13 3Pdx2-y2   0.31023   0.00000     -0.000  -0.000   0.000
   10     Total     3.39631   0.00000      0.000  -0.000   0.000

   11  1 3s         0.55263   0.00000      0.000   0.000   0.000
   11  2 3s         0.38541   0.00000     -0.000  -0.000   0.000
   11  3 3py        0.32160   0.00000     -0.000  -0.000   0.000
   11  4 3pz        0.54003   0.00000     -0.000  -0.000   0.000
   11  5 3px        0.12391   0.00000      0.000  -0.000   0.000
   11  6 3py        0.28688   0.00000      0.000   0.000   0.000
   11  7 3pz        0.17760   0.00000      0.000  -0.000   0.000
   11  8 3px        0.44671   0.00000     -0.000   0.000   0.000
   11  9 3Pdxy      0.22530   0.00000      0.000   0.000   0.000
   11 10 3Pdyz      0.12623   0.00000     -0.000  -0.000   0.000
   11 11 3Pdz2      0.00957   0.00000     -0.000  -0.000   0.000
   11 12 3Pdxz      0.05270   0.00000      0.000   0.000   0.000
   11 13 3Pdx2-y2   0.20376   0.00000     -0.000  -0.000   0.000
   11     Total     3.45231   0.00000     -0.000  -0.000   0.000

   17  1 3s         0.63963   0.00000     -0.000   0.000   0.000
   17  2 3s         0.36049   0.00000      0.000  -0.000   0.000
   17  3 3py        0.22793   0.00000      0.000  -0.000   0.000
   17  4 3pz        0.42372   0.00000     -0.000  -0.000   0.000
   17  5 3px        0.24481   0.00000      0.000   0.000   0.000
   17  6 3py        0.38767   0.00000     -0.000   0.000  -0.000
   17  7 3pz        0.21118   0.00000      0.000  -0.000   0.000
   17  8 3px        0.36842   0.00000     -0.000  -0.000  -0.000
   17  9 3Pdxy      0.30200   0.00000      0.000  -0.000   0.000
   17 10 3Pdyz      0.14302   0.00000     -0.000  -0.000   0.000
   17 11 3Pdz2      0.00909   0.00000      0.000   0.000   0.000
   17 12 3Pdxz      0.14326   0.00000     -0.000  -0.000   0.000
   17 13 3Pdx2-y2   0.16336   0.00000     -0.000   0.000  -0.000
   17     Total     3.62457   0.00000     -0.000  -0.000   0.000

   18  1 3s         0.74449   0.00000     -0.000  -0.000   0.000
   18  2 3s         0.33937   0.00000      0.000   0.000   0.000
   18  3 3py        0.07969   0.00000      0.000  -0.000   0.000
   18  4 3pz        0.82262   0.00000     -0.000  -0.000   0.000
   18  5 3px        0.55518   0.00000     -0.000   0.000   0.000
   18  6 3py        0.51787   0.00000     -0.000   0.000   0.000
   18  7 3pz        0.19757   0.00000      0.000   0.000   0.000
   18  8 3px        0.25013   0.00000      0.000  -0.000   0.000
   18  9 3Pdxy      0.10338   0.00000      0.000   0.000   0.000
   18 10 3Pdyz      0.02742   0.00000      0.000  -0.000  -0.000
   18 11 3Pdz2      0.00874   0.00000     -0.000   0.000  -0.000
   18 12 3Pdxz      0.03022   0.00000     -0.000  -0.000  -0.000
   18 13 3Pdx2-y2   0.11314   0.00000     -0.000   0.000   0.000
   18     Total     3.78983   0.00000     -0.000  -0.000   0.000

   19  1 3s         0.45947   0.00000     -0.000   0.000   0.000
   19  2 3s         0.36523   0.00000      0.000  -0.000  -0.000
   19  3 3py        0.08269   0.00000      0.000   0.000   0.000
   19  4 3pz        0.42900   0.00000     -0.000   0.000   0.000
   19  5 3px        0.35632   0.00000     -0.000  -0.000   0.000
   19  6 3py        0.47033   0.00000     -0.000   0.000  -0.000
   19  7 3pz        0.18297   0.00000      0.000   0.000  -0.000
   19  8 3px        0.23886   0.00000      0.000  -0.000  -0.000
   19  9 3Pdxy      0.34192   0.00000     -0.000  -0.000  -0.000
   19 10 3Pdyz      0.18830   0.00000      0.000   0.000   0.000
   19 11 3Pdz2      0.01601   0.00000      0.000   0.000   0.000
   19 12 3Pdxz      0.08756   0.00000     -0.000   0.000   0.000
   19 13 3Pdx2-y2   0.23704   0.00000     -0.000   0.000   0.000
   19     Total     3.45572   0.00000     -0.000   0.000   0.000

   20  1 3s         0.67337   0.00000     -0.000  -0.000  -0.000
   20  2 3s         0.37802   0.00000      0.000   0.000   0.000
   20  3 3py        0.33111   0.00000     -0.000   0.000  -0.000
   20  4 3pz        0.58990   0.00000     -0.000   0.000  -0.000
   20  5 3px        0.13797   0.00000     -0.000  -0.000  -0.000
   20  6 3py        0.29220   0.00000      0.000  -0.000   0.000
   20  7 3pz        0.16384   0.00000      0.000   0.000  -0.000
   20  8 3px        0.49982   0.00000      0.000   0.000   0.000
   20  9 3Pdxy      0.10032   0.00000      0.000  -0.000  -0.000
   20 10 3Pdyz      0.13383   0.00000      0.000   0.000  -0.000
   20 11 3Pdz2      0.00736   0.00000      0.000  -0.000   0.000
   20 12 3Pdxz      0.02697   0.00000     -0.000   0.000  -0.000
   20 13 3Pdx2-y2   0.17202   0.00000      0.000   0.000   0.000
   20     Total     3.50672   0.00000     -0.000   0.000  -0.000

----------------------------------------------------------------
Total              89.08169   0.00000     -0.000   0.000   0.000


Species: H                   

Atom      Orb        Charge      Spin       Svec
----------------------------------------------------------------
   12  1 1s         0.49735   0.00000     -0.000  -0.000  -0.000
   12  2 1s         0.18179   0.00000     -0.000  -0.000   0.000
   12  3 2Ppy       0.02910   0.00000     -0.000   0.000   0.000
   12  4 2Ppz       0.03420   0.00000     -0.000   0.000   0.000
   12  5 2Ppx       0.02279   0.00000     -0.000  -0.000   0.000
   12     Total     0.76522   0.00000     -0.000  -0.000   0.000

   13  1 1s         1.01884   0.00000      0.000   0.000  -0.000
   13  2 1s         0.09551   0.00000     -0.000  -0.000   0.000
   13  3 2Ppy       0.01808   0.00000     -0.000   0.000   0.000
   13  4 2Ppz       0.02006   0.00000      0.000   0.000   0.000
   13  5 2Ppx       0.03516   0.00000     -0.000   0.000  -0.000
   13     Total     1.18765   0.00000      0.000   0.000  -0.000

   14  1 1s         0.46030   0.00000      0.000   0.000   0.000
   14  2 1s         0.19993   0.00000     -0.000  -0.000   0.000
   14  3 2Ppy       0.01790   0.00000      0.000  -0.000   0.000
   14  4 2Ppz       0.04542   0.00000      0.000  -0.000   0.000
   14  5 2Ppx       0.01714   0.00000     -0.000  -0.000  -0.000
   14     Total     0.74068   0.00000      0.000  -0.000   0.000

   15  1 1s         0.49825   0.00000      0.000  -0.000  -0.000
   15  2 1s         0.17838   0.00000     -0.000   0.000  -0.000
   15  3 2Ppy       0.00511   0.00000     -0.000  -0.000   0.000
   15  4 2Ppz       0.04279   0.00000      0.000  -0.000  -0.000
   15  5 2Ppx       0.02800   0.00000      0.000  -0.000  -0.000
   15     Total     0.75254   0.00000      0.000  -0.000  -0.000

   16  1 1s         0.50996   0.00000     -0.000  -0.000   0.000
   16  2 1s         0.18720   0.00000      0.000   0.000   0.000
   16  3 2Ppy       0.02980   0.00000     -0.000   0.000  -0.000
   16  4 2Ppz       0.03982   0.00000     -0.000  -0.000  -0.000
   16  5 2Ppx       0.02359   0.00000     -0.000  -0.000  -0.000
   16     Total     0.79037   0.00000     -0.000  -0.000   0.000

   24  1 1s         1.06337   0.00000     -0.000  -0.000  -0.000
   24  2 1s         0.07419   0.00000     -0.000   0.000   0.000
   24  3 2Ppy       0.03208   0.00000      0.000   0.000   0.000
   24  4 2Ppz       0.03074   0.00000     -0.000  -0.000   0.000
   24  5 2Ppx       0.01729   0.00000      0.000  -0.000  -0.000
   24     Total     1.21768   0.00000     -0.000  -0.000  -0.000

   25  1 1s         1.04307   0.00000      0.000  -0.000  -0.000
   25  2 1s         0.08654   0.00000     -0.000   0.000  -0.000
   25  3 2Ppy       0.01227   0.00000     -0.000   0.000  -0.000
   25  4 2Ppz       0.01846   0.00000     -0.000   0.000  -0.000
   25  5 2Ppx       0.03569   0.00000      0.000  -0.000   0.000
   25     Total     1.19602   0.00000      0.000  -0.000  -0.000

   26  1 1s         0.47517   0.00000      0.000  -0.000  -0.000
   26  2 1s         0.19611   0.00000     -0.000   0.000   0.000
   26  3 2Ppy       0.02097   0.00000     -0.000  -0.000   0.000
   26  4 2Ppz       0.04905   0.00000     -0.000   0.000  -0.000
   26  5 2Ppx       0.01607   0.00000      0.000  -0.000   0.000
   26     Total     0.75737   0.00000     -0.000   0.000  -0.000

   27  1 1s         0.51285   0.00000     -0.000  -0.000  -0.000
   27  2 1s         0.16885   0.00000     -0.000   0.000  -0.000
   27  3 2Ppy       0.00663   0.00000      0.000  -0.000  -0.000
   27  4 2Ppz       0.03784   0.00000      0.000  -0.000  -0.000
   27  5 2Ppx       0.02847   0.00000     -0.000  -0.000   0.000
   27     Total     0.75464   0.00000     -0.000  -0.000  -0.000

   29  1 1s         0.48489   0.00000     -0.000   0.000   0.000
   29  2 1s         0.18769   0.00000      0.000   0.000   0.000
   29  3 2Ppy       0.02515   0.00000     -0.000  -0.000  -0.000
   29  4 2Ppz       0.03424   0.00000      0.000  -0.000  -0.000
   29  5 2Ppx       0.02415   0.00000     -0.000   0.000  -0.000
   29     Total     0.75613   0.00000     -0.000  -0.000   0.000

----------------------------------------------------------------
Total              98.00000   0.00000      0.000   0.000  -0.000


siesta: Eigenvalues (eV):
ik =     1
  -21.9366  -21.9366  -21.7673  -21.7673  -21.5874  -21.5874  -21.5663  -21.5663  -21.2489  -21.2489
  -20.9817  -20.9817  -20.8555  -20.8555  -19.8507  -19.8507  -19.3762  -19.3762  -19.3728  -19.3728
  -14.7319  -14.7319  -13.9079  -13.9079  -13.3347  -13.3347  -13.2212  -13.2212  -13.1209  -13.1209
  -12.9005  -12.9005  -12.8774  -12.8774  -12.4817  -12.4817  -12.3874  -12.3874  -12.0104  -12.0104
  -11.4819  -11.4819  -10.7909  -10.7909  -10.7792  -10.7792  -10.7309  -10.7309  -10.0742  -10.0742
   -9.5231   -9.5231   -9.2617   -9.2617   -8.8790   -8.8790   -8.7198   -8.7198   -8.6778   -8.6778
   -8.6528   -8.6528   -8.3783   -8.3783   -8.2092   -8.2092   -7.8315   -7.8315   -7.6641   -7.6641
   -7.5287   -7.5287   -7.3619   -7.3619   -7.3117   -7.3117   -6.9174   -6.9174   -6.7262   -6.7262
   -6.5350   -6.5350   -6.4788   -6.4788   -6.1169   -6.1169   -6.0914   -6.0914   -6.0663   -6.0663
   -5.6602   -5.6602   -5.6551   -5.6551   -5.4267   -5.4267   -4.3257   -4.3257   -3.2258   -3.2258
   -2.3332   -2.3332   -2.2832   -2.2832   -2.2623   -2.2623   -1.9028   -1.9028   -1.8781   -1.8781
   -1.8238   -1.8238   -1.7574   -1.7574   -1.5675   -1.5675   -1.5554   -1.5554   -0.9675   -0.9675
   -0.9632   -0.9632   -0.8417   -0.8417   -0.4023   -0.4023   -0.1509   -0.1509    0.0182    0.0182
    0.2862    0.2862    0.4190    0.4190    0.5223    0.5223    0.7192    0.7192    0.7505    0.7505
    0.9708    0.9708    1.2118    1.2118    1.3006    1.3006    1.3826    1.3826    1.4581    1.4581
    1.6633    1.6633    1.8189    1.8189    1.9109    1.9109    2.3368    2.3368    2.7269    2.7269
    2.7318    2.7318    2.8356    2.8356    3.0012    3.0012    3.1277    3.1277    3.3239    3.3239
    3.3673    3.3673    3.7633    3.7633    3.8414    3.8414    4.0975    4.0975    4.2769    4.2769
    4.4327    4.4327    4.5368    4.5368    4.5650    4.5650    4.6007    4.6007    4.8309    4.8309
    4.9582    4.9582    4.9656    4.9656    5.2250    5.2250    5.5099    5.5099    5.6545    5.6545
    5.6949    5.6949    5.7968    5.7968    5.8727    5.8727    5.9433    5.9433    5.9721    5.9721
    6.1854    6.1854    6.3192    6.3192    6.6427    6.6427    6.7174    6.7174    6.8232    6.8232
    7.0589    7.0589    7.1836    7.1836    7.3748    7.3748    7.5092    7.5092    7.7380    7.7380
    7.8094    7.8094    8.0280    8.0280    8.1019    8.1019    8.2241    8.2241    8.2742    8.2742
    8.5028    8.5028    8.6697    8.6697    8.7491    8.7491    8.9484    8.9484    9.2061    9.2061
    9.2128    9.2128    9.2456    9.2456    9.7481    9.7481    9.8080    9.8080    9.8453    9.8453
    9.9846    9.9846   10.1734   10.1734   10.4215   10.4215   10.7281   10.7281   10.8176   10.8176
   10.9119   10.9119   11.0742   11.0742   11.2149   11.2149   11.6913   11.6913   11.8232   11.8232
   11.8901   11.8901   11.9019   11.9019   12.1737   12.1737   12.3688   12.3688   12.5280   12.5280
   12.7103   12.7103   12.7498   12.7498   13.3756   13.3756   13.5128   13.5128   13.7401   13.7401
   13.7630   13.7630   14.0591   14.0591   14.2161   14.2161   14.4248   14.4248   14.8136   14.8136
   14.8667   14.8667   15.3418   15.3418   15.9799   15.9799   16.4109   16.4109   16.6815   16.6815
   16.9385   16.9385   17.3980   17.3980   17.6870   17.6870   18.2102   18.2102   18.3218   18.3218
   18.5658   18.5658   19.1080   19.1080   19.3327   19.3327   19.9378   19.9378   20.2581   20.2581
   20.8984   20.8984   21.3276   21.3276   21.7870   21.7870   22.1940   22.1940   22.4262   22.4262
   23.1096   23.1096   23.2725   23.2725   23.7650   23.7650   23.8221   23.8221   23.8564   23.8564
   24.8180   24.8181   25.1978   25.1978   26.0133   26.0133   26.7798   26.7798   27.3955   27.3955
   28.3908   28.3908   29.0886   29.0886   29.1064   29.1064   29.5031   29.5031   29.5737   29.5737
   30.0428   30.0428   30.1209   30.1209   30.2374   30.2374   30.5980   30.5980   30.7865   30.7865
   31.0109   31.0109   31.1785   31.1785   31.4769   31.4769   31.5970   31.5970   32.2471   32.2471
   32.6808   32.6808   33.8486   33.8486   34.5012   34.5012   34.7066   34.7066   34.9665   34.9665
   34.9822   34.9822   35.1284   35.1284   35.3627   35.3627   35.6545   35.6545   35.8929   35.8929
   36.7518   36.7518   36.8055   36.8055   37.0218   37.0218   37.1995   37.1995   37.5358   37.5358
   38.1690   38.1690   38.2858   38.2858   39.3556   39.3556   39.4598   39.4598   39.8919   39.8919
   40.2366   40.2366   40.5175   40.5175   40.5916   40.5916   40.6687   40.6687   40.9558   40.9558
   41.0728   41.0728   41.4694   41.4694   42.3968   42.3968   42.6413   42.6413   43.0144   43.0144
   43.1460   43.1460   43.7737   43.7737   43.8927   43.8927   44.0338   44.0338   44.2419   44.2419
   44.6706   44.6706   44.7205   44.7205   45.0510   45.0510   45.3564   45.3564   46.1083   46.1083
   46.3763   46.3763   46.8330   46.8330   47.1807   47.1807   48.6284   48.6284   48.9901   48.9901
   49.4588   49.4588   50.3209   50.3209   50.4969   50.4969   50.7195   50.7195   50.9115   50.9115
   51.3701   51.3701   51.5713   51.5713   52.6934   52.6934   52.7011   52.7011   54.1968   54.1968
   54.2987   54.2987   54.5589   54.5589   54.7487   54.7487   55.8128   55.8128   55.8618   55.8618
   55.8824   55.8824   56.0237   56.0237   56.5025   56.5025   57.8493   57.8493   58.2281   58.2281
   58.6640   58.6640   60.1439   60.1439   60.4774   60.4774   60.6051   60.6051   61.1292   61.1292
   61.8259   61.8259   62.0012   62.0012   62.2212   62.2212   64.4736   64.4736   66.4603   66.4603
   67.1462   67.1462   67.2056   67.2056   68.1537   68.1537   68.7591   68.7591   70.8371   70.8371
   74.0619   74.0619   79.9792   79.9792   91.0602   91.0602   91.9124   91.9124   93.3667   93.3667
   98.4400   98.4400   98.7373   98.7373   99.6787   99.6787  103.3903  103.3903  103.8029  103.8029
  110.1118  110.1118  111.6179  111.6179  123.6283  123.6283  125.7025  125.7025  129.9565  129.9565
  135.0283  135.0283  138.3191  138.3191
siesta: Fermi energy =      -3.775025 eV

siesta: Program's energy decomposition (eV):
siesta: Ebs     =     -1134.747839
siesta: Eions   =      3585.165840
siesta: Ena     =       382.019161
siesta: Ekin    =      2902.945471
siesta: Enl     =     -2787.752038
siesta: Eso     =        -0.004282
siesta: Edftu   =         0.000000
siesta: DEna    =        47.000357
siesta: DUscf   =        14.339401
siesta: DUext   =         0.000000
siesta: Exc     =     -1119.635340
siesta: eta*DQ  =         0.000000
siesta: Emadel  =         0.000000
siesta: Emeta   =         0.000000
siesta: Emolmec =         0.000000
siesta: Ekinion =         0.000000
siesta: Eharris =     -4146.253109
siesta: Etot    =     -4146.253109
siesta: FreeEng =     -4146.253109

siesta: Final energy (eV):
siesta:  Band Struct. =   -1134.747839
siesta:       Kinetic =    2902.945471
siesta:       Hartree =    8163.591022
siesta:       Edftu   =       0.000000
siesta:       Eso     =      -0.004282
siesta:    Ext. field =       0.000000
siesta:   Exch.-corr. =   -1119.635340
siesta:  Ion-electron =  -18911.453578
siesta:       Ion-ion =    4818.303598
siesta:       Ekinion =       0.000000
siesta:         Total =   -4146.253109
siesta:         Fermi =      -3.775025

siesta: Atomic forces (eV/Ang):
siesta:      1    3.356177    2.081266    0.000000
siesta:      2    0.045855    0.060175   -0.000000
siesta:      3    0.783293   -0.424788    0.000000
siesta:      4    0.770220   -0.015884    0.000000
siesta:      5    0.057418   -0.098472    0.000000
siesta:      6    1.827877    0.656894    0.000000
siesta:      7    0.041614   -0.263919    0.000000
siesta:      8   -0.435673    0.301619   -0.000000
siesta:      9   -0.204841    1.311157    0.000000
siesta:     10   -1.084076    0.371387   -0.000000
siesta:     11   -0.025212   -0.019974    0.000000
siesta:     12   -0.393056   -0.294289    0.000000
siesta:     13    0.045869   -0.084972    0.000000
siesta:     14    0.238631   -0.050822   -0.000000
siesta:     15   -1.378408   -0.943617    0.000000
siesta:     16   -0.036247    0.146695    0.000000
siesta:     17    1.061116   -1.144209    0.000000
siesta:     18   -0.225145    0.205156    0.000000
siesta:     19   -0.197417   -1.306809   -0.000000
siesta:     20   -0.012478   -0.436886   -0.000000
siesta:     21   -0.329839    1.080832    0.000000
siesta:     22   -2.227000   -0.887495   -0.000000
siesta:     23    0.268637    0.570678    0.000000
siesta:     24    0.120458   -0.017571   -0.000000
siesta:     25    0.133303   -0.015181   -0.000000
siesta:     26   -0.237337   -0.189090    0.000000
siesta:     27    1.698256    1.385161    0.000000
siesta:     28    3.723888    0.989386   -0.000000
siesta:     29   -0.082292    0.209713    0.000000
siesta: ----------------------------------------
siesta:    Tot    7.303591    3.176141    0.000000

siesta: Stress tensor (static) (eV/Ang**3):
siesta:     0.000039    0.000828   -0.000000
siesta:     0.000828    0.001010    0.000000
siesta:    -0.000000    0.000000   -0.000050

siesta: Cell volume =       5616.550727 Ang**3

siesta: Pressure (static):
siesta:                Solid            Molecule  Units
siesta:          -0.00000362         -0.00000721  Ry/Bohr**3
siesta:          -0.00033283         -0.00066236  eV/Ang**3
siesta:          -0.53326560         -1.06123672  kBar
(Free)E+ p_basis*V_orbitals  =       -4126.402691
(Free)Eharris+ p_basis*V_orbitals  =       -4126.402691
     spin moment: S , {S} =    0.00000   0.00000   0.00000  -0.00000

siesta: Electric dipole (a.u.)  =    1.540402    0.013441   -0.000000
siesta: Electric dipole (Debye) =    3.915315    0.034163   -0.000000

cite: Please see "GC.bib" for an exhaustive BiBTeX file.
cite: Please clearly indicate Siesta version in published work: v4.1.5-1-g384057250
cite: This calculation has made use of the following articles
cite: which are encouraged to be cited in a published work.
        Primary SIESTA paper
          DOI: www.doi.org/10.1088/0953-8984/14/11/302
        Spin-orbit coupling (on-site approximation)
          DOI: www.doi.org/10.1088/0953-8984/19/19/489001


WARNING: alloc-realloc-dealloc name mismatch
         Name: atomlist isa
         Size:              -116. Bytes
         Node:     0
         Subsequent mismatches will not be reported
>> End of run:  28-JUN-2023  16:16:27
Job completed
