Siesta Version  : v4.1.5-1-g384057250
Architecture    : gcc
Compiler version: GNU Fortran (Ubuntu 11.4.0-1ubuntu1~22.04) 11.4.0
Compiler flags  : mpifort -O2 -fPIC -ftree-vectorize -fallow-argument-mismatch
PP flags        : -DFC_HAVE_ABORT -DMPI -DSIESTA__FLOOK -DSIESTA__METIS -DSIESTA__MUMPS -DCDF -DNCDF -DNCDF_4 -DNCDF_PARALLEL -DSIESTA__MRRR -DSIESTA__ELPA
Libraries       : libncdf.a libfdict.a  -lflookall -ldl -lnetcdff -lnetcdf -lhdf5_hl -lhdf5 -lhdf5_fortran -lz -lscalapack-openmpi -lopenblas -lmetis -lzmumps -lcmumps -ldmumps -lmumps_common -lpord -lsmumps -lesmumps -lscotch -lscotcherr -fopenmp -lelpa
PARALLEL version
NetCDF support
NetCDF-4 support
NetCDF-4 MPI-IO support
METIS ordering support
Lua support

* Running on 8 nodes in parallel
>> Start of run:   1-FEB-2024  23:16:17

                           ***********************       
                           *  WELCOME TO SIESTA  *       
                           ***********************       

reinit: Reading from standard input
reinit: Dumped input in INPUT_TMP.48206
************************** Dump of input data file ****************************
# mpirun -np 4 siesta-4.1.5 < GC.fdf > GC.out &
SystemLabel      GC
NumberOfAtoms    29
NumberOfSpecies  4
%block ChemicalSpeciesLabel
    1    1  H
    2    7  N
    3   14  Si
    4    8  O
%endblock ChemicalSpeciesLabel
############################################
# This overrides Defaults.fdf configuration
############################################
MD.TypeOfRun                Verlet # CG, Verlet
MD.Steps                    0
MaxSCFIterations            200
SCF.MustConverge            F
AtomicCoordinatesFormat NotScaledCartesianAng
%block AtomicCoordinatesAndAtomicSpecies
    -1.0677839499975845 6.726174549894422 0.0  1  1  H
    -1.7742706799975845 5.9361383698944215 0.0  2  2  N
    -3.5045575899975843 6.377502279894421 0.0  3  3  Si
    -3.6603372699975845 7.867494539894421 0.0  1  4  H
    -5.027879209997584 4.818594759894421 0.0  3  5  Si
    -6.511066839997585 5.061425119894421 0.0  1  6  H
    -3.8294883499975843 2.905318599894421 0.0  3  7  Si
    -4.595513809997584 1.3726018598944212 0.0  2  8  N
    -4.005267259997584 0.4153888298944213 0.0  1  9  H
    -5.647136129997584 1.2921416298944213 0.0  1  10  H
    -2.1132882899975844 2.960492909894421 0.0  2  11  N
    -1.0382656699975845 4.290831749894421 0.0  3  12  Si
    0.5704076500024153 4.2720214898944215 0.0  4  13  O
    5.6164483 -7.44953905 0.0  1  14  H
    4.58206954 -7.2320376 0.0  2  15  N
    3.29666389 -8.492636 0.0  3  16  Si
    3.80117524 -9.90371886 -0.0  1  17  H
    1.65934232 -8.01362137 0.0  2  18  N
    1.68097912 -6.20463398 -0.0  3  19  Si
    0.54543521 -4.28636135 0.0  3  20  Si
    -1.03431493 -3.94450034 0.0  4  21  O
    1.73226934 -2.87719605 0.0  2  22  N
    1.20957366 -1.92961761 -0.0  1  23  H
    3.50853448 -2.77677601 0.0  3  24  Si
    4.13684451 -1.17938608 0.0  2  25  N
    3.54296161 -0.26248101 0.0  1  26  H
    5.18364407 -1.05231197 -0.0  1  27  H
    4.63288658 -4.07521596 -0.0  2  28  N
    3.79410501 -5.58634043 0.0  3  29  Si
%endblock AtomicCoordinatesAndAtomicSpecies
#############
# Unit Cell
#############
LatticeConstant 1.0 Ang
%block LatticeVectors
    30.00000    0.000000    0.000000
    0.000000    45.00000    0.000000
    0.000000    0.000000    10.00000
%endblock LatticeVectors
%include ../../../../Defaults.fdf
************************** End of input data file *****************************

reinit: -----------------------------------------------------------------------
reinit: System Name: 
reinit: -----------------------------------------------------------------------
reinit: System Label: GC
reinit: -----------------------------------------------------------------------

initatom: Reading input for the pseudopotentials and atomic orbitals ----------
Species number:   1 Atomic number:    1 Label: H
Species number:   2 Atomic number:    7 Label: N
Species number:   3 Atomic number:   14 Label: Si
Species number:   4 Atomic number:    8 Label: O

Ground state valence configuration:   1s01
Reading pseudopotential information in formatted form from H.psf

Pseudopotential generated from a relativistic atomic calculation

Valence configuration for pseudopotential generation:
1s( 1.00) rc: 0.01
2p( 0.00) rc: 0.60
3d( 0.00) rc: 1.99
4f( 0.00) rc: 2.49
Ground state valence configuration:   2s02  2p03
Reading pseudopotential information in formatted form from N.psf

Pseudopotential generated from a relativistic atomic calculation

Valence configuration for pseudopotential generation:
2s( 2.00) rc: 0.94
2p( 3.00) rc: 0.59
3d( 0.00) rc: 3.46
4f( 0.00) rc: 2.47
Ground state valence configuration:   3s02  3p02
Reading pseudopotential information in formatted form from Si.psf

Pseudopotential generated from a relativistic atomic calculation

Valence configuration for pseudopotential generation:
3s( 2.00) rc: 1.67
3p( 2.00) rc: 2.04
3d( 0.00) rc: 2.89
4f( 0.00) rc: 2.49
Ground state valence configuration:   2s02  2p04
Reading pseudopotential information in formatted form from O.psf

Pseudopotential generated from a relativistic atomic calculation

Valence configuration for pseudopotential generation:
2s( 2.00) rc: 0.45
2p( 4.00) rc: 0.92
3d( 0.00) rc: 2.24
4f( 0.00) rc: 0.25
For H, standard SIESTA heuristics set lmxkb to 2
 (one more than the basis l, including polarization orbitals).
Use PS.lmax or PS.KBprojectors blocks to override.
For N, standard SIESTA heuristics set lmxkb to 3
 (one more than the basis l, including polarization orbitals).
Use PS.lmax or PS.KBprojectors blocks to override.
For Si, standard SIESTA heuristics set lmxkb to 3
 (one more than the basis l, including polarization orbitals).
Use PS.lmax or PS.KBprojectors blocks to override.
For O, standard SIESTA heuristics set lmxkb to 3
 (one more than the basis l, including polarization orbitals).
Use PS.lmax or PS.KBprojectors blocks to override.

<basis_specs>
===============================================================================
H                    Z=   1    Mass=  1.0100        Charge= 0.17977+309
Lmxo=0 Lmxkb= 2    BasisType=split      Semic=F
L=0  Nsemic=0  Cnfigmx=1
          i=1  nzeta=2  polorb=1  (1s)
            splnorm:   0.62000    
               vcte:    0.0000    
               rinn:    0.0000    
               qcoe:    0.0000    
               qyuk:    0.0000    
               qwid:   0.10000E-01
                rcs:    0.0000      0.0000    
            lambdas:    1.0000      1.0000    
-------------------------------------------------------------------------------
L=0  Nkbl=1  erefs: 0.17977+309
L=1  Nkbl=1  erefs: 0.17977+309
L=2  Nkbl=1  erefs: 0.17977+309
===============================================================================
</basis_specs>

atom: Called for H                     (Z =   1)

read_vps: Pseudopotential generation method:
read_vps: ATM4.2.7  Troullier-Martins                       
Valence charge for ps generation:    1.00000

xc_check: Exchange-correlation functional:
xc_check: GGA Perdew, Burke & Ernzerhof 1996
V l=0 = -2*Zval/r beyond r=  0.0098
V l=1 = -2*Zval/r beyond r=  0.5817
V l=2 = -2*Zval/r beyond r=  1.9372
All V_l potentials equal beyond r=  1.9372
This should be close to max(r_c) in ps generation
All pots = -2*Zval/r beyond r=  1.9372

VLOCAL1: 99.0% of the norm of Vloc inside     11.567 Ry
VLOCAL1: 99.9% of the norm of Vloc inside     26.362 Ry
atom: Maximum radius for 4*pi*r*r*local-pseudopot. charge    2.25106
atom: Maximum radius for r*vlocal+2*Zval:    1.91306
GHOST: No ghost state for L =  0
GHOST: No ghost state for L =  1
GHOST: No ghost state for L =  2

KBgen: Kleinman-Bylander projectors: 
   l= 0   rc=  2.036604   el= -0.477180   Ekb= -6.081590   kbcos= -0.277285
   l= 1   rc=  2.195416   el=  0.001076   Ekb= -0.926943   kbcos= -0.034643
   l= 2   rc=  2.251056   el=  0.002010   Ekb= -0.130941   kbcos= -0.009788

KBgen: Total number of Kleinman-Bylander projectors:    9
atom: -------------------------------------------------------------------------

atom: SANKEY-TYPE ORBITALS:
atom: Selected multiple-zeta basis: split     

SPLIT: Orbitals with angular momentum L= 0

SPLIT: Basis orbitals for state 1s

SPLIT: PAO cut-off radius determined from an
SPLIT: energy shift=  0.002000 Ry

   izeta = 1
                 lambda =    1.000000
                     rc =    6.518340
                 energy =   -0.475305
                kinetic =    0.912139
    potential(screened) =   -1.387444
       potential(ionic) =   -1.907295

   izeta = 2
                 rmatch =    2.141150
              splitnorm =    0.620000
                 energy =    0.566467
                kinetic =    3.772856
    potential(screened) =   -3.206389
       potential(ionic) =   -3.759093

POLgen: Perturbative polarization orbital with L=  1

POLgen: Polarization orbital for state 1s

   izeta = 1
                     rc =    6.518340
                 energy =    0.533861
                kinetic =    1.121086
    potential(screened) =   -0.587225
       potential(ionic) =   -1.053027
atom: Total number of Sankey-type orbitals:  5

atm_pop: Valence configuration (for local Pseudopot. screening):
 1s( 1.00)                                                            
Vna: chval, zval:    1.00000   1.00000

Vna:  Cut-off radius for the neutral-atom potential:   6.518340

atom: _________________________________________________________________________

<basis_specs>
===============================================================================
N                    Z=   7    Mass=  14.010        Charge= 0.17977+309
Lmxo=1 Lmxkb= 3    BasisType=split      Semic=F
L=0  Nsemic=0  Cnfigmx=2
          i=1  nzeta=2  polorb=0  (2s)
            splnorm:   0.28000    
               vcte:    0.0000    
               rinn:    0.0000    
               qcoe:    0.0000    
               qyuk:    0.0000    
               qwid:   0.10000E-01
                rcs:    0.0000      0.0000    
            lambdas:    1.0000      1.0000    
L=1  Nsemic=0  Cnfigmx=2
          i=1  nzeta=2  polorb=1  (2p)
            splnorm:   0.28000    
               vcte:    0.0000    
               rinn:    0.0000    
               qcoe:    0.0000    
               qyuk:    0.0000    
               qwid:   0.10000E-01
                rcs:    0.0000      0.0000    
            lambdas:    1.0000      1.0000    
-------------------------------------------------------------------------------
L=0  Nkbl=1  erefs: 0.17977+309
L=1  Nkbl=1  erefs: 0.17977+309
L=2  Nkbl=1  erefs: 0.17977+309
L=3  Nkbl=1  erefs: 0.17977+309
===============================================================================
</basis_specs>

atom: Called for N                     (Z =   7)

read_vps: Pseudopotential generation method:
read_vps: ATM4.2.7  Troullier-Martins                       
Valence charge for ps generation:    5.00000

xc_check: Exchange-correlation functional:
xc_check: GGA Perdew, Burke & Ernzerhof 1996
V l=0 = -2*Zval/r beyond r=  1.2889
V l=1 = -2*Zval/r beyond r=  1.2889
V l=2 = -2*Zval/r beyond r=  3.4178
V l=3 = -2*Zval/r beyond r=  2.4084
All V_l potentials equal beyond r=  3.3753
This should be close to max(r_c) in ps generation
All pots = -2*Zval/r beyond r=  3.4178

VLOCAL1: 99.0% of the norm of Vloc inside      3.810 Ry
VLOCAL1: 99.9% of the norm of Vloc inside      8.683 Ry
atom: Maximum radius for 4*pi*r*r*local-pseudopot. charge    4.02088
atom: Maximum radius for r*vlocal+2*Zval:    3.54838
GHOST: No ghost state for L =  0
GHOST: No ghost state for L =  1
GHOST: No ghost state for L =  2
GHOST: No ghost state for L =  3

KBgen: Kleinman-Bylander projectors: 
   l= 0   rc=  3.417763   el= -1.365098   Ekb= -4.433130   kbcos= -0.707855
   l= 1   rc=  3.375302   el= -0.521201   Ekb=-13.264039   kbcos= -0.535594
   l= 2   rc=  3.872880   el=  0.001991   Ekb= -0.641094   kbcos= -0.062456
   l= 3   rc=  3.970931   el=  0.003093   Ekb= -0.474517   kbcos= -0.018236

KBgen: Total number of Kleinman-Bylander projectors:   16
atom: -------------------------------------------------------------------------

atom: SANKEY-TYPE ORBITALS:
atom: Selected multiple-zeta basis: split     

SPLIT: Orbitals with angular momentum L= 0

SPLIT: Basis orbitals for state 2s

SPLIT: PAO cut-off radius determined from an
SPLIT: energy shift=  0.002000 Ry

   izeta = 1
                 lambda =    1.000000
                     rc =    4.730425
                 energy =   -1.363399
                kinetic =    1.245246
    potential(screened) =   -2.608645
       potential(ionic) =   -8.121105

   izeta = 2
                 rmatch =    2.531849
              splitnorm =    0.280000
                 energy =   -0.959908
                kinetic =    2.409435
    potential(screened) =   -3.369343
       potential(ionic) =   -9.427975

SPLIT: Orbitals with angular momentum L= 1

SPLIT: Basis orbitals for state 2p

SPLIT: PAO cut-off radius determined from an
SPLIT: energy shift=  0.002000 Ry

   izeta = 1
                 lambda =    1.000000
                     rc =    5.924108
                 energy =   -0.519262
                kinetic =    3.672940
    potential(screened) =   -4.192202
       potential(ionic) =   -9.518354

   izeta = 2
                 rmatch =    2.531849
              splitnorm =    0.280000
                 energy =   -0.104258
                kinetic =    6.807538
    potential(screened) =   -6.911796
       potential(ionic) =  -13.149920

POLgen: Perturbative polarization orbital with L=  2

POLgen: Polarization orbital for state 2p

   izeta = 1
                     rc =    5.924108
                 energy =    1.427508
                kinetic =    2.872379
    potential(screened) =   -1.444871
       potential(ionic) =   -5.563644
atom: Total number of Sankey-type orbitals: 13

atm_pop: Valence configuration (for local Pseudopot. screening):
 2s( 2.00)                                                            
 2p( 3.00)                                                            
Vna: chval, zval:    5.00000   5.00000

Vna:  Cut-off radius for the neutral-atom potential:   5.924108

atom: _________________________________________________________________________

<basis_specs>
===============================================================================
Si                   Z=  14    Mass=  28.090        Charge= 0.17977+309
Lmxo=1 Lmxkb= 3    BasisType=split      Semic=F
L=0  Nsemic=0  Cnfigmx=3
          i=1  nzeta=2  polorb=0  (3s)
            splnorm:   0.28000    
               vcte:    0.0000    
               rinn:    0.0000    
               qcoe:    0.0000    
               qyuk:    0.0000    
               qwid:   0.10000E-01
                rcs:    0.0000      0.0000    
            lambdas:    1.0000      1.0000    
L=1  Nsemic=0  Cnfigmx=3
          i=1  nzeta=2  polorb=1  (3p)
            splnorm:   0.28000    
               vcte:    0.0000    
               rinn:    0.0000    
               qcoe:    0.0000    
               qyuk:    0.0000    
               qwid:   0.10000E-01
                rcs:    0.0000      0.0000    
            lambdas:    1.0000      1.0000    
-------------------------------------------------------------------------------
L=0  Nkbl=1  erefs: 0.17977+309
L=1  Nkbl=1  erefs: 0.17977+309
L=2  Nkbl=1  erefs: 0.17977+309
L=3  Nkbl=1  erefs: 0.17977+309
===============================================================================
</basis_specs>

atom: Called for Si                    (Z =  14)

read_vps: Pseudopotential generation method:
read_vps: ATM4.2.7  Troullier-Martins                       
Valence charge for ps generation:    4.00000

xc_check: Exchange-correlation functional:
xc_check: GGA Perdew, Burke & Ernzerhof 1996
V l=0 = -2*Zval/r beyond r=  2.7826
V l=1 = -2*Zval/r beyond r=  2.7826
V l=2 = -2*Zval/r beyond r=  2.9253
V l=3 = -2*Zval/r beyond r=  2.7826
All V_l potentials equal beyond r=  2.8530
This should be close to max(r_c) in ps generation
All pots = -2*Zval/r beyond r=  2.9253

VLOCAL1: 99.0% of the norm of Vloc inside      5.333 Ry
VLOCAL1: 99.9% of the norm of Vloc inside     12.154 Ry
atom: Maximum radius for 4*pi*r*r*local-pseudopot. charge    3.39869
atom: Maximum radius for r*vlocal+2*Zval:    2.96205
GHOST: No ghost state for L =  0
GHOST: No ghost state for L =  1
GHOST: No ghost state for L =  2
GHOST: No ghost state for L =  3

KBgen: Kleinman-Bylander projectors: 
   l= 0   rc=  3.075247   el= -0.794092   Ekb=  5.879390   kbcos=  0.167461
   l= 1   rc=  3.153101   el= -0.300068   Ekb=  2.642817   kbcos=  0.058301
   l= 2   rc=  3.273594   el=  0.001958   Ekb= -1.185135   kbcos= -0.104411
   l= 3   rc=  3.232927   el=  0.003046   Ekb= -0.497174   kbcos= -0.015889

KBgen: Total number of Kleinman-Bylander projectors:   16
atom: -------------------------------------------------------------------------

atom: SANKEY-TYPE ORBITALS:
atom: Selected multiple-zeta basis: split     

SPLIT: Orbitals with angular momentum L= 0

SPLIT: Basis orbitals for state 3s

SPLIT: PAO cut-off radius determined from an
SPLIT: energy shift=  0.002000 Ry

   izeta = 1
                 lambda =    1.000000
                     rc =    6.429618
                 energy =   -0.792283
                kinetic =    0.525293
    potential(screened) =   -1.317576
       potential(ionic) =   -3.744923

   izeta = 2
                 rmatch =    3.998416
              splitnorm =    0.280000
                 energy =   -0.583081
                kinetic =    1.069570
    potential(screened) =   -1.652651
       potential(ionic) =   -4.235185

SPLIT: Orbitals with angular momentum L= 1

SPLIT: Basis orbitals for state 3p

SPLIT: PAO cut-off radius determined from an
SPLIT: energy shift=  0.002000 Ry

   izeta = 1
                 lambda =    1.000000
                     rc =    8.464845
                 energy =   -0.298236
                kinetic =    0.785360
    potential(screened) =   -1.083596
       potential(ionic) =   -3.273779

   izeta = 2
                 rmatch =    4.587816
              splitnorm =    0.280000
                 energy =   -0.131871
                kinetic =    1.403687
    potential(screened) =   -1.535557
       potential(ionic) =   -4.015310

POLgen: Perturbative polarization orbital with L=  2

POLgen: Polarization orbital for state 3p

   izeta = 1
                     rc =    8.464845
                 energy =    0.321949
                kinetic =    1.055677
    potential(screened) =   -0.733728
       potential(ionic) =   -2.672950
atom: Total number of Sankey-type orbitals: 13

atm_pop: Valence configuration (for local Pseudopot. screening):
 3s( 2.00)                                                            
 3p( 2.00)                                                            
Vna: chval, zval:    4.00000   4.00000

Vna:  Cut-off radius for the neutral-atom potential:   8.464845

atom: _________________________________________________________________________

<basis_specs>
===============================================================================
O                    Z=   8    Mass=  16.000        Charge= 0.17977+309
Lmxo=1 Lmxkb= 3    BasisType=split      Semic=F
L=0  Nsemic=0  Cnfigmx=2
          i=1  nzeta=2  polorb=0  (2s)
            splnorm:   0.28000    
               vcte:    0.0000    
               rinn:    0.0000    
               qcoe:    0.0000    
               qyuk:    0.0000    
               qwid:   0.10000E-01
                rcs:    0.0000      0.0000    
            lambdas:    1.0000      1.0000    
L=1  Nsemic=0  Cnfigmx=2
          i=1  nzeta=2  polorb=1  (2p)
            splnorm:   0.28000    
               vcte:    0.0000    
               rinn:    0.0000    
               qcoe:    0.0000    
               qyuk:    0.0000    
               qwid:   0.10000E-01
                rcs:    0.0000      0.0000    
            lambdas:    1.0000      1.0000    
-------------------------------------------------------------------------------
L=0  Nkbl=1  erefs: 0.17977+309
L=1  Nkbl=1  erefs: 0.17977+309
L=2  Nkbl=1  erefs: 0.17977+309
L=3  Nkbl=1  erefs: 0.17977+309
===============================================================================
</basis_specs>

atom: Called for O                     (Z =   8)

read_vps: Pseudopotential generation method:
read_vps: ATM4.2.7  Troullier-Martins                       
Valence charge for ps generation:    6.00000

xc_check: Exchange-correlation functional:
xc_check: GGA Perdew, Burke & Ernzerhof 1996
V l=0 = -2*Zval/r beyond r=  1.1000
V l=1 = -2*Zval/r beyond r=  1.1000
V l=2 = -2*Zval/r beyond r=  2.2154
V l=3 = -2*Zval/r beyond r=  1.1000
All V_l potentials equal beyond r=  2.2154
This should be close to max(r_c) in ps generation
All pots = -2*Zval/r beyond r=  2.2154

VLOCAL1: 99.0% of the norm of Vloc inside      8.845 Ry
VLOCAL1: 99.9% of the norm of Vloc inside     20.157 Ry
atom: Maximum radius for 4*pi*r*r*local-pseudopot. charge    2.67231
atom: Maximum radius for r*vlocal+2*Zval:    2.32897
GHOST: No ghost state for L =  0
GHOST: No ghost state for L =  1
GHOST: No ghost state for L =  2
GHOST: No ghost state for L =  3

KBgen: Kleinman-Bylander projectors: 
   l= 0   rc=  2.243238   el= -1.759686   Ekb=**********   kbcos= -0.171774
   l= 1   rc=  2.328968   el= -0.663873   Ekb=-14.506792   kbcos= -0.519897
   l= 2   rc=  2.573941   el=  0.002031   Ekb= -1.137373   kbcos= -0.019581
   l= 3   rc=  2.606321   el=  0.003153   Ekb= -1.013546   kbcos= -0.003122

KBgen: Total number of Kleinman-Bylander projectors:   16
atom: -------------------------------------------------------------------------

atom: SANKEY-TYPE ORBITALS:
atom: Selected multiple-zeta basis: split     

SPLIT: Orbitals with angular momentum L= 0

SPLIT: Basis orbitals for state 2s

SPLIT: PAO cut-off radius determined from an
SPLIT: energy shift=  0.002000 Ry

   izeta = 1
                 lambda =    1.000000
                     rc =    4.243912
                 energy =   -1.758270
                kinetic =    3.286084
    potential(screened) =   -5.044353
       potential(ionic) =  -12.921184

   izeta = 2
                 rmatch =    2.187845
              splitnorm =    0.280000
                 energy =   -0.885018
                kinetic =    8.134434
    potential(screened) =   -9.019452
       potential(ionic) =  -17.710645

SPLIT: Orbitals with angular momentum L= 1

SPLIT: Basis orbitals for state 2p

SPLIT: PAO cut-off radius determined from an
SPLIT: energy shift=  0.002000 Ry

   izeta = 1
                 lambda =    1.000000
                     rc =    5.314825
                 energy =   -0.661986
                kinetic =    4.917472
    potential(screened) =   -5.579458
       potential(ionic) =  -13.236259

   izeta = 2
                 rmatch =    2.160663
              splitnorm =    0.280000
                 energy =   -0.068760
                kinetic =    9.183374
    potential(screened) =   -9.252135
       potential(ionic) =  -18.274251

POLgen: Perturbative polarization orbital with L=  2

POLgen: Polarization orbital for state 2p

   izeta = 1
                     rc =    5.314825
                 energy =    1.970580
                kinetic =    3.886128
    potential(screened) =   -1.915547
       potential(ionic) =   -7.749584
atom: Total number of Sankey-type orbitals: 13

atm_pop: Valence configuration (for local Pseudopot. screening):
 2s( 2.00)                                                            
 2p( 4.00)                                                            
Vna: chval, zval:    6.00000   6.00000

Vna:  Cut-off radius for the neutral-atom potential:   5.314825

atom: _________________________________________________________________________

prinput: Basis input ----------------------------------------------------------

PAO.BasisType split     

%block ChemicalSpeciesLabel
    1    1 H                       # Species index, atomic number, species label
    2    7 N                       # Species index, atomic number, species label
    3   14 Si                      # Species index, atomic number, species label
    4    8 O                       # Species index, atomic number, species label
%endblock ChemicalSpeciesLabel

%block PAO.Basis                 # Define Basis set
H                     1                    # Species label, number of l-shells
 n=1   0   2 P   1                   # n, l, Nzeta, Polarization, NzetaPol
   6.518      2.141   
   1.000      1.000   
N                     2                    # Species label, number of l-shells
 n=2   0   2                         # n, l, Nzeta 
   4.730      2.532   
   1.000      1.000   
 n=2   1   2 P   1                   # n, l, Nzeta, Polarization, NzetaPol
   5.924      2.532   
   1.000      1.000   
Si                    2                    # Species label, number of l-shells
 n=3   0   2                         # n, l, Nzeta 
   6.430      3.998   
   1.000      1.000   
 n=3   1   2 P   1                   # n, l, Nzeta, Polarization, NzetaPol
   8.465      4.588   
   1.000      1.000   
O                     2                    # Species label, number of l-shells
 n=2   0   2                         # n, l, Nzeta 
   4.244      2.188   
   1.000      1.000   
 n=2   1   2 P   1                   # n, l, Nzeta, Polarization, NzetaPol
   5.315      2.161   
   1.000      1.000   
%endblock PAO.Basis

prinput: ----------------------------------------------------------------------

Dumping basis to NetCDF file H.ion.nc
Dumping basis to NetCDF file N.ion.nc
Dumping basis to NetCDF file Si.ion.nc
Dumping basis to NetCDF file O.ion.nc
coor:   Atomic-coordinates input format  =     Cartesian coordinates
coor:                                          (in Angstroms)

siesta: Atomic coordinates (Bohr) and species
siesta:     -2.01782  12.71063   0.00000  1        1
siesta:     -3.35289  11.21768   0.00000  2        2
siesta:     -6.62266  12.05174   0.00000  3        3
siesta:     -6.91704  14.86742   0.00000  1        4
siesta:     -9.50132   9.10583   0.00000  3        5
siesta:    -12.30414   9.56471   0.00000  1        6
siesta:     -7.23669   5.49026   0.00000  3        7
siesta:     -8.68427   2.59384   0.00000  2        8
siesta:     -7.56886   0.78497   0.00000  1        9
siesta:    -10.67154   2.44179   0.00000  1       10
siesta:     -3.99354   5.59452   0.00000  2       11
siesta:     -1.96204   8.10850   0.00000  3       12
siesta:      1.07791   8.07295   0.00000  4       13
siesta:     10.61355 -14.07759   0.00000  1       14
siesta:      8.65886 -13.66658   0.00000  2       15
siesta:      6.22979 -16.04876   0.00000  3       16
siesta:      7.18318 -18.71532  -0.00000  1       17
siesta:      3.13570 -15.14356   0.00000  2       18
siesta:      3.17659 -11.72506  -0.00000  3       19
siesta:      1.03072  -8.10005   0.00000  3       20
siesta:     -1.95457  -7.45403   0.00000  4       21
siesta:      3.27352  -5.43711   0.00000  2       22
siesta:      2.28576  -3.64645  -0.00000  1       23
siesta:      6.63017  -5.24735   0.00000  3       24
siesta:      7.81751  -2.22872   0.00000  2       25
siesta:      6.69523  -0.49602   0.00000  1       26
siesta:      9.79567  -1.98858  -0.00000  1       27
siesta:      8.75489  -7.70105  -0.00000  2       28
siesta:      7.16982 -10.55666   0.00000  3       29

siesta: System type = molecule  

initatomlists: Number of atoms, orbitals, and projectors:     29   297   394

siesta: ******************** Simulation parameters ****************************
siesta:
siesta: The following are some of the parameters of the simulation.
siesta: A complete list of the parameters used, including default values,
siesta: can be found in file out.fdf
siesta:
redata: Spin configuration                          = spin-orbit
redata: Number of spin components                   = 8
redata: Time-Reversal Symmetry                      = F
redata: Spin spiral                                 = F
############################################################
This spin-orbit implementation uses a local approximation.
From 4.2 and onwards the full non-local approximation is implemented
You are strongly advised to use >=4.2 versions!
############################################################
redata: Long output                                 =   F
redata: Number of Atomic Species                    =        4
redata: Charge density info will appear in .RHO file
redata: Write Mulliken Pop.                         = NO
redata: Matel table size (NRTAB)                    =     1024
redata: Mesh Cutoff                                 =   340.0000 Ry
redata: Net charge of the system                    =     0.0000 |e|
redata: Min. number of SCF Iter                     =        1
redata: Max. number of SCF Iter                     =      200
redata: SCF mix quantity                            = Hamiltonian
redata: Mix DM or H after convergence               =   F
redata: Recompute H after scf cycle                 =   F
redata: Mix DM in first SCF step                    =   T
redata: Write Pulay info on disk                    =   F
redata: New DM Occupancy tolerance                  = 0.000000000001
redata: No kicks to SCF
redata: DM Mixing Weight for Kicks                  =     0.5000
redata: Require Harris convergence for SCF          =   F
redata: Harris energy tolerance for SCF             =     0.000100 eV
redata: Require DM convergence for SCF              =   T
redata: DM tolerance for SCF                        =     0.000008
redata: Require EDM convergence for SCF             =   F
redata: EDM tolerance for SCF                       =     0.001000 eV
redata: Require H convergence for SCF               =   T
redata: Hamiltonian tolerance for SCF               =     0.000001 eV
redata: Require (free) Energy convergence for SCF   =   F
redata: (free) Energy tolerance for SCF             =     0.000100 eV
redata: Using Saved Data (generic)                  =   F
redata: Use continuation files for DM               =   T
redata: Neglect nonoverlap interactions             =   F
redata: Method of Calculation                       = Diagonalization
redata: Electronic Temperature                      =   299.9978 K
redata: Fix the spin of the system                  =   F
redata: Dynamics option                             = Verlet MD run
redata: Initial MD time step                        =        1
redata:   Final MD time step                        =        1
redata: Length of MD time step                      =     0.5000 fs
redata: Initial Temperature of MD run               =     0.0000 K
redata: Perform a MD quench                         =   F
mix.SCF: Pulay mixing                            = Pulay
mix.SCF:    Variant                              = stable
mix.SCF:    History steps                        = 6
mix.SCF:    Linear mixing weight                 =     0.250000
mix.SCF:    Mixing weight                        =     0.250000
mix.SCF:    SVD condition                        = 0.1000E-07
mix.SCF:    Restart steps                        = 24
mix.SCF:    Restart save steps                   = 3
mix.SCF: Spin-component mixing                   all
redata: Save all siesta data in one NC              =   F
redata: ***********************************************************************

%block SCF.Mixers
  Pulay
%endblock SCF.Mixers

%block SCF.Mixer.Pulay
  # Mixing method
  method pulay
  variant stable

  # Mixing options
  weight 0.2500
  weight.linear 0.2500
  history 6
  restart 24
  restart.save 3
%endblock SCF.Mixer.Pulay

Size of DM history Fstack: 3
Total number of electrons:    98.000000
Total ionic charge:    98.000000

* ProcessorY, Blocksize:    2  24


* Orbital distribution balance (max,min):    48    24


Time-reversal symmetry not used.

siesta: k-grid: Number of k-points =     1
siesta: k-grid: Cutoff (effective) =     5.000 Ang
siesta: k-grid: Supercell and displacements
siesta: k-grid:    1   0   0      0.000
siesta: k-grid:    0   1   0      0.000
siesta: k-grid:    0   0   1      0.000

diag: Algorithm                                     = ELPA-1stage
diag: Parallel over k                               =   F
diag: Use parallel 2D distribution                  =   T
diag: Parallel block-size                           = 24
diag: Parallel distribution                         =     2 x     4
diag: Used triangular part                          = Lower
diag: Absolute tolerance                            =  0.100E-15
diag: Orthogonalization factor                      =  0.100E-05
diag: Memory factor                                 =  1.0000


ts: **************************************************************
ts: Save H and S matrices                           =    F
ts: Save DM and EDM matrices                        =    F
ts: Only save the overlap matrix S                  =    F
ts: **************************************************************

************************ Begin: TS CHECKS AND WARNINGS ************************
************************ End: TS CHECKS AND WARNINGS **************************


                     ====================================
                        Begin MD step =      1
                     ====================================

outcoor: Atomic coordinates (Ang):                          
   -1.06778395    6.72617455    0.00000000   1       1  H
   -1.77427068    5.93613837    0.00000000   2       2  N
   -3.50455759    6.37750228    0.00000000   3       3  Si
   -3.66033727    7.86749454    0.00000000   1       4  H
   -5.02787921    4.81859476    0.00000000   3       5  Si
   -6.51106684    5.06142512    0.00000000   1       6  H
   -3.82948835    2.90531860    0.00000000   3       7  Si
   -4.59551381    1.37260186    0.00000000   2       8  N
   -4.00526726    0.41538883    0.00000000   1       9  H
   -5.64713613    1.29214163    0.00000000   1      10  H
   -2.11328829    2.96049291    0.00000000   2      11  N
   -1.03826567    4.29083175    0.00000000   3      12  Si
    0.57040765    4.27202149    0.00000000   4      13  O
    5.61644830   -7.44953905    0.00000000   1      14  H
    4.58206954   -7.23203760    0.00000000   2      15  N
    3.29666389   -8.49263600    0.00000000   3      16  Si
    3.80117524   -9.90371886    0.00000000   1      17  H
    1.65934232   -8.01362137    0.00000000   2      18  N
    1.68097912   -6.20463398    0.00000000   3      19  Si
    0.54543521   -4.28636135    0.00000000   3      20  Si
   -1.03431493   -3.94450034    0.00000000   4      21  O
    1.73226934   -2.87719605    0.00000000   2      22  N
    1.20957366   -1.92961761    0.00000000   1      23  H
    3.50853448   -2.77677601    0.00000000   3      24  Si
    4.13684451   -1.17938608    0.00000000   2      25  N
    3.54296161   -0.26248101    0.00000000   1      26  H
    5.18364407   -1.05231197    0.00000000   1      27  H
    4.63288658   -4.07521596    0.00000000   2      28  N
    3.79410501   -5.58634043    0.00000000   3      29  Si

outcell: Unit cell vectors (Ang):
       30.000000    0.000000    0.000000
        0.000000   45.000000    0.000000
        0.000000    0.000000   10.000000

outcell: Cell vector modules (Ang)   :   30.000000   45.000000   10.000000
outcell: Cell angles (23,13,12) (deg):     90.0000     90.0000     90.0000
outcell: Cell volume (Ang**3)        :  13500.0000
<dSpData1D:S at geom step 1
  <sparsity:sparsity for geom step 1
    nrows_g=297 nrows=48 sparsity=.0814 nnzs=7183, refcount: 8>
  <dData1D:(new from dSpData1D) n=7183, refcount: 1>
refcount: 1>
new_DM -- step:     1
Initializing Density Matrix...

Attempting to read DM from file... Failed...
DM filled with atomic data:
<dSpData2D:DM initialized from atoms
  <sparsity:sparsity for geom step 1
    nrows_g=297 nrows=48 sparsity=.0814 nnzs=7183, refcount: 9>
  <dData2D:DM n=7183 m=8, refcount: 1>
refcount: 1>
     spin moment: S , {S} =   56.00000   0.00000   0.00000  56.00000
No. of atoms with KB's overlaping orbs in proc 0. Max # of overlaps:      26     142

Initializing spin-orbit part of the Hamiltonian
  Adding spin-orbit effects for H 
  Adding spin-orbit effects for N 
  Adding spin-orbit effects for Si
  Adding spin-orbit effects for O 


New grid distribution:   1
           1       1:  180    1:  125    1:   15
           2       1:  180    1:  125   16:   30
           3       1:  180    1:  125   31:   45
           4       1:  180    1:  125   46:   60
           5       1:  180  126:  250    1:   15
           6       1:  180  126:  250   16:   30
           7       1:  180  126:  250   31:   45
           8       1:  180  126:  250   46:   60

InitMesh: MESH =   360 x   500 x   120 =    21600000
InitMesh: (bp) =   180 x   250 x    60 =     2700000
InitMesh: Mesh cutoff (required, used) =   340.000   341.206 Ry
ExtMesh (bp) on 0 =   288 x   225 x   123 =     7970400
New grid distribution:   2
           1       1:  156   31:  206    1:   60
           2     157:  180   27:  206    1:   60
           3     157:  180    1:   26    1:   60
           4       1:   20  207:  225    1:   60
           5       1:  156    1:   30    1:   60
           6      21:  180  226:  250    1:   60
           7      21:  180  207:  225    1:   60
           8       1:   20  226:  250    1:   60
New grid distribution:   3
           1       1:  146   25:  187    1:   60
           2     147:  180   29:  187    1:   60
           3       1:  146    1:   24    1:   60
           4     147:  180    1:   28    1:   60
           5      32:  180  188:  226    1:   60
           6      32:  180  227:  250    1:   60
           7       1:   31  188:  219    1:   60
           8       1:   31  220:  250    1:   60
Setting up quadratic distribution...
ExtMesh (bp) on 0 =   264 x   276 x   168 =    12241152
PhiOnMesh: Number of (b)points on node 0 =              1647360
PhiOnMesh: nlist on node 0 =              1741904

stepf: Fermi-Dirac step function

siesta: Program's energy decomposition (eV):
siesta: Ebs     =      -600.154826
siesta: Eions   =      3585.165840
siesta: Ena     =       381.828398
siesta: Ekin    =      3368.655445
siesta: Enl     =     -3297.033754
siesta: Eso     =        -0.003411
siesta: Edftu   =         0.000000
siesta: DEna    =       153.496316
siesta: DUscf   =        81.884187
siesta: DUext   =         0.000000
siesta: Exc     =     -1203.964865
siesta: eta*DQ  =         0.000000
siesta: Emadel  =         0.000000
siesta: Emeta   =         0.000000
siesta: Emolmec =         0.000000
siesta: Ekinion =         0.000000
siesta: Eharris =     -4020.468812
siesta: Etot    =     -4100.303523
siesta: FreeEng =     -4100.304558

        iscf     Eharris(eV)        E_KS(eV)     FreeEng(eV)     dDmax    Ef(eV) dHmax(eV)
   scf:    1    -4020.468812    -4100.303523    -4100.304558  0.965566 -4.903617 22.264786
     spin moment: S , {S} =    2.00582   0.00000  -0.00000   2.00582
timer: Routine,Calls,Time,% = IterSCF        1      11.333  29.77
   scf:    2    -4145.057013    -4135.193317    -4135.194515  0.453347 -4.165070 12.152801
     spin moment: S , {S} =    1.99397  -0.00000  -0.00000   1.99397
   scf:    3    -4089.392951    -4128.221910    -4128.255417  0.427734 -4.316759 14.896602
     spin moment: S , {S} =    2.64086   0.00000  -0.00000   2.64086
   scf:    4    -4150.844878    -4144.748961    -4144.748962  0.326317 -3.856428  7.250974
     spin moment: S , {S} =    0.00010   0.00000  -0.00000   0.00010
   scf:    5    -4146.242701    -4145.620716    -4145.620716  0.039459 -3.602439  4.905691
     spin moment: S , {S} =    0.00006   0.00000   0.00000   0.00006
   scf:    6    -4146.399288    -4146.015125    -4146.015125  0.024956 -3.498398  2.534825
     spin moment: S , {S} =    0.00003  -0.00000  -0.00000   0.00003
   scf:    7    -4146.399651    -4146.204049    -4146.204049  0.023181 -3.715222  0.910970
     spin moment: S , {S} =    0.00001   0.00000   0.00000   0.00001
   scf:    8    -4146.315499    -4146.258415    -4146.258415  0.012244 -3.654150  0.570976
     spin moment: S , {S} =    0.00000   0.00000  -0.00000   0.00000
   scf:    9    -4146.300789    -4146.278900    -4146.278900  0.007374 -3.608720  0.471732
     spin moment: S , {S} =    0.00000   0.00000  -0.00000   0.00000
   scf:   10    -4146.334902    -4146.297617    -4146.297617  0.025427 -3.701242  0.296900
     spin moment: S , {S} =    0.00000   0.00000  -0.00000  -0.00000
   scf:   11    -4146.302662    -4146.300211    -4146.300211  0.006089 -3.686727  0.099053
     spin moment: S , {S} =    0.00000   0.00000  -0.00000  -0.00000
   scf:   12    -4146.303231    -4146.301730    -4146.301730  0.001851 -3.679724  0.044286
     spin moment: S , {S} =    0.00000   0.00000  -0.00000  -0.00000
   scf:   13    -4146.302671    -4146.302196    -4146.302196  0.000990 -3.676469  0.028550
     spin moment: S , {S} =    0.00000   0.00000  -0.00000  -0.00000
   scf:   14    -4146.302756    -4146.302464    -4146.302464  0.000969 -3.674784  0.017228
     spin moment: S , {S} =    0.00000   0.00000  -0.00000  -0.00000
   scf:   15    -4146.302695    -4146.302573    -4146.302573  0.000639 -3.674591  0.010044
     spin moment: S , {S} =    0.00000   0.00000  -0.00000  -0.00000
   scf:   16    -4146.302660    -4146.302613    -4146.302613  0.000432 -3.674345  0.004575
     spin moment: S , {S} =    0.00000   0.00000  -0.00000  -0.00000
   scf:   17    -4146.302640    -4146.302625    -4146.302625  0.000253 -3.674678  0.002708
     spin moment: S , {S} =    0.00000   0.00000  -0.00000   0.00000
   scf:   18    -4146.302632    -4146.302628    -4146.302628  0.000145 -3.674872  0.001716
     spin moment: S , {S} =    0.00000   0.00000  -0.00000   0.00000
   scf:   19    -4146.302632    -4146.302630    -4146.302630  0.000113 -3.674483  0.001148
     spin moment: S , {S} =    0.00000   0.00000  -0.00000   0.00000
   scf:   20    -4146.302631    -4146.302630    -4146.302630  0.000054 -3.674533  0.000851
     spin moment: S , {S} =    0.00000   0.00000  -0.00000   0.00000
   scf:   21    -4146.302631    -4146.302630    -4146.302630  0.000061 -3.674564  0.000565
     spin moment: S , {S} =    0.00000   0.00000  -0.00000   0.00000
   scf:   22    -4146.302631    -4146.302631    -4146.302631  0.000053 -3.674544  0.000312
     spin moment: S , {S} =    0.00000   0.00000  -0.00000   0.00000
   scf:   23    -4146.302631    -4146.302631    -4146.302631  0.000037 -3.675139  0.000205
     spin moment: S , {S} =    0.00000   0.00000  -0.00000   0.00000
   scf:   24    -4146.302631    -4146.302631    -4146.302631  0.000015 -3.674525  0.000126
     spin moment: S , {S} =    0.00000   0.00000  -0.00000   0.00000
mix: Pulay -- resetting history
   scf:   25    -4146.302631    -4146.302631    -4146.302631  0.000014 -3.674524  0.000081
     spin moment: S , {S} =    0.00000   0.00000  -0.00000   0.00000
   scf:   26    -4146.302631    -4146.302631    -4146.302631  0.000010 -3.674524  0.000050
     spin moment: S , {S} =    0.00000   0.00000  -0.00000   0.00000
   scf:   27    -4146.302631    -4146.302631    -4146.302631  0.000009 -3.674522  0.000021
     spin moment: S , {S} =    0.00000   0.00000  -0.00000   0.00000
   scf:   28    -4146.302631    -4146.302631    -4146.302631  0.000004 -3.674522  0.000010
     spin moment: S , {S} =    0.00000   0.00000  -0.00000   0.00000
   scf:   29    -4146.302631    -4146.302631    -4146.302631  0.000002 -3.674522  0.000006
     spin moment: S , {S} =    0.00000   0.00000  -0.00000   0.00000
   scf:   30    -4146.302631    -4146.302631    -4146.302631  0.000001 -3.674522  0.000003
     spin moment: S , {S} =    0.00000   0.00000  -0.00000   0.00000
   scf:   31    -4146.302631    -4146.302631    -4146.302631  0.000000 -3.674522  0.000002
     spin moment: S , {S} =    0.00000   0.00000  -0.00000   0.00000
   scf:   32    -4146.302631    -4146.302631    -4146.302631  0.000000 -3.674522  0.000001
     spin moment: S , {S} =    0.00000   0.00000  -0.00000   0.00000
   scf:   33    -4146.302631    -4146.302631    -4146.302631  0.000000 -3.674522  0.000001
     spin moment: S , {S} =    0.00000   0.00000  -0.00000   0.00000

SCF Convergence by DM+H criterion
max |DM_out - DM_in|         :     0.0000000802
max |H_out - H_in|      (eV) :     0.0000006632
SCF cycle converged after 33 iterations

Using DM_out to compute the final energy and forces
No. of atoms with KB's overlaping orbs in proc 0. Max # of overlaps:      26     142

siesta: E_KS(eV) =            -4146.3026

siesta: E_KS - E_eggbox =     -4146.3026
     spin moment: S , {S} =    0.00000   0.00000  -0.00000   0.00000

siesta: Atomic forces (eV/Ang):
     1    0.005058    0.031959    0.000000
     2   -0.547459    0.305377   -0.000000
     3    0.431169   -0.033635    0.000000
     4   -0.111256    0.082166    0.000000
     5   -0.211377   -0.217091    0.000000
     6    0.050626   -0.025485    0.000000
     7    1.207548    1.034463   -0.000000
     8    0.781066   -2.301718    0.000000
     9   -1.284935    1.865410   -0.000000
    10    0.105524   -0.325572    0.000000
    11   -1.040771   -0.329619    0.000000
    12    1.242687   -0.238954   -0.000000
    13    1.854212   -0.565585    0.000000
    14   -0.014522   -0.034457    0.000000
    15    0.116668    0.034573    0.000000
    16    0.013068   -0.020688    0.000000
    17   -0.001698    0.047815    0.000000
    18   -0.039250    0.049307   -0.000000
    19    0.262088    0.025469   -0.000000
    20   -1.385983   -0.188138    0.000000
    21    1.265111   -3.869810   -0.000000
    22    0.359768    0.784471    0.000000
    23    0.208853   -0.598957   -0.000000
    24   -0.337047   -0.989019   -0.000000
    25   -0.477431    1.572218   -0.000000
    26    0.849105   -1.212576   -0.000000
    27   -0.140303    0.100429    0.000000
    28    0.048022    0.730294   -0.000000
    29   -0.318292   -0.422288    0.000000
----------------------------------------
   Tot    2.890250   -4.709640    0.000000
----------------------------------------
   Max    3.869810
   Res    0.739139    sqrt( Sum f_i^2 / 3N )
----------------------------------------
   Max    3.869810    constrained

Stress tensor Voigt[x,y,z,yz,xz,xy] (kbar):        0.50        0.20       -0.04        0.00       -0.00       -0.49
(Free)E + p*V (eV/cell)    -4148.1382
Target enthalpy (eV/cell)    -4146.3026

siesta: Stress tensor (static) (eV/Ang**3):
         0.000311   -0.000306   -0.000000
        -0.000306    0.000123    0.000000
        -0.000000    0.000000   -0.000026

siesta: Pressure (static):         -0.21784732  kBar

siesta: Stress tensor (total) (eV/Ang**3):
         0.000311   -0.000306   -0.000000
        -0.000306    0.000123    0.000000
        -0.000000    0.000000   -0.000026

siesta: Pressure (total):         -0.21784732  kBar

siesta: Temp_ion =       0.000 K

siesta: Eigenvalues (eV):
ik =     1
  -21.8062  -21.8062  -21.7069  -21.7069  -21.5242  -21.5242  -21.4444  -21.4444  -21.1228  -21.1228
  -20.9489  -20.9489  -20.7503  -20.7503  -19.7231  -19.7231  -19.2993  -19.2993  -19.2444  -19.2444
  -14.6819  -14.6819  -13.7944  -13.7944  -13.2660  -13.2660  -13.0938  -13.0938  -12.9610  -12.9610
  -12.8098  -12.8098  -12.7979  -12.7979  -12.3890  -12.3890  -12.3584  -12.3584  -11.9634  -11.9634
  -11.3402  -11.3402  -10.7364  -10.7364  -10.6595  -10.6595  -10.6402  -10.6402  -10.0067  -10.0067
   -9.4827   -9.4827   -9.1669   -9.1669   -8.7382   -8.7382   -8.6086   -8.6086   -8.5844   -8.5844
   -8.5499   -8.5499   -8.3264   -8.3264   -8.0799   -8.0799   -7.7731   -7.7731   -7.5121   -7.5121
   -7.4865   -7.4865   -7.2348   -7.2348   -7.1608   -7.1608   -6.7950   -6.7950   -6.6620   -6.6620
   -6.4024   -6.4024   -6.3975   -6.3975   -6.0120   -6.0120   -5.9981   -5.9981   -5.9794   -5.9794
   -5.6250   -5.6250   -5.4782   -5.4782   -5.3773   -5.3773   -4.1915   -4.1915   -3.1582   -3.1582
   -2.2330   -2.2330   -2.1992   -2.1992   -2.1841   -2.1841   -1.8130   -1.8130   -1.7773   -1.7773
   -1.7414   -1.7414   -1.7137   -1.7137   -1.5195   -1.5195   -1.4699   -1.4699   -0.8884   -0.8884
   -0.8254   -0.8254   -0.7012   -0.7012   -0.3030   -0.3030   -0.0753   -0.0753    0.0913    0.0913
    0.3986    0.3986    0.5203    0.5203    0.6602    0.6602    0.7761    0.7761    0.8842    0.8842
    1.0157    1.0157    1.3340    1.3340    1.3925    1.3925    1.4812    1.4812    1.5031    1.5031
    1.8256    1.8256    1.8900    1.8900    1.9783    1.9783    2.4137    2.4137    2.8362    2.8362
    2.8481    2.8481    2.8829    2.8829    3.0815    3.0815    3.2228    3.2228    3.4049    3.4049
    3.4878    3.4878    3.8301    3.8301    3.9210    3.9210    4.1705    4.1705    4.3533    4.3533
    4.5046    4.5046    4.5199    4.5199    4.6541    4.6541    4.6945    4.6945    4.8982    4.8982
    5.0033    5.0033    5.0607    5.0607    5.3397    5.3397    5.5827    5.5827    5.7807    5.7807
    5.8524    5.8524    5.8616    5.8616    5.9591    5.9591    5.9813    5.9813    6.0872    6.0872
    6.2510    6.2510    6.4664    6.4664    6.7094    6.7094    6.7878    6.7878    6.9137    6.9137
    7.1123    7.1123    7.2782    7.2782    7.5265    7.5265    7.6130    7.6130    7.8637    7.8637
    7.8835    7.8835    8.0289    8.0289    8.1739    8.1739    8.3647    8.3647    8.3707    8.3707
    8.5883    8.5883    8.8174    8.8174    8.9553    8.9553    8.9860    8.9860    9.2541    9.2541
    9.2924    9.2924    9.2960    9.2960    9.8193    9.8193    9.9060    9.9060    9.9403    9.9403
   10.1611   10.1611   10.2433   10.2433   10.5475   10.5475   10.8347   10.8347   10.8446   10.8446
   11.0390   11.0390   11.0720   11.0720   11.2638   11.2638   11.7318   11.7318   11.8120   11.8120
   11.9337   11.9337   11.9348   11.9348   12.1521   12.1521   12.4618   12.4618   12.7969   12.7969
   12.8100   12.8100   12.9008   12.9008   13.3674   13.3674   13.5401   13.5401   13.7321   13.7321
   13.8811   13.8811   14.1889   14.1889   14.3621   14.3621   14.7104   14.7104   14.8470   14.8470
   14.9568   14.9568   15.4279   15.4279   16.1081   16.1081   16.5570   16.5570   16.7775   16.7775
   17.0176   17.0176   17.3976   17.3976   17.6776   17.6776   18.2589   18.2589   18.5051   18.5051
   18.7119   18.7119   19.2885   19.2885   19.4591   19.4591   19.9816   19.9816   20.3488   20.3488
   21.0451   21.0451   21.3219   21.3219   22.0341   22.0341   22.3268   22.3268   22.4246   22.4246
   22.9640   22.9640   23.3205   23.3205   23.7852   23.7852   23.9296   23.9296   23.9443   23.9443
   24.9102   24.9102   25.4319   25.4319   26.0633   26.0633   26.7956   26.7956   27.4416   27.4416
   28.2328   28.2328   29.0318   29.0318   29.2294   29.2294   29.4723   29.4723   29.7124   29.7124
   30.0486   30.0486   30.1669   30.1669   30.2734   30.2734   30.7888   30.7888   30.9229   30.9229
   31.1182   31.1182   31.2930   31.2930   31.5950   31.5950   31.7106   31.7106   32.1894   32.1894
   32.6446   32.6446   33.8904   33.8904   34.7122   34.7122   34.7457   34.7457   35.0254   35.0254
   35.1462   35.1462   35.1766   35.1766   35.6156   35.6156   35.7089   35.7089   36.0129   36.0129
   36.8283   36.8283   36.9041   36.9041   37.0923   37.0923   37.3391   37.3391   37.5853   37.5853
   38.2912   38.2912   38.4239   38.4239   39.4257   39.4257   39.4639   39.4639   39.7991   39.7991
   40.5190   40.5190   40.5858   40.5858   40.6431   40.6431   40.7148   40.7148   41.0000   41.0000
   41.0137   41.0137   41.3509   41.3509   42.5481   42.5481   42.9162   42.9162   42.9670   42.9670
   43.4223   43.4223   43.8622   43.8622   43.9783   43.9783   44.0813   44.0813   44.4013   44.4013
   44.7511   44.7511   44.7934   44.7934   45.1245   45.1245   45.4871   45.4871   46.1496   46.1496
   46.2793   46.2793   47.0803   47.0803   47.4256   47.4256   48.9842   48.9842   49.0664   49.0664
   49.5205   49.5205   50.4130   50.4130   50.5373   50.5373   51.0712   51.0712   51.1404   51.1404
   51.7299   51.7299   51.7356   51.7356   52.7359   52.7359   52.8077   52.8077   54.3730   54.3730
   54.3993   54.3993   54.5384   54.5384   54.5886   54.5886   55.7704   55.7704   55.7846   55.7846
   55.8617   55.8617   56.0365   56.0365   56.4764   56.4764   58.0593   58.0593   58.4193   58.4193
   58.6908   58.6908   60.2017   60.2017   60.3499   60.3499   60.4729   60.4729   61.1287   61.1287
   61.9226   61.9226   62.0112   62.0112   62.2032   62.2032   64.8194   64.8194   66.6371   66.6371
   66.8524   66.8524   67.2268   67.2268   68.1578   68.1578   68.5424   68.5424   70.9500   70.9500
   73.8397   73.8397   80.2365   80.2365   91.1434   91.1434   92.1230   92.1230   93.3073   93.3073
   98.3445   98.3445   98.5556   98.5556   99.6052   99.6052  103.0976  103.0976  103.6847  103.6847
  110.1241  110.1241  111.5952  111.5952  124.1155  124.1155  126.3171  126.3171  129.1879  129.1879
  135.1663  135.1663  138.2787  138.2787
siesta: Fermi energy =      -3.674522 eV

siesta: Program's energy decomposition (eV):
siesta: Ebs     =     -1125.383627
siesta: Eions   =      3585.165840
siesta: Ena     =       381.828398
siesta: Ekin    =      2902.627141
siesta: Enl     =     -2787.224998
siesta: Eso     =        -0.004278
siesta: Edftu   =         0.000000
siesta: DEna    =        46.869329
siesta: DUscf   =        14.347122
siesta: DUext   =         0.000000
siesta: Exc     =     -1119.579505
siesta: eta*DQ  =         0.000000
siesta: Emadel  =         0.000000
siesta: Emeta   =         0.000000
siesta: Emolmec =         0.000000
siesta: Ekinion =         0.000000
siesta: Eharris =     -4146.302631
siesta: Etot    =     -4146.302631
siesta: FreeEng =     -4146.302631

siesta: Final energy (eV):
siesta:  Band Struct. =   -1125.383627
siesta:       Kinetic =    2902.627141
siesta:       Hartree =   13155.978780
siesta:       Edftu   =       0.000000
siesta:       Eso     =      -0.004278
siesta:    Ext. field =       0.000000
siesta:   Exch.-corr. =   -1119.579505
siesta:  Ion-electron =  -28886.639535
siesta:       Ion-ion =    9801.314766
siesta:       Ekinion =       0.000000
siesta:         Total =   -4146.302631
siesta:         Fermi =      -3.674522

siesta: Atomic forces (eV/Ang):
siesta:      1    0.005058    0.031959    0.000000
siesta:      2   -0.547459    0.305377   -0.000000
siesta:      3    0.431169   -0.033635    0.000000
siesta:      4   -0.111256    0.082166    0.000000
siesta:      5   -0.211377   -0.217091    0.000000
siesta:      6    0.050626   -0.025485    0.000000
siesta:      7    1.207548    1.034463   -0.000000
siesta:      8    0.781066   -2.301718    0.000000
siesta:      9   -1.284935    1.865410   -0.000000
siesta:     10    0.105524   -0.325572    0.000000
siesta:     11   -1.040771   -0.329619    0.000000
siesta:     12    1.242687   -0.238954   -0.000000
siesta:     13    1.854212   -0.565585    0.000000
siesta:     14   -0.014522   -0.034457    0.000000
siesta:     15    0.116668    0.034573    0.000000
siesta:     16    0.013068   -0.020688    0.000000
siesta:     17   -0.001698    0.047815    0.000000
siesta:     18   -0.039250    0.049307   -0.000000
siesta:     19    0.262088    0.025469   -0.000000
siesta:     20   -1.385983   -0.188138    0.000000
siesta:     21    1.265111   -3.869810   -0.000000
siesta:     22    0.359768    0.784471    0.000000
siesta:     23    0.208853   -0.598957   -0.000000
siesta:     24   -0.337047   -0.989019   -0.000000
siesta:     25   -0.477431    1.572218   -0.000000
siesta:     26    0.849105   -1.212576   -0.000000
siesta:     27   -0.140303    0.100429    0.000000
siesta:     28    0.048022    0.730294   -0.000000
siesta:     29   -0.318292   -0.422288    0.000000
siesta: ----------------------------------------
siesta:    Tot    2.890250   -4.709640    0.000000

siesta: Stress tensor (static) (eV/Ang**3):
siesta:     0.000311   -0.000306   -0.000000
siesta:    -0.000306    0.000123    0.000000
siesta:    -0.000000    0.000000   -0.000026

siesta: Cell volume =      13500.000000 Ang**3

siesta: Pressure (static):
siesta:                Solid            Molecule  Units
siesta:          -0.00000148         -0.00000267  Ry/Bohr**3
siesta:          -0.00013597         -0.00024515  eV/Ang**3
siesta:          -0.21784732         -0.39278338  kBar
(Free)E+ p_basis*V_orbitals  =       -4126.452213
(Free)Eharris+ p_basis*V_orbitals  =       -4126.452213
     spin moment: S , {S} =    0.00000   0.00000  -0.00000   0.00000

siesta: Electric dipole (a.u.)  =    0.038912    1.455443    0.000000
siesta: Electric dipole (Debye) =    0.098904    3.699369    0.000000

cite: Please see "GC.bib" for an exhaustive BiBTeX file.
cite: Please clearly indicate Siesta version in published work: v4.1.5-1-g384057250
cite: This calculation has made use of the following articles
cite: which are encouraged to be cited in a published work.
        Primary SIESTA paper
          DOI: www.doi.org/10.1088/0953-8984/14/11/302
        Spin-orbit coupling (on-site approximation)
          DOI: www.doi.org/10.1088/0953-8984/19/19/489001


WARNING: alloc-realloc-dealloc name mismatch
         Name: atomlist isa
         Size:              -116. Bytes
         Node:     0
         Subsequent mismatches will not be reported
>> End of run:   1-FEB-2024  23:20:12
Job completed
