Siesta Version  : v4.1.5-1-g384057250
Architecture    : gcc
Compiler version: GNU Fortran (Ubuntu 11.3.0-1ubuntu1~22.04) 11.3.0
Compiler flags  : mpifort -O2 -fPIC -ftree-vectorize -fallow-argument-mismatch
PP flags        : -DFC_HAVE_ABORT -DMPI -DSIESTA__FLOOK -DSIESTA__METIS -DSIESTA__MUMPS -DCDF -DNCDF -DNCDF_4 -DNCDF_PARALLEL -DSIESTA__MRRR -DSIESTA__ELPA
Libraries       : libncdf.a libfdict.a  -lflookall -ldl -lnetcdff -lnetcdf -lhdf5_hl -lhdf5 -lhdf5_fortran -lz -lscalapack-openmpi -lopenblas -lmetis -lzmumps -lcmumps -ldmumps -lmumps_common -lpord -lsmumps -lesmumps -lscotch -lscotcherr -fopenmp -lelpa
PARALLEL version
NetCDF support
NetCDF-4 support
NetCDF-4 MPI-IO support
METIS ordering support
Lua support

* Running on 4 nodes in parallel
>> Start of run:  28-JUN-2023  15:39:01

                           ***********************       
                           *  WELCOME TO SIESTA  *       
                           ***********************       

reinit: Reading from standard input
reinit: Dumped input in INPUT_TMP.81685
************************** Dump of input data file ****************************
SystemLabel      GC
NumberOfAtoms    29
NumberOfSpecies  4
%block ChemicalSpeciesLabel
    1    8  O
    2    7  N
    3   14  Si
    4    1  H
%endblock ChemicalSpeciesLabel
# Single point calculation
MD.TypeOfRun                CG
MD.Steps                    0
SCF.MustConverge            F # In case it does not. There can be 2 very close atoms
AtomicCoordinatesFormat NotScaledCartesianAng
%block AtomicCoordinatesAndAtomicSpecies
1.043624880    3.939228610    0.000000000       1
-3.040641290   1.071078170    0.000000000       2
2.054601450    1.213582070    0.000000000       2
0.999014100    -1.732643800   0.000000000       2
-2.132351640   -1.812968220   0.000000000       2
3.860190550    -1.112298180   0.000000000       2
-1.236183220   1.152964460    0.000000000       3
-0.532924260   -0.939006270   0.000000000       3
0.635660470    2.374516770    0.000000000       3
2.245170240    -0.549967100   0.000000000       3
-3.449816660   -0.583665030   0.000000000       3
2.963714090    1.790992630    0.000000000       4
-4.845591350   -1.123549660   0.000000000       4
4.007020910    -2.152308560   0.000000000       4
4.772194380    -0.502318160   0.000000000       4
-2.265399090   -2.864605110   0.000000000       4
6.533580362    5.989645116    0.000000000       3
8.438464332    7.196284056    0.000000000       3
7.942710192    3.223310146    0.000000000       3
10.020180482   5.692527306    0.000000000       3
6.593203032    4.272217546    0.000000000       2
4.994445302    6.743322426    0.000000000       2
9.595005452    3.953147366    0.000000000       2
8.629809132    8.688437806    0.000000000       4
11.504548462   5.911258126    0.000000000       4
4.883100022    7.792517536    0.000000000       4
4.061887592    6.118408246    0.000000000       4
7.932483362    1.615199026    0.000000000       1
10.370431332   3.226455806    0.000000000       4
%endblock AtomicCoordinatesAndAtomicSpecies
%include ../../../Defaults.fdf
************************** End of input data file *****************************

reinit: -----------------------------------------------------------------------
reinit: System Name: 
reinit: -----------------------------------------------------------------------
reinit: System Label: GC
reinit: -----------------------------------------------------------------------

initatom: Reading input for the pseudopotentials and atomic orbitals ----------
Species number:   1 Atomic number:    8 Label: O
Species number:   2 Atomic number:    7 Label: N
Species number:   3 Atomic number:   14 Label: Si
Species number:   4 Atomic number:    1 Label: H

Ground state valence configuration:   2s02  2p04
Reading pseudopotential information in formatted form from O.psf

Pseudopotential generated from a relativistic atomic calculation

Valence configuration for pseudopotential generation:
2s( 2.00) rc: 0.45
2p( 4.00) rc: 0.92
3d( 0.00) rc: 2.24
4f( 0.00) rc: 0.25
Ground state valence configuration:   2s02  2p03
Reading pseudopotential information in formatted form from N.psf

Pseudopotential generated from a relativistic atomic calculation

Valence configuration for pseudopotential generation:
2s( 2.00) rc: 0.94
2p( 3.00) rc: 0.59
3d( 0.00) rc: 3.46
4f( 0.00) rc: 2.47
Ground state valence configuration:   3s02  3p02
Reading pseudopotential information in formatted form from Si.psf

Pseudopotential generated from a relativistic atomic calculation

Valence configuration for pseudopotential generation:
3s( 2.00) rc: 1.67
3p( 2.00) rc: 2.04
3d( 0.00) rc: 2.89
4f( 0.00) rc: 2.49
Ground state valence configuration:   1s01
Reading pseudopotential information in formatted form from H.psf

Pseudopotential generated from a relativistic atomic calculation

Valence configuration for pseudopotential generation:
1s( 1.00) rc: 0.01
2p( 0.00) rc: 0.60
3d( 0.00) rc: 1.99
4f( 0.00) rc: 2.49
For O, standard SIESTA heuristics set lmxkb to 3
 (one more than the basis l, including polarization orbitals).
Use PS.lmax or PS.KBprojectors blocks to override.
For N, standard SIESTA heuristics set lmxkb to 3
 (one more than the basis l, including polarization orbitals).
Use PS.lmax or PS.KBprojectors blocks to override.
For Si, standard SIESTA heuristics set lmxkb to 3
 (one more than the basis l, including polarization orbitals).
Use PS.lmax or PS.KBprojectors blocks to override.
For H, standard SIESTA heuristics set lmxkb to 2
 (one more than the basis l, including polarization orbitals).
Use PS.lmax or PS.KBprojectors blocks to override.

<basis_specs>
===============================================================================
O                    Z=   8    Mass=  16.000        Charge= 0.17977+309
Lmxo=1 Lmxkb= 3    BasisType=split      Semic=F
L=0  Nsemic=0  Cnfigmx=2
          i=1  nzeta=2  polorb=0  (2s)
            splnorm:   0.28000    
               vcte:    0.0000    
               rinn:    0.0000    
               qcoe:    0.0000    
               qyuk:    0.0000    
               qwid:   0.10000E-01
                rcs:    0.0000      0.0000    
            lambdas:    1.0000      1.0000    
L=1  Nsemic=0  Cnfigmx=2
          i=1  nzeta=2  polorb=1  (2p)
            splnorm:   0.28000    
               vcte:    0.0000    
               rinn:    0.0000    
               qcoe:    0.0000    
               qyuk:    0.0000    
               qwid:   0.10000E-01
                rcs:    0.0000      0.0000    
            lambdas:    1.0000      1.0000    
-------------------------------------------------------------------------------
L=0  Nkbl=1  erefs: 0.17977+309
L=1  Nkbl=1  erefs: 0.17977+309
L=2  Nkbl=1  erefs: 0.17977+309
L=3  Nkbl=1  erefs: 0.17977+309
===============================================================================
</basis_specs>

atom: Called for O                     (Z =   8)

read_vps: Pseudopotential generation method:
read_vps: ATM4.2.7  Troullier-Martins                       
Valence charge for ps generation:    6.00000

xc_check: Exchange-correlation functional:
xc_check: GGA Perdew, Burke & Ernzerhof 1996
V l=0 = -2*Zval/r beyond r=  1.1000
V l=1 = -2*Zval/r beyond r=  1.1000
V l=2 = -2*Zval/r beyond r=  2.2154
V l=3 = -2*Zval/r beyond r=  1.1000
All V_l potentials equal beyond r=  2.2154
This should be close to max(r_c) in ps generation
All pots = -2*Zval/r beyond r=  2.2154

VLOCAL1: 99.0% of the norm of Vloc inside      8.845 Ry
VLOCAL1: 99.9% of the norm of Vloc inside     20.157 Ry
atom: Maximum radius for 4*pi*r*r*local-pseudopot. charge    2.67231
atom: Maximum radius for r*vlocal+2*Zval:    2.32897
GHOST: No ghost state for L =  0
GHOST: No ghost state for L =  1
GHOST: No ghost state for L =  2
GHOST: No ghost state for L =  3

KBgen: Kleinman-Bylander projectors: 
   l= 0   rc=  2.243238   el= -1.759686   Ekb=**********   kbcos= -0.171774
   l= 1   rc=  2.328968   el= -0.663873   Ekb=-14.506792   kbcos= -0.519897
   l= 2   rc=  2.573941   el=  0.002031   Ekb= -1.137373   kbcos= -0.019581
   l= 3   rc=  2.606321   el=  0.003153   Ekb= -1.013546   kbcos= -0.003122

KBgen: Total number of Kleinman-Bylander projectors:   16
atom: -------------------------------------------------------------------------

atom: SANKEY-TYPE ORBITALS:
atom: Selected multiple-zeta basis: split     

SPLIT: Orbitals with angular momentum L= 0

SPLIT: Basis orbitals for state 2s

SPLIT: PAO cut-off radius determined from an
SPLIT: energy shift=  0.002000 Ry

   izeta = 1
                 lambda =    1.000000
                     rc =    4.243912
                 energy =   -1.758270
                kinetic =    3.286084
    potential(screened) =   -5.044353
       potential(ionic) =  -12.921184

   izeta = 2
                 rmatch =    2.187845
              splitnorm =    0.280000
                 energy =   -0.885018
                kinetic =    8.134434
    potential(screened) =   -9.019452
       potential(ionic) =  -17.710645

SPLIT: Orbitals with angular momentum L= 1

SPLIT: Basis orbitals for state 2p

SPLIT: PAO cut-off radius determined from an
SPLIT: energy shift=  0.002000 Ry

   izeta = 1
                 lambda =    1.000000
                     rc =    5.314825
                 energy =   -0.661986
                kinetic =    4.917472
    potential(screened) =   -5.579458
       potential(ionic) =  -13.236259

   izeta = 2
                 rmatch =    2.160663
              splitnorm =    0.280000
                 energy =   -0.068760
                kinetic =    9.183374
    potential(screened) =   -9.252135
       potential(ionic) =  -18.274251

POLgen: Perturbative polarization orbital with L=  2

POLgen: Polarization orbital for state 2p

   izeta = 1
                     rc =    5.314825
                 energy =    1.970580
                kinetic =    3.886128
    potential(screened) =   -1.915547
       potential(ionic) =   -7.749584
atom: Total number of Sankey-type orbitals: 13

atm_pop: Valence configuration (for local Pseudopot. screening):
 2s( 2.00)                                                            
 2p( 4.00)                                                            
Vna: chval, zval:    6.00000   6.00000

Vna:  Cut-off radius for the neutral-atom potential:   5.314825

atom: _________________________________________________________________________

<basis_specs>
===============================================================================
N                    Z=   7    Mass=  14.010        Charge= 0.17977+309
Lmxo=1 Lmxkb= 3    BasisType=split      Semic=F
L=0  Nsemic=0  Cnfigmx=2
          i=1  nzeta=2  polorb=0  (2s)
            splnorm:   0.28000    
               vcte:    0.0000    
               rinn:    0.0000    
               qcoe:    0.0000    
               qyuk:    0.0000    
               qwid:   0.10000E-01
                rcs:    0.0000      0.0000    
            lambdas:    1.0000      1.0000    
L=1  Nsemic=0  Cnfigmx=2
          i=1  nzeta=2  polorb=1  (2p)
            splnorm:   0.28000    
               vcte:    0.0000    
               rinn:    0.0000    
               qcoe:    0.0000    
               qyuk:    0.0000    
               qwid:   0.10000E-01
                rcs:    0.0000      0.0000    
            lambdas:    1.0000      1.0000    
-------------------------------------------------------------------------------
L=0  Nkbl=1  erefs: 0.17977+309
L=1  Nkbl=1  erefs: 0.17977+309
L=2  Nkbl=1  erefs: 0.17977+309
L=3  Nkbl=1  erefs: 0.17977+309
===============================================================================
</basis_specs>

atom: Called for N                     (Z =   7)

read_vps: Pseudopotential generation method:
read_vps: ATM4.2.7  Troullier-Martins                       
Valence charge for ps generation:    5.00000

xc_check: Exchange-correlation functional:
xc_check: GGA Perdew, Burke & Ernzerhof 1996
V l=0 = -2*Zval/r beyond r=  1.2889
V l=1 = -2*Zval/r beyond r=  1.2889
V l=2 = -2*Zval/r beyond r=  3.4178
V l=3 = -2*Zval/r beyond r=  2.4084
All V_l potentials equal beyond r=  3.3753
This should be close to max(r_c) in ps generation
All pots = -2*Zval/r beyond r=  3.4178

VLOCAL1: 99.0% of the norm of Vloc inside      3.810 Ry
VLOCAL1: 99.9% of the norm of Vloc inside      8.683 Ry
atom: Maximum radius for 4*pi*r*r*local-pseudopot. charge    4.02088
atom: Maximum radius for r*vlocal+2*Zval:    3.54838
GHOST: No ghost state for L =  0
GHOST: No ghost state for L =  1
GHOST: No ghost state for L =  2
GHOST: No ghost state for L =  3

KBgen: Kleinman-Bylander projectors: 
   l= 0   rc=  3.417763   el= -1.365098   Ekb= -4.433130   kbcos= -0.707855
   l= 1   rc=  3.375302   el= -0.521201   Ekb=-13.264039   kbcos= -0.535594
   l= 2   rc=  3.872880   el=  0.001991   Ekb= -0.641094   kbcos= -0.062456
   l= 3   rc=  3.970931   el=  0.003093   Ekb= -0.474517   kbcos= -0.018236

KBgen: Total number of Kleinman-Bylander projectors:   16
atom: -------------------------------------------------------------------------

atom: SANKEY-TYPE ORBITALS:
atom: Selected multiple-zeta basis: split     

SPLIT: Orbitals with angular momentum L= 0

SPLIT: Basis orbitals for state 2s

SPLIT: PAO cut-off radius determined from an
SPLIT: energy shift=  0.002000 Ry

   izeta = 1
                 lambda =    1.000000
                     rc =    4.730425
                 energy =   -1.363399
                kinetic =    1.245246
    potential(screened) =   -2.608645
       potential(ionic) =   -8.121105

   izeta = 2
                 rmatch =    2.531849
              splitnorm =    0.280000
                 energy =   -0.959908
                kinetic =    2.409435
    potential(screened) =   -3.369343
       potential(ionic) =   -9.427975

SPLIT: Orbitals with angular momentum L= 1

SPLIT: Basis orbitals for state 2p

SPLIT: PAO cut-off radius determined from an
SPLIT: energy shift=  0.002000 Ry

   izeta = 1
                 lambda =    1.000000
                     rc =    5.924108
                 energy =   -0.519262
                kinetic =    3.672940
    potential(screened) =   -4.192202
       potential(ionic) =   -9.518354

   izeta = 2
                 rmatch =    2.531849
              splitnorm =    0.280000
                 energy =   -0.104258
                kinetic =    6.807538
    potential(screened) =   -6.911796
       potential(ionic) =  -13.149920

POLgen: Perturbative polarization orbital with L=  2

POLgen: Polarization orbital for state 2p

   izeta = 1
                     rc =    5.924108
                 energy =    1.427508
                kinetic =    2.872379
    potential(screened) =   -1.444871
       potential(ionic) =   -5.563644
atom: Total number of Sankey-type orbitals: 13

atm_pop: Valence configuration (for local Pseudopot. screening):
 2s( 2.00)                                                            
 2p( 3.00)                                                            
Vna: chval, zval:    5.00000   5.00000

Vna:  Cut-off radius for the neutral-atom potential:   5.924108

atom: _________________________________________________________________________

<basis_specs>
===============================================================================
Si                   Z=  14    Mass=  28.090        Charge= 0.17977+309
Lmxo=1 Lmxkb= 3    BasisType=split      Semic=F
L=0  Nsemic=0  Cnfigmx=3
          i=1  nzeta=2  polorb=0  (3s)
            splnorm:   0.28000    
               vcte:    0.0000    
               rinn:    0.0000    
               qcoe:    0.0000    
               qyuk:    0.0000    
               qwid:   0.10000E-01
                rcs:    0.0000      0.0000    
            lambdas:    1.0000      1.0000    
L=1  Nsemic=0  Cnfigmx=3
          i=1  nzeta=2  polorb=1  (3p)
            splnorm:   0.28000    
               vcte:    0.0000    
               rinn:    0.0000    
               qcoe:    0.0000    
               qyuk:    0.0000    
               qwid:   0.10000E-01
                rcs:    0.0000      0.0000    
            lambdas:    1.0000      1.0000    
-------------------------------------------------------------------------------
L=0  Nkbl=1  erefs: 0.17977+309
L=1  Nkbl=1  erefs: 0.17977+309
L=2  Nkbl=1  erefs: 0.17977+309
L=3  Nkbl=1  erefs: 0.17977+309
===============================================================================
</basis_specs>

atom: Called for Si                    (Z =  14)

read_vps: Pseudopotential generation method:
read_vps: ATM4.2.7  Troullier-Martins                       
Valence charge for ps generation:    4.00000

xc_check: Exchange-correlation functional:
xc_check: GGA Perdew, Burke & Ernzerhof 1996
V l=0 = -2*Zval/r beyond r=  2.7826
V l=1 = -2*Zval/r beyond r=  2.7826
V l=2 = -2*Zval/r beyond r=  2.9253
V l=3 = -2*Zval/r beyond r=  2.7826
All V_l potentials equal beyond r=  2.8530
This should be close to max(r_c) in ps generation
All pots = -2*Zval/r beyond r=  2.9253

VLOCAL1: 99.0% of the norm of Vloc inside      5.333 Ry
VLOCAL1: 99.9% of the norm of Vloc inside     12.154 Ry
atom: Maximum radius for 4*pi*r*r*local-pseudopot. charge    3.39869
atom: Maximum radius for r*vlocal+2*Zval:    2.96205
GHOST: No ghost state for L =  0
GHOST: No ghost state for L =  1
GHOST: No ghost state for L =  2
GHOST: No ghost state for L =  3

KBgen: Kleinman-Bylander projectors: 
   l= 0   rc=  3.075247   el= -0.794092   Ekb=  5.879390   kbcos=  0.167461
   l= 1   rc=  3.153101   el= -0.300068   Ekb=  2.642817   kbcos=  0.058301
   l= 2   rc=  3.273594   el=  0.001958   Ekb= -1.185135   kbcos= -0.104411
   l= 3   rc=  3.232927   el=  0.003046   Ekb= -0.497174   kbcos= -0.015889

KBgen: Total number of Kleinman-Bylander projectors:   16
atom: -------------------------------------------------------------------------

atom: SANKEY-TYPE ORBITALS:
atom: Selected multiple-zeta basis: split     

SPLIT: Orbitals with angular momentum L= 0

SPLIT: Basis orbitals for state 3s

SPLIT: PAO cut-off radius determined from an
SPLIT: energy shift=  0.002000 Ry

   izeta = 1
                 lambda =    1.000000
                     rc =    6.429618
                 energy =   -0.792283
                kinetic =    0.525293
    potential(screened) =   -1.317576
       potential(ionic) =   -3.744923

   izeta = 2
                 rmatch =    3.998416
              splitnorm =    0.280000
                 energy =   -0.583081
                kinetic =    1.069570
    potential(screened) =   -1.652651
       potential(ionic) =   -4.235185

SPLIT: Orbitals with angular momentum L= 1

SPLIT: Basis orbitals for state 3p

SPLIT: PAO cut-off radius determined from an
SPLIT: energy shift=  0.002000 Ry

   izeta = 1
                 lambda =    1.000000
                     rc =    8.464845
                 energy =   -0.298236
                kinetic =    0.785360
    potential(screened) =   -1.083596
       potential(ionic) =   -3.273779

   izeta = 2
                 rmatch =    4.587816
              splitnorm =    0.280000
                 energy =   -0.131871
                kinetic =    1.403687
    potential(screened) =   -1.535557
       potential(ionic) =   -4.015310

POLgen: Perturbative polarization orbital with L=  2

POLgen: Polarization orbital for state 3p

   izeta = 1
                     rc =    8.464845
                 energy =    0.321949
                kinetic =    1.055677
    potential(screened) =   -0.733728
       potential(ionic) =   -2.672950
atom: Total number of Sankey-type orbitals: 13

atm_pop: Valence configuration (for local Pseudopot. screening):
 3s( 2.00)                                                            
 3p( 2.00)                                                            
Vna: chval, zval:    4.00000   4.00000

Vna:  Cut-off radius for the neutral-atom potential:   8.464845

atom: _________________________________________________________________________

<basis_specs>
===============================================================================
H                    Z=   1    Mass=  1.0100        Charge= 0.17977+309
Lmxo=0 Lmxkb= 2    BasisType=split      Semic=F
L=0  Nsemic=0  Cnfigmx=1
          i=1  nzeta=2  polorb=1  (1s)
            splnorm:   0.62000    
               vcte:    0.0000    
               rinn:    0.0000    
               qcoe:    0.0000    
               qyuk:    0.0000    
               qwid:   0.10000E-01
                rcs:    0.0000      0.0000    
            lambdas:    1.0000      1.0000    
-------------------------------------------------------------------------------
L=0  Nkbl=1  erefs: 0.17977+309
L=1  Nkbl=1  erefs: 0.17977+309
L=2  Nkbl=1  erefs: 0.17977+309
===============================================================================
</basis_specs>

atom: Called for H                     (Z =   1)

read_vps: Pseudopotential generation method:
read_vps: ATM4.2.7  Troullier-Martins                       
Valence charge for ps generation:    1.00000

xc_check: Exchange-correlation functional:
xc_check: GGA Perdew, Burke & Ernzerhof 1996
V l=0 = -2*Zval/r beyond r=  0.0098
V l=1 = -2*Zval/r beyond r=  0.5817
V l=2 = -2*Zval/r beyond r=  1.9372
All V_l potentials equal beyond r=  1.9372
This should be close to max(r_c) in ps generation
All pots = -2*Zval/r beyond r=  1.9372

VLOCAL1: 99.0% of the norm of Vloc inside     11.567 Ry
VLOCAL1: 99.9% of the norm of Vloc inside     26.362 Ry
atom: Maximum radius for 4*pi*r*r*local-pseudopot. charge    2.25106
atom: Maximum radius for r*vlocal+2*Zval:    1.91306
GHOST: No ghost state for L =  0
GHOST: No ghost state for L =  1
GHOST: No ghost state for L =  2

KBgen: Kleinman-Bylander projectors: 
   l= 0   rc=  2.036604   el= -0.477180   Ekb= -6.081590   kbcos= -0.277285
   l= 1   rc=  2.195416   el=  0.001076   Ekb= -0.926943   kbcos= -0.034643
   l= 2   rc=  2.251056   el=  0.002010   Ekb= -0.130941   kbcos= -0.009788

KBgen: Total number of Kleinman-Bylander projectors:    9
atom: -------------------------------------------------------------------------

atom: SANKEY-TYPE ORBITALS:
atom: Selected multiple-zeta basis: split     

SPLIT: Orbitals with angular momentum L= 0

SPLIT: Basis orbitals for state 1s

SPLIT: PAO cut-off radius determined from an
SPLIT: energy shift=  0.002000 Ry

   izeta = 1
                 lambda =    1.000000
                     rc =    6.518340
                 energy =   -0.475305
                kinetic =    0.912139
    potential(screened) =   -1.387444
       potential(ionic) =   -1.907295

   izeta = 2
                 rmatch =    2.141150
              splitnorm =    0.620000
                 energy =    0.566467
                kinetic =    3.772856
    potential(screened) =   -3.206389
       potential(ionic) =   -3.759093

POLgen: Perturbative polarization orbital with L=  1

POLgen: Polarization orbital for state 1s

   izeta = 1
                     rc =    6.518340
                 energy =    0.533861
                kinetic =    1.121086
    potential(screened) =   -0.587225
       potential(ionic) =   -1.053027
atom: Total number of Sankey-type orbitals:  5

atm_pop: Valence configuration (for local Pseudopot. screening):
 1s( 1.00)                                                            
Vna: chval, zval:    1.00000   1.00000

Vna:  Cut-off radius for the neutral-atom potential:   6.518340

atom: _________________________________________________________________________

prinput: Basis input ----------------------------------------------------------

PAO.BasisType split     

%block ChemicalSpeciesLabel
    1    8 O                       # Species index, atomic number, species label
    2    7 N                       # Species index, atomic number, species label
    3   14 Si                      # Species index, atomic number, species label
    4    1 H                       # Species index, atomic number, species label
%endblock ChemicalSpeciesLabel

%block PAO.Basis                 # Define Basis set
O                     2                    # Species label, number of l-shells
 n=2   0   2                         # n, l, Nzeta 
   4.244      2.188   
   1.000      1.000   
 n=2   1   2 P   1                   # n, l, Nzeta, Polarization, NzetaPol
   5.315      2.161   
   1.000      1.000   
N                     2                    # Species label, number of l-shells
 n=2   0   2                         # n, l, Nzeta 
   4.730      2.532   
   1.000      1.000   
 n=2   1   2 P   1                   # n, l, Nzeta, Polarization, NzetaPol
   5.924      2.532   
   1.000      1.000   
Si                    2                    # Species label, number of l-shells
 n=3   0   2                         # n, l, Nzeta 
   6.430      3.998   
   1.000      1.000   
 n=3   1   2 P   1                   # n, l, Nzeta, Polarization, NzetaPol
   8.465      4.588   
   1.000      1.000   
H                     1                    # Species label, number of l-shells
 n=1   0   2 P   1                   # n, l, Nzeta, Polarization, NzetaPol
   6.518      2.141   
   1.000      1.000   
%endblock PAO.Basis

prinput: ----------------------------------------------------------------------

Dumping basis to NetCDF file O.ion.nc
Dumping basis to NetCDF file N.ion.nc
Dumping basis to NetCDF file Si.ion.nc
Dumping basis to NetCDF file H.ion.nc
coor:   Atomic-coordinates input format  =     Cartesian coordinates
coor:                                          (in Angstroms)

siesta: Atomic coordinates (Bohr) and species
siesta:      1.97217   7.44407   0.00000  1        1
siesta:     -5.74598   2.02405   0.00000  2        2
siesta:      3.88264   2.29334   0.00000  2        3
siesta:      1.88786  -3.27422   0.00000  2        4
siesta:     -4.02956  -3.42601   0.00000  2        5
siesta:      7.29471  -2.10194   0.00000  2        6
siesta:     -2.33605   2.17879   0.00000  3        7
siesta:     -1.00708  -1.77447   0.00000  3        8
siesta:      1.20122   4.48719   0.00000  3        9
siesta:      4.24276  -1.03929   0.00000  3       10
siesta:     -6.51921  -1.10297   0.00000  3       11
siesta:      5.60061   3.38449   0.00000  4       12
siesta:     -9.15684  -2.12320   0.00000  4       13
siesta:      7.57218  -4.06728   0.00000  4       14
siesta:      9.01814  -0.94924   0.00000  4       15
siesta:     -4.28099  -5.41332   0.00000  4       16
siesta:     12.34668  11.31879   0.00000  3       17
siesta:     15.94639  13.59901   0.00000  3       18
siesta:     15.00955   6.09118   0.00000  3       19
siesta:     18.93540  10.75732   0.00000  3       20
siesta:     12.45935   8.07332   0.00000  2       21
siesta:      9.43814  12.74304   0.00000  2       22
siesta:     18.13194   7.47037   0.00000  2       23
siesta:     16.30798  16.41877   0.00000  4       24
siesta:     21.74045  11.17066   0.00000  4       25
siesta:      9.22773  14.72573   0.00000  4       26
siesta:      7.67586  11.56212   0.00000  4       27
siesta:     14.99023   3.05229   0.00000  1       28
siesta:     19.59728   6.09712   0.00000  4       29

siesta: Automatic unit cell vectors (Ang):
siesta:   25.573737    0.000000    0.000000
siesta:    0.000000   20.296930    0.000000
siesta:    0.000000    0.000000    9.854683

siesta: System type = molecule  

initatomlists: Number of atoms, orbitals, and projectors:     29   297   394

siesta: ******************** Simulation parameters ****************************
siesta:
siesta: The following are some of the parameters of the simulation.
siesta: A complete list of the parameters used, including default values,
siesta: can be found in file out.fdf
siesta:
redata: Spin configuration                          = spin-orbit
redata: Number of spin components                   = 8
redata: Time-Reversal Symmetry                      = F
redata: Spin spiral                                 = F
############################################################
This spin-orbit implementation uses a local approximation.
From 4.2 and onwards the full non-local approximation is implemented
You are strongly advised to use >=4.2 versions!
############################################################
redata: Long output                                 =   F
redata: Number of Atomic Species                    =        4
redata: Charge density info will appear in .RHO file
redata: Write Mulliken Pop.                         = Atomic and Orbital charges
redata: Matel table size (NRTAB)                    =     1024
redata: Mesh Cutoff                                 =   340.0000 Ry
redata: Net charge of the system                    =     0.0000 |e|
redata: Min. number of SCF Iter                     =        1
redata: Max. number of SCF Iter                     =      200
redata: SCF mix quantity                            = Hamiltonian
redata: Mix DM or H after convergence               =   F
redata: Recompute H after scf cycle                 =   F
redata: Mix DM in first SCF step                    =   T
redata: Write Pulay info on disk                    =   F
redata: New DM Occupancy tolerance                  = 0.000000000001
redata: No kicks to SCF
redata: DM Mixing Weight for Kicks                  =     0.5000
redata: Require Harris convergence for SCF          =   F
redata: Harris energy tolerance for SCF             =     0.000100 eV
redata: Require DM convergence for SCF              =   T
redata: DM tolerance for SCF                        =     0.000008
redata: Require EDM convergence for SCF             =   F
redata: EDM tolerance for SCF                       =     0.001000 eV
redata: Require H convergence for SCF               =   T
redata: Hamiltonian tolerance for SCF               =     0.000001 eV
redata: Require (free) Energy convergence for SCF   =   F
redata: (free) Energy tolerance for SCF             =     0.000100 eV
redata: Using Saved Data (generic)                  =   F
redata: Use continuation files for DM               =   F
redata: Neglect nonoverlap interactions             =   F
redata: Method of Calculation                       = Diagonalization
redata: Electronic Temperature                      =   299.9978 K
redata: Fix the spin of the system                  =   F
redata: Dynamics option                             = Single-point calculation
mix.SCF: Pulay mixing                            = Pulay
mix.SCF:    Variant                              = stable
mix.SCF:    History steps                        = 6
mix.SCF:    Linear mixing weight                 =     0.250000
mix.SCF:    Mixing weight                        =     0.250000
mix.SCF:    SVD condition                        = 0.1000E-07
mix.SCF:    Restart steps                        = 24
mix.SCF:    Restart save steps                   = 3
mix.SCF: Spin-component mixing                   all
redata: Save all siesta data in one NC              =   F
redata: ***********************************************************************

%block SCF.Mixers
  Pulay
%endblock SCF.Mixers

%block SCF.Mixer.Pulay
  # Mixing method
  method pulay
  variant stable

  # Mixing options
  weight 0.2500
  weight.linear 0.2500
  history 6
  restart 24
  restart.save 3
%endblock SCF.Mixer.Pulay

DM_history_depth set to one: no extrapolation allowed by default for geometry relaxation
Size of DM history Fstack: 1
Total number of electrons:    98.000000
Total ionic charge:    98.000000

* ProcessorY, Blocksize:    2  24


* Orbital distribution balance (max,min):    81    72


Time-reversal symmetry not used.

siesta: k-grid: Number of k-points =     1
siesta: k-grid: Cutoff (effective) =     4.927 Ang
siesta: k-grid: Supercell and displacements
siesta: k-grid:    1   0   0      0.000
siesta: k-grid:    0   1   0      0.000
siesta: k-grid:    0   0   1      0.000

diag: Algorithm                                     = ELPA-1stage
diag: Parallel over k                               =   F
diag: Use parallel 2D distribution                  =   T
diag: Parallel block-size                           = 24
diag: Parallel distribution                         =     2 x     2
diag: Used triangular part                          = Lower
diag: Absolute tolerance                            =  0.100E-15
diag: Orthogonalization factor                      =  0.100E-05
diag: Memory factor                                 =  1.0000


ts: **************************************************************
ts: Save H and S matrices                           =    F
ts: Save DM and EDM matrices                        =    F
ts: Only save the overlap matrix S                  =    F
ts: **************************************************************

************************ Begin: TS CHECKS AND WARNINGS ************************
************************ End: TS CHECKS AND WARNINGS **************************


                     ====================================
                        Single-point calculation
                     ====================================

outcoor: Atomic coordinates (Ang):                          
    1.04362488    3.93922861    0.00000000   1       1  O
   -3.04064129    1.07107817    0.00000000   2       2  N
    2.05460145    1.21358207    0.00000000   2       3  N
    0.99901410   -1.73264380    0.00000000   2       4  N
   -2.13235164   -1.81296822    0.00000000   2       5  N
    3.86019055   -1.11229818    0.00000000   2       6  N
   -1.23618322    1.15296446    0.00000000   3       7  Si
   -0.53292426   -0.93900627    0.00000000   3       8  Si
    0.63566047    2.37451677    0.00000000   3       9  Si
    2.24517024   -0.54996710    0.00000000   3      10  Si
   -3.44981666   -0.58366503    0.00000000   3      11  Si
    2.96371409    1.79099263    0.00000000   4      12  H
   -4.84559135   -1.12354966    0.00000000   4      13  H
    4.00702091   -2.15230856    0.00000000   4      14  H
    4.77219438   -0.50231816    0.00000000   4      15  H
   -2.26539909   -2.86460511    0.00000000   4      16  H
    6.53358036    5.98964512    0.00000000   3      17  Si
    8.43846433    7.19628406    0.00000000   3      18  Si
    7.94271019    3.22331015    0.00000000   3      19  Si
   10.02018048    5.69252731    0.00000000   3      20  Si
    6.59320303    4.27221755    0.00000000   2      21  N
    4.99444530    6.74332243    0.00000000   2      22  N
    9.59500545    3.95314737    0.00000000   2      23  N
    8.62980913    8.68843781    0.00000000   4      24  H
   11.50454846    5.91125813    0.00000000   4      25  H
    4.88310002    7.79251754    0.00000000   4      26  H
    4.06188759    6.11840825    0.00000000   4      27  H
    7.93248336    1.61519903    0.00000000   1      28  O
   10.37043133    3.22645581    0.00000000   4      29  H

outcell: Unit cell vectors (Ang):
       25.573737    0.000000    0.000000
        0.000000   20.296930    0.000000
        0.000000    0.000000    9.854683

outcell: Cell vector modules (Ang)   :   25.573737   20.296930    9.854683
outcell: Cell angles (23,13,12) (deg):     90.0000     90.0000     90.0000
outcell: Cell volume (Ang**3)        :   5115.2541
<dSpData1D:S at geom step 0
  <sparsity:sparsity for geom step 0
    nrows_g=297 nrows=81 sparsity=.1876 nnzs=16550, refcount: 8>
  <dData1D:(new from dSpData1D) n=16550, refcount: 1>
refcount: 1>
new_DM -- step:     1
Initializing Density Matrix...
DM filled with atomic data:
<dSpData2D:DM initialized from atoms
  <sparsity:sparsity for geom step 0
    nrows_g=297 nrows=81 sparsity=.1876 nnzs=16550, refcount: 9>
  <dData2D:DM n=16550 m=8, refcount: 1>
refcount: 1>
     spin moment: S , {S} =   56.00000   0.00000   0.00000  56.00000
No. of atoms with KB's overlaping orbs in proc 0. Max # of overlaps:      29     162

Initializing spin-orbit part of the Hamiltonian
  Adding spin-orbit effects for O 
  Adding spin-orbit effects for N 
  Adding spin-orbit effects for Si
  Adding spin-orbit effects for H 


New grid distribution:   1
           1       1:  144    1:   60    1:   30
           2       1:  144    1:   60   31:   60
           3       1:  144   61:  120    1:   30
           4       1:  144   61:  120   31:   60

InitMesh: MESH =   288 x   240 x   120 =     8294400
InitMesh: (bp) =   144 x   120 x    60 =     1036800
InitMesh: Mesh cutoff (required, used) =   340.000   350.508 Ry
ExtMesh (bp) on 0 =   248 x   168 x   142 =     5916288
New grid distribution:   2
           1      45:  144    1:   31    1:   60
           2       1:   44    1:   31    1:   60
           3      45:  144   32:  120    1:   60
           4       1:   44   32:  120    1:   60
New grid distribution:   3
           1      50:  144    1:   36    1:   60
           2       1:   49    1:   40    1:   60
           3      50:  144   37:  120    1:   60
           4       1:   49   41:  120    1:   60
Setting up quadratic distribution...
ExtMesh (bp) on 0 =   204 x   139 x   172 =     4877232
PhiOnMesh: Number of (b)points on node 0 =               186000
PhiOnMesh: nlist on node 0 =              2536657

stepf: Fermi-Dirac step function

siesta: Program's energy decomposition (eV):
siesta: Ebs     =      -616.979616
siesta: Eions   =      3585.165840
siesta: Ena     =       382.018302
siesta: Ekin    =      3369.137919
siesta: Enl     =     -3297.757632
siesta: Eso     =        -0.003410
siesta: Edftu   =         0.000000
siesta: DEna    =       153.592522
siesta: DUscf   =        81.305610
siesta: DUext   =         0.000000
siesta: Exc     =     -1204.010699
siesta: eta*DQ  =         0.000000
siesta: Emadel  =         0.000000
siesta: Emeta   =         0.000000
siesta: Emolmec =         0.000000
siesta: Ekinion =         0.000000
siesta: Eharris =     -4022.045974
siesta: Etot    =     -4100.883228
siesta: FreeEng =     -4100.884649

        iscf     Eharris(eV)        E_KS(eV)     FreeEng(eV)     dDmax    Ef(eV) dHmax(eV)
   scf:    1    -4022.045974    -4100.883228    -4100.884649  0.964822 -4.904561 21.740495
     spin moment: S , {S} =    2.00729   0.00000   0.00000   2.00729
timer: Routine,Calls,Time,% = IterSCF        1      12.638  18.09
   scf:    2    -4148.023923    -4136.414255    -4136.415804  0.454042 -4.215304 11.643570
     spin moment: S , {S} =    1.99090   0.00000   0.00000   1.99090
   scf:    3    -4109.830760    -4134.214952    -4134.227904  0.423959 -4.311050 11.556264
     spin moment: S , {S} =    2.00715  -0.00000  -0.00000   2.00715
   scf:    4    -4149.729167    -4145.154429    -4145.154430  0.309188 -3.898030  6.386937
     spin moment: S , {S} =    0.00010   0.00000  -0.00000   0.00010
   scf:    5    -4146.406965    -4145.879313    -4145.879313  0.035366 -3.687307  4.297350
     spin moment: S , {S} =    0.00006   0.00000  -0.00000   0.00006
   scf:    6    -4146.647724    -4146.272223    -4146.272223  0.024563 -3.644944  2.089596
     spin moment: S , {S} =    0.00003  -0.00000  -0.00000   0.00003
   scf:    7    -4146.616175    -4146.441134    -4146.441134  0.021032 -3.669083  0.889909
     spin moment: S , {S} =    0.00001   0.00000   0.00000   0.00001
   scf:    8    -4146.562465    -4146.499739    -4146.499739  0.012685 -3.741757  0.490218
     spin moment: S , {S} =    0.00000   0.00000  -0.00000   0.00000
   scf:    9    -4146.537237    -4146.517831    -4146.517831  0.006482 -3.780360  0.359335
     spin moment: S , {S} =    0.00000   0.00000  -0.00000   0.00000
   scf:   10    -4146.567882    -4146.537382    -4146.537382  0.020403 -3.791984  0.214866
     spin moment: S , {S} =    0.00000  -0.00000   0.00000  -0.00000
   scf:   11    -4146.540815    -4146.539057    -4146.539057  0.005567 -3.782119  0.058158
     spin moment: S , {S} =    0.00000   0.00000   0.00000  -0.00000
   scf:   12    -4146.539943    -4146.539512    -4146.539512  0.001114 -3.777533  0.023356
     spin moment: S , {S} =    0.00000   0.00000  -0.00000   0.00000
   scf:   13    -4146.539916    -4146.539711    -4146.539711  0.001321 -3.774859  0.015785
     spin moment: S , {S} =    0.00000   0.00000   0.00000   0.00000
   scf:   14    -4146.539947    -4146.539822    -4146.539822  0.001236 -3.774188  0.012677
     spin moment: S , {S} =    0.00000  -0.00000   0.00000   0.00000
   scf:   15    -4146.539947    -4146.539879    -4146.539879  0.001118 -3.774072  0.009394
     spin moment: S , {S} =    0.00000  -0.00000   0.00000   0.00000
   scf:   16    -4146.539966    -4146.539917    -4146.539917  0.001165 -3.774361  0.006037
     spin moment: S , {S} =    0.00000  -0.00000   0.00000   0.00000
   scf:   17    -4146.539944    -4146.539929    -4146.539929  0.000654 -3.774291  0.004198
     spin moment: S , {S} =    0.00000   0.00000   0.00000   0.00000
   scf:   18    -4146.539939    -4146.539933    -4146.539933  0.000427 -3.774315  0.002313
     spin moment: S , {S} =    0.00000   0.00000  -0.00000   0.00000
   scf:   19    -4146.539938    -4146.539935    -4146.539935  0.000284 -3.774346  0.001304
     spin moment: S , {S} =    0.00000   0.00000  -0.00000   0.00000
   scf:   20    -4146.539937    -4146.539936    -4146.539936  0.000151 -3.774372  0.000778
     spin moment: S , {S} =    0.00000  -0.00000  -0.00000   0.00000
   scf:   21    -4146.539937    -4146.539936    -4146.539936  0.000132 -3.774384  0.000236
     spin moment: S , {S} =    0.00000  -0.00000  -0.00000   0.00000
   scf:   22    -4146.539936    -4146.539936    -4146.539936  0.000045 -3.774368  0.000116
     spin moment: S , {S} =    0.00000  -0.00000  -0.00000   0.00000
   scf:   23    -4146.539936    -4146.539936    -4146.539936  0.000010 -3.774362  0.000076
     spin moment: S , {S} =    0.00000   0.00000  -0.00000   0.00000
   scf:   24    -4146.539936    -4146.539936    -4146.539936  0.000003 -3.774356  0.000047
     spin moment: S , {S} =    0.00000   0.00000  -0.00000   0.00000
mix: Pulay -- resetting history
   scf:   25    -4146.539936    -4146.539936    -4146.539936  0.000003 -3.774353  0.000031
     spin moment: S , {S} =    0.00000   0.00000  -0.00000  -0.00000
   scf:   26    -4146.539936    -4146.539936    -4146.539936  0.000003 -3.774352  0.000017
     spin moment: S , {S} =    0.00000   0.00000  -0.00000  -0.00000
   scf:   27    -4146.539936    -4146.539936    -4146.539936  0.000002 -3.774351  0.000007
     spin moment: S , {S} =    0.00000   0.00000  -0.00000  -0.00000
   scf:   28    -4146.539936    -4146.539936    -4146.539936  0.000001 -3.774351  0.000004
     spin moment: S , {S} =    0.00000   0.00000  -0.00000  -0.00000
   scf:   29    -4146.539936    -4146.539936    -4146.539936  0.000000 -3.774352  0.000002
     spin moment: S , {S} =    0.00000   0.00000  -0.00000  -0.00000
   scf:   30    -4146.539936    -4146.539936    -4146.539936  0.000000 -3.774352  0.000001
     spin moment: S , {S} =    0.00000   0.00000  -0.00000  -0.00000
   scf:   31    -4146.539936    -4146.539936    -4146.539936  0.000000 -3.774352  0.000001
     spin moment: S , {S} =    0.00000   0.00000  -0.00000  -0.00000

SCF Convergence by DM+H criterion
max |DM_out - DM_in|         :     0.0000001845
max |H_out - H_in|      (eV) :     0.0000006389
SCF cycle converged after 31 iterations

Using DM_out to compute the final energy and forces
No. of atoms with KB's overlaping orbs in proc 0. Max # of overlaps:      29     162

siesta: E_KS(eV) =            -4146.5399

siesta: E_KS - E_eggbox =     -4146.5399
     spin moment: S , {S} =    0.00000   0.00000  -0.00000  -0.00000

siesta: Atomic forces (eV/Ang):
     1    4.083925    0.598818    0.000000
     2   -0.008737    0.025292   -0.000000
     3    0.730937   -0.350476   -0.000000
     4    0.695292   -0.015801   -0.000000
     5    0.040672   -0.087489   -0.000000
     6    1.745499    0.664317    0.000000
     7    0.041498   -0.245016   -0.000000
     8   -0.386514    0.271297    0.000000
     9   -0.165465    1.204243   -0.000000
    10   -0.948440    0.349277   -0.000000
    11   -0.020296   -0.019735    0.000000
    12   -0.367372   -0.247712    0.000000
    13    0.006589    0.021382    0.000000
    14    0.178616   -0.057350    0.000000
    15   -1.183636   -0.865849   -0.000000
    16   -0.064308    0.116836   -0.000000
    17    0.946815   -1.056339   -0.000000
    18   -0.204681    0.188691    0.000000
    19   -0.184629   -1.156204   -0.000000
    20   -0.016348   -0.392023    0.000000
    21   -0.283457    0.969694   -0.000000
    22   -2.142421   -0.916066    0.000000
    23    0.250898    0.501864   -0.000000
    24    0.049125    0.013359    0.000000
    25    0.096963    0.029569   -0.000000
    26   -0.248896   -0.319593   -0.000000
    27    1.625819    1.303911    0.000000
    28   -2.260791   -0.975039    0.000000
    29    0.022563    0.053942    0.000000
----------------------------------------
   Tot    2.029222   -0.392200   -0.000000
----------------------------------------
   Max    4.083925
   Res    0.741434    sqrt( Sum f_i^2 / 3N )
----------------------------------------
   Max    4.083925    constrained

Stress tensor Voigt[x,y,z,yz,xz,xy] (kbar):        0.30        1.61       -0.09        0.00        0.00        1.49
(Free)E + p*V (eV/cell)    -4148.4716
Target enthalpy (eV/cell)    -4146.5399

mulliken: Atomic and Orbital Populations:

Species: O                   

Atom      Orb        Charge      Spin       Svec
----------------------------------------------------------------
    1  1 2s         1.74874   0.00000     -0.000   0.000  -0.000
    1  2 2s         0.06409   0.00000      0.000  -0.000  -0.000
    1  3 2py        1.43413   0.00000     -0.000   0.000  -0.000
    1  4 2pz        1.55110   0.00000      0.000  -0.000  -0.000
    1  5 2px        1.62901   0.00000     -0.000  -0.000  -0.000
    1  6 2py        0.03594   0.00000      0.000  -0.000   0.000
    1  7 2pz       -0.00780   0.00000     -0.000   0.000   0.000
    1  8 2px        0.00314   0.00000     -0.000   0.000  -0.000
    1  9 3Pdxy      0.00685   0.00000     -0.000   0.000   0.000
    1 10 3Pdyz      0.00888   0.00000      0.000  -0.000   0.000
    1 11 3Pdz2      0.00155   0.00000     -0.000  -0.000  -0.000
    1 12 3Pdxz      0.00035   0.00000      0.000   0.000   0.000
    1 13 3Pdx2-y2   0.00684   0.00000     -0.000  -0.000   0.000
    1     Total     6.48284   0.00000     -0.000  -0.000  -0.000

   28  1 2s         1.74419   0.00000     -0.000   0.000   0.000
   28  2 2s         0.06700   0.00000      0.000  -0.000   0.000
   28  3 2py        1.41573   0.00000      0.000  -0.000   0.000
   28  4 2pz        1.55009   0.00000      0.000  -0.000   0.000
   28  5 2px        1.64696   0.00000      0.000  -0.000   0.000
   28  6 2py        0.03882   0.00000     -0.000   0.000   0.000
   28  7 2pz       -0.00597   0.00000     -0.000   0.000   0.000
   28  8 2px        0.00881   0.00000      0.000  -0.000   0.000
   28  9 3Pdxy      0.00628   0.00000      0.000  -0.000   0.000
   28 10 3Pdyz      0.00960   0.00000     -0.000   0.000  -0.000
   28 11 3Pdz2      0.00123   0.00000      0.000  -0.000  -0.000
   28 12 3Pdxz     -0.00019   0.00000     -0.000   0.000  -0.000
   28 13 3Pdx2-y2   0.00767   0.00000      0.000  -0.000   0.000
   28     Total     6.49023   0.00000      0.000  -0.000   0.000

----------------------------------------------------------------
Total              12.97307   0.00000      0.000  -0.000  -0.000


Species: N                   

Atom      Orb        Charge      Spin       Svec
----------------------------------------------------------------
    2  1 2s         1.55072   0.00000     -0.000  -0.000  -0.000
    2  2 2s         0.08438   0.00000      0.000   0.000   0.000
    2  3 2py        1.04423   0.00000     -0.000  -0.000  -0.000
    2  4 2pz        1.22429   0.00000      0.000  -0.000  -0.000
    2  5 2px        0.99054   0.00000     -0.000  -0.000  -0.000
    2  6 2py        0.18824   0.00000      0.000   0.000   0.000
    2  7 2pz        0.05534   0.00000     -0.000   0.000   0.000
    2  8 2px        0.19569   0.00000      0.000   0.000   0.000
    2  9 3Pdxy      0.00837   0.00000     -0.000  -0.000   0.000
    2 10 3Pdyz      0.01098   0.00000     -0.000   0.000   0.000
    2 11 3Pdz2      0.00194   0.00000     -0.000  -0.000  -0.000
    2 12 3Pdxz      0.00758   0.00000      0.000  -0.000   0.000
    2 13 3Pdx2-y2   0.00907   0.00000     -0.000   0.000  -0.000
    2     Total     5.37137   0.00000     -0.000  -0.000  -0.000

    3  1 2s         1.39937   0.00000     -0.000  -0.000  -0.000
    3  2 2s         0.11700   0.00000      0.000  -0.000   0.000
    3  3 2py        0.94199   0.00000      0.000  -0.000  -0.000
    3  4 2pz        1.54407   0.00000     -0.000   0.000  -0.000
    3  5 2px        1.08387   0.00000      0.000  -0.000  -0.000
    3  6 2py        0.24846   0.00000     -0.000  -0.000   0.000
    3  7 2pz        0.00679   0.00000      0.000  -0.000   0.000
    3  8 2px        0.17786   0.00000     -0.000   0.000   0.000
    3  9 3Pdxy      0.00394   0.00000     -0.000   0.000  -0.000
    3 10 3Pdyz      0.00412   0.00000     -0.000  -0.000  -0.000
    3 11 3Pdz2      0.00073   0.00000     -0.000  -0.000  -0.000
    3 12 3Pdxz      0.00276   0.00000     -0.000   0.000  -0.000
    3 13 3Pdx2-y2   0.00277   0.00000      0.000   0.000  -0.000
    3     Total     5.53373   0.00000      0.000  -0.000  -0.000

    4  1 2s         1.46018   0.00000      0.000  -0.000   0.000
    4  2 2s         0.11880   0.00000     -0.000   0.000   0.000
    4  3 2py        1.13033   0.00000     -0.000   0.000   0.000
    4  4 2pz        1.29500   0.00000      0.000   0.000   0.000
    4  5 2px        0.82611   0.00000     -0.000  -0.000  -0.000
    4  6 2py        0.14967   0.00000     -0.000  -0.000   0.000
    4  7 2pz        0.05343   0.00000      0.000  -0.000   0.000
    4  8 2px        0.29230   0.00000      0.000   0.000   0.000
    4  9 3Pdxy      0.00870   0.00000      0.000  -0.000  -0.000
    4 10 3Pdyz      0.01045   0.00000     -0.000   0.000  -0.000
    4 11 3Pdz2      0.00126   0.00000      0.000  -0.000  -0.000
    4 12 3Pdxz      0.00494   0.00000      0.000  -0.000  -0.000
    4 13 3Pdx2-y2   0.00798   0.00000     -0.000  -0.000  -0.000
    4     Total     5.35916   0.00000     -0.000  -0.000   0.000

    5  1 2s         1.37629   0.00000      0.000  -0.000  -0.000
    5  2 2s         0.12793   0.00000     -0.000  -0.000   0.000
    5  3 2py        1.02655   0.00000      0.000   0.000  -0.000
    5  4 2pz        1.50078   0.00000     -0.000  -0.000  -0.000
    5  5 2px        1.06009   0.00000      0.000  -0.000  -0.000
    5  6 2py        0.20350   0.00000      0.000  -0.000   0.000
    5  7 2pz        0.01340   0.00000      0.000  -0.000   0.000
    5  8 2px        0.20103   0.00000     -0.000   0.000   0.000
    5  9 3Pdxy      0.00393   0.00000     -0.000  -0.000   0.000
    5 10 3Pdyz      0.00241   0.00000      0.000  -0.000   0.000
    5 11 3Pdz2      0.00142   0.00000      0.000  -0.000   0.000
    5 12 3Pdxz      0.00683   0.00000      0.000  -0.000   0.000
    5 13 3Pdx2-y2   0.00560   0.00000     -0.000   0.000   0.000
    5     Total     5.52975   0.00000      0.000  -0.000  -0.000

    6  1 2s         1.26925   0.00000     -0.000   0.000  -0.000
    6  2 2s         0.17953   0.00000      0.000  -0.000   0.000
    6  3 2py        1.07856   0.00000      0.000   0.000  -0.000
    6  4 2pz        1.56985   0.00000      0.000   0.000  -0.000
    6  5 2px        0.95881   0.00000     -0.000  -0.000  -0.000
    6  6 2py        0.18766   0.00000     -0.000  -0.000   0.000
    6  7 2pz        0.03011   0.00000     -0.000  -0.000   0.000
    6  8 2px        0.25526   0.00000      0.000  -0.000   0.000
    6  9 3Pdxy      0.00233   0.00000      0.000   0.000   0.000
    6 10 3Pdyz      0.00014   0.00000      0.000   0.000  -0.000
    6 11 3Pdz2      0.00173   0.00000     -0.000   0.000   0.000
    6 12 3Pdxz      0.00331   0.00000      0.000   0.000  -0.000
    6 13 3Pdx2-y2   0.00398   0.00000      0.000  -0.000   0.000
    6     Total     5.54051   0.00000     -0.000   0.000  -0.000

   21  1 2s         1.42175   0.00000      0.000   0.000   0.000
   21  2 2s         0.12891   0.00000     -0.000  -0.000  -0.000
   21  3 2py        0.87274   0.00000     -0.000   0.000  -0.000
   21  4 2pz        1.29682   0.00000      0.000   0.000   0.000
   21  5 2px        1.15849   0.00000      0.000   0.000  -0.000
   21  6 2py        0.27508   0.00000      0.000  -0.000   0.000
   21  7 2pz        0.04858   0.00000      0.000  -0.000   0.000
   21  8 2px        0.16207   0.00000     -0.000  -0.000   0.000
   21  9 3Pdxy      0.00637   0.00000      0.000   0.000   0.000
   21 10 3Pdyz      0.00498   0.00000      0.000  -0.000  -0.000
   21 11 3Pdz2      0.00015   0.00000     -0.000  -0.000  -0.000
   21 12 3Pdxz      0.00579   0.00000      0.000   0.000  -0.000
   21 13 3Pdx2-y2   0.00560   0.00000     -0.000  -0.000  -0.000
   21     Total     5.38733   0.00000      0.000   0.000   0.000

   22  1 2s         1.29381   0.00000     -0.000   0.000  -0.000
   22  2 2s         0.16838   0.00000      0.000  -0.000   0.000
   22  3 2py        1.05803   0.00000     -0.000   0.000  -0.000
   22  4 2pz        1.55183   0.00000      0.000   0.000  -0.000
   22  5 2px        0.98671   0.00000      0.000  -0.000  -0.000
   22  6 2py        0.19663   0.00000      0.000  -0.000   0.000
   22  7 2pz        0.02857   0.00000     -0.000   0.000  -0.000
   22  8 2px        0.23451   0.00000     -0.000  -0.000   0.000
   22  9 3Pdxy      0.00319   0.00000     -0.000  -0.000  -0.000
   22 10 3Pdyz      0.00033   0.00000      0.000  -0.000  -0.000
   22 11 3Pdz2      0.00251   0.00000     -0.000  -0.000   0.000
   22 12 3Pdxz      0.00323   0.00000      0.000  -0.000  -0.000
   22 13 3Pdx2-y2   0.00472   0.00000      0.000  -0.000  -0.000
   22     Total     5.53246   0.00000     -0.000   0.000  -0.000

   23  1 2s         1.39603   0.00000     -0.000  -0.000   0.000
   23  2 2s         0.11845   0.00000      0.000   0.000  -0.000
   23  3 2py        1.00775   0.00000      0.000   0.000   0.000
   23  4 2pz        1.52621   0.00000     -0.000   0.000  -0.000
   23  5 2px        1.06419   0.00000      0.000   0.000  -0.000
   23  6 2py        0.21131   0.00000     -0.000  -0.000  -0.000
   23  7 2pz        0.00485   0.00000     -0.000  -0.000  -0.000
   23  8 2px        0.19805   0.00000     -0.000   0.000   0.000
   23  9 3Pdxy      0.00528   0.00000      0.000   0.000   0.000
   23 10 3Pdyz      0.00445   0.00000     -0.000  -0.000  -0.000
   23 11 3Pdz2      0.00065   0.00000     -0.000   0.000  -0.000
   23 12 3Pdxz      0.00244   0.00000     -0.000  -0.000  -0.000
   23 13 3Pdx2-y2   0.00136   0.00000     -0.000   0.000  -0.000
   23     Total     5.54102   0.00000      0.000   0.000  -0.000

----------------------------------------------------------------
Total              56.76841   0.00000      0.000   0.000  -0.000


Species: Si                  

Atom      Orb        Charge      Spin       Svec
----------------------------------------------------------------
    7  1 3s         0.66812   0.00000     -0.000   0.000   0.000
    7  2 3s         0.36457   0.00000      0.000  -0.000   0.000
    7  3 3py        0.48811   0.00000      0.000  -0.000   0.000
    7  4 3pz        0.69304   0.00000      0.000   0.000   0.000
    7  5 3px        0.12521   0.00000     -0.000   0.000   0.000
    7  6 3py        0.26446   0.00000      0.000   0.000   0.000
    7  7 3pz        0.25887   0.00000     -0.000  -0.000   0.000
    7  8 3px        0.43791   0.00000      0.000  -0.000   0.000
    7  9 3Pdxy      0.24546   0.00000      0.000   0.000   0.000
    7 10 3Pdyz      0.02924   0.00000      0.000  -0.000   0.000
    7 11 3Pdz2      0.01174   0.00000      0.000  -0.000   0.000
    7 12 3Pdxz      0.14551   0.00000     -0.000   0.000  -0.000
    7 13 3Pdx2-y2   0.11288   0.00000     -0.000   0.000   0.000
    7     Total     3.84512   0.00000      0.000  -0.000   0.000

    8  1 3s         0.65648   0.00000      0.000   0.000   0.000
    8  2 3s         0.36860   0.00000     -0.000  -0.000   0.000
    8  3 3py        0.38843   0.00000      0.000   0.000  -0.000
    8  4 3pz        0.52301   0.00000      0.000   0.000   0.000
    8  5 3px       -0.03011   0.00000      0.000  -0.000  -0.000
    8  6 3py        0.30875   0.00000     -0.000  -0.000   0.000
    8  7 3pz        0.20236   0.00000      0.000   0.000   0.000
    8  8 3px        0.51474   0.00000     -0.000  -0.000   0.000
    8  9 3Pdxy      0.24627   0.00000     -0.000   0.000   0.000
    8 10 3Pdyz      0.11220   0.00000     -0.000   0.000  -0.000
    8 11 3Pdz2      0.01440   0.00000     -0.000  -0.000   0.000
    8 12 3Pdxz      0.15374   0.00000      0.000   0.000  -0.000
    8 13 3Pdx2-y2   0.20043   0.00000      0.000   0.000   0.000
    8     Total     3.65931   0.00000      0.000   0.000   0.000

    9  1 3s         0.60388   0.00000      0.000   0.000   0.000
    9  2 3s         0.36630   0.00000     -0.000  -0.000  -0.000
    9  3 3py        0.07539   0.00000     -0.000  -0.000   0.000
    9  4 3pz        0.48513   0.00000     -0.000  -0.000  -0.000
    9  5 3px        0.37985   0.00000     -0.000   0.000  -0.000
    9  6 3py        0.44687   0.00000      0.000  -0.000   0.000
    9  7 3pz        0.18667   0.00000     -0.000   0.000  -0.000
    9  8 3px        0.27333   0.00000      0.000  -0.000   0.000
    9  9 3Pdxy      0.31152   0.00000      0.000  -0.000   0.000
    9 10 3Pdyz      0.19064   0.00000     -0.000  -0.000  -0.000
    9 11 3Pdz2      0.01628   0.00000      0.000  -0.000  -0.000
    9 12 3Pdxz      0.09840   0.00000      0.000   0.000  -0.000
    9 13 3Pdx2-y2   0.17269   0.00000      0.000  -0.000   0.000
    9     Total     3.60696   0.00000      0.000  -0.000  -0.000

   10  1 3s         0.48178   0.00000      0.000   0.000   0.000
   10  2 3s         0.37813   0.00000      0.000  -0.000   0.000
   10  3 3py        0.24059   0.00000     -0.000   0.000   0.000
   10  4 3pz        0.40776   0.00000      0.000   0.000   0.000
   10  5 3px        0.10100   0.00000      0.000   0.000  -0.000
   10  6 3py        0.32744   0.00000     -0.000  -0.000  -0.000
   10  7 3pz        0.22276   0.00000     -0.000  -0.000   0.000
   10  8 3px        0.42974   0.00000     -0.000   0.000   0.000
   10  9 3Pdxy      0.16948   0.00000     -0.000   0.000  -0.000
   10 10 3Pdyz      0.13903   0.00000      0.000  -0.000   0.000
   10 11 3Pdz2      0.01022   0.00000     -0.000   0.000  -0.000
   10 12 3Pdxz      0.17520   0.00000      0.000  -0.000   0.000
   10 13 3Pdx2-y2   0.30965   0.00000      0.000  -0.000  -0.000
   10     Total     3.39277   0.00000     -0.000   0.000   0.000

   11  1 3s         0.55279   0.00000     -0.000  -0.000   0.000
   11  2 3s         0.38519   0.00000      0.000   0.000   0.000
   11  3 3py        0.32208   0.00000     -0.000  -0.000   0.000
   11  4 3pz        0.54139   0.00000      0.000   0.000   0.000
   11  5 3px        0.12460   0.00000     -0.000  -0.000   0.000
   11  6 3py        0.28671   0.00000      0.000   0.000   0.000
   11  7 3pz        0.17724   0.00000     -0.000  -0.000   0.000
   11  8 3px        0.44616   0.00000      0.000   0.000   0.000
   11  9 3Pdxy      0.22542   0.00000     -0.000  -0.000   0.000
   11 10 3Pdyz      0.12643   0.00000     -0.000   0.000   0.000
   11 11 3Pdz2      0.00960   0.00000      0.000   0.000   0.000
   11 12 3Pdxz      0.05287   0.00000     -0.000  -0.000   0.000
   11 13 3Pdx2-y2   0.20396   0.00000      0.000   0.000   0.000
   11     Total     3.45445   0.00000     -0.000   0.000   0.000

   17  1 3s         0.63769   0.00000     -0.000  -0.000   0.000
   17  2 3s         0.36126   0.00000      0.000   0.000  -0.000
   17  3 3py        0.22544   0.00000     -0.000  -0.000  -0.000
   17  4 3pz        0.42126   0.00000     -0.000  -0.000  -0.000
   17  5 3px        0.24480   0.00000      0.000  -0.000   0.000
   17  6 3py        0.38767   0.00000     -0.000   0.000  -0.000
   17  7 3pz        0.21205   0.00000      0.000  -0.000   0.000
   17  8 3px        0.36957   0.00000     -0.000   0.000  -0.000
   17  9 3Pdxy      0.30073   0.00000     -0.000  -0.000  -0.000
   17 10 3Pdyz      0.14233   0.00000      0.000   0.000   0.000
   17 11 3Pdz2      0.00898   0.00000     -0.000  -0.000   0.000
   17 12 3Pdxz      0.14340   0.00000     -0.000   0.000   0.000
   17 13 3Pdx2-y2   0.16398   0.00000      0.000  -0.000   0.000
   17     Total     3.61917   0.00000     -0.000  -0.000   0.000

   18  1 3s         0.74389   0.00000      0.000  -0.000   0.000
   18  2 3s         0.33997   0.00000     -0.000   0.000  -0.000
   18  3 3py        0.07771   0.00000      0.000  -0.000   0.000
   18  4 3pz        0.81889   0.00000     -0.000   0.000   0.000
   18  5 3px        0.55533   0.00000     -0.000  -0.000   0.000
   18  6 3py        0.51925   0.00000     -0.000   0.000   0.000
   18  7 3pz        0.19806   0.00000     -0.000   0.000   0.000
   18  8 3px        0.25057   0.00000      0.000   0.000   0.000
   18  9 3Pdxy      0.10320   0.00000     -0.000   0.000  -0.000
   18 10 3Pdyz      0.02753   0.00000      0.000   0.000  -0.000
   18 11 3Pdz2      0.00867   0.00000      0.000  -0.000  -0.000
   18 12 3Pdxz      0.03037   0.00000      0.000  -0.000  -0.000
   18 13 3Pdx2-y2   0.11260   0.00000     -0.000   0.000  -0.000
   18     Total     3.78605   0.00000      0.000   0.000   0.000

   19  1 3s         0.46048   0.00000      0.000   0.000   0.000
   19  2 3s         0.36472   0.00000     -0.000  -0.000  -0.000
   19  3 3py        0.08393   0.00000     -0.000  -0.000   0.000
   19  4 3pz        0.42919   0.00000      0.000  -0.000  -0.000
   19  5 3px        0.35874   0.00000     -0.000   0.000  -0.000
   19  6 3py        0.46957   0.00000      0.000   0.000  -0.000
   19  7 3pz        0.18235   0.00000     -0.000  -0.000  -0.000
   19  8 3px        0.23828   0.00000      0.000  -0.000  -0.000
   19  9 3Pdxy      0.34166   0.00000     -0.000   0.000  -0.000
   19 10 3Pdyz      0.18923   0.00000     -0.000   0.000  -0.000
   19 11 3Pdz2      0.01594   0.00000      0.000   0.000  -0.000
   19 12 3Pdxz      0.08920   0.00000     -0.000  -0.000   0.000
   19 13 3Pdx2-y2   0.23942   0.00000     -0.000  -0.000  -0.000
   19     Total     3.46272   0.00000     -0.000  -0.000  -0.000

   20  1 3s         0.67376   0.00000     -0.000   0.000  -0.000
   20  2 3s         0.37779   0.00000      0.000  -0.000  -0.000
   20  3 3py        0.32993   0.00000     -0.000  -0.000  -0.000
   20  4 3pz        0.59259   0.00000      0.000  -0.000  -0.000
   20  5 3px        0.13839   0.00000     -0.000   0.000  -0.000
   20  6 3py        0.29202   0.00000      0.000  -0.000   0.000
   20  7 3pz        0.16362   0.00000     -0.000  -0.000  -0.000
   20  8 3px        0.49970   0.00000     -0.000  -0.000   0.000
   20  9 3Pdxy      0.09995   0.00000     -0.000  -0.000  -0.000
   20 10 3Pdyz      0.13340   0.00000      0.000   0.000  -0.000
   20 11 3Pdz2      0.00737   0.00000     -0.000  -0.000   0.000
   20 12 3Pdxz      0.02689   0.00000      0.000  -0.000   0.000
   20 13 3Pdx2-y2   0.17243   0.00000      0.000   0.000  -0.000
   20     Total     3.50784   0.00000     -0.000   0.000  -0.000

----------------------------------------------------------------
Total              89.10280   0.00000     -0.000   0.000   0.000


Species: H                   

Atom      Orb        Charge      Spin       Svec
----------------------------------------------------------------
   12  1 1s         0.49331   0.00000     -0.000   0.000  -0.000
   12  2 1s         0.18220   0.00000      0.000  -0.000  -0.000
   12  3 2Ppy       0.02900   0.00000     -0.000  -0.000  -0.000
   12  4 2Ppz       0.03339   0.00000      0.000  -0.000  -0.000
   12  5 2Ppx       0.02298   0.00000      0.000  -0.000  -0.000
   12     Total     0.76089   0.00000     -0.000  -0.000  -0.000

   13  1 1s         1.01939   0.00000      0.000   0.000  -0.000
   13  2 1s         0.09534   0.00000     -0.000  -0.000   0.000
   13  3 2Ppy       0.01808   0.00000      0.000   0.000  -0.000
   13  4 2Ppz       0.02012   0.00000     -0.000  -0.000   0.000
   13  5 2Ppx       0.03510   0.00000     -0.000   0.000   0.000
   13     Total     1.18803   0.00000      0.000   0.000  -0.000

   14  1 1s         0.46097   0.00000     -0.000  -0.000  -0.000
   14  2 1s         0.19999   0.00000     -0.000   0.000   0.000
   14  3 2Ppy       0.01801   0.00000      0.000   0.000   0.000
   14  4 2Ppz       0.04546   0.00000     -0.000  -0.000  -0.000
   14  5 2Ppx       0.01717   0.00000      0.000  -0.000   0.000
   14     Total     0.74160   0.00000     -0.000  -0.000   0.000

   15  1 1s         0.48936   0.00000      0.000   0.000   0.000
   15  2 1s         0.17924   0.00000      0.000   0.000  -0.000
   15  3 2Ppy       0.00532   0.00000      0.000  -0.000   0.000
   15  4 2Ppz       0.04059   0.00000      0.000  -0.000  -0.000
   15  5 2Ppx       0.02928   0.00000      0.000   0.000   0.000
   15     Total     0.74379   0.00000      0.000  -0.000   0.000

   16  1 1s         0.50967   0.00000     -0.000   0.000  -0.000
   16  2 1s         0.18729   0.00000     -0.000   0.000   0.000
   16  3 2Ppy       0.02979   0.00000     -0.000  -0.000   0.000
   16  4 2Ppz       0.03980   0.00000      0.000  -0.000  -0.000
   16  5 2Ppx       0.02359   0.00000     -0.000  -0.000   0.000
   16     Total     0.79015   0.00000     -0.000  -0.000   0.000

   24  1 1s         1.06285   0.00000      0.000  -0.000  -0.000
   24  2 1s         0.07430   0.00000     -0.000   0.000   0.000
   24  3 2Ppy       0.03217   0.00000     -0.000   0.000  -0.000
   24  4 2Ppz       0.03061   0.00000     -0.000   0.000   0.000
   24  5 2Ppx       0.01729   0.00000      0.000  -0.000   0.000
   24     Total     1.21724   0.00000      0.000  -0.000  -0.000

   25  1 1s         1.04309   0.00000      0.000  -0.000   0.000
   25  2 1s         0.08648   0.00000     -0.000  -0.000  -0.000
   25  3 2Ppy       0.01225   0.00000     -0.000  -0.000  -0.000
   25  4 2Ppz       0.01854   0.00000     -0.000  -0.000  -0.000
   25  5 2Ppx       0.03568   0.00000     -0.000   0.000   0.000
   25     Total     1.19604   0.00000      0.000  -0.000  -0.000

   26  1 1s         0.47472   0.00000      0.000   0.000  -0.000
   26  2 1s         0.19649   0.00000      0.000  -0.000   0.000
   26  3 2Ppy       0.02108   0.00000     -0.000  -0.000   0.000
   26  4 2Ppz       0.04854   0.00000     -0.000   0.000  -0.000
   26  5 2Ppx       0.01599   0.00000      0.000  -0.000  -0.000
   26     Total     0.75683   0.00000      0.000   0.000  -0.000

   27  1 1s         0.50353   0.00000      0.000  -0.000  -0.000
   27  2 1s         0.16968   0.00000     -0.000   0.000  -0.000
   27  3 2Ppy       0.00714   0.00000      0.000  -0.000  -0.000
   27  4 2Ppz       0.03587   0.00000     -0.000   0.000  -0.000
   27  5 2Ppx       0.02998   0.00000      0.000  -0.000   0.000
   27     Total     0.74620   0.00000      0.000  -0.000  -0.000

   29  1 1s         0.48499   0.00000     -0.000  -0.000  -0.000
   29  2 1s         0.18769   0.00000      0.000   0.000  -0.000
   29  3 2Ppy       0.02509   0.00000     -0.000  -0.000  -0.000
   29  4 2Ppz       0.03445   0.00000      0.000  -0.000  -0.000
   29  5 2Ppx       0.02422   0.00000      0.000  -0.000   0.000
   29     Total     0.75644   0.00000     -0.000  -0.000  -0.000

----------------------------------------------------------------
Total              98.00000   0.00000      0.000  -0.000  -0.000


siesta: Eigenvalues (eV):
ik =     1
  -21.8662  -21.8662  -21.8143  -21.8143  -21.5715  -21.5715  -21.5172  -21.5172  -21.2256  -21.2256
  -21.0481  -21.0481  -20.7859  -20.7859  -19.7904  -19.7904  -19.4117  -19.4117  -19.3584  -19.3584
  -14.7522  -14.7522  -13.8593  -13.8593  -13.3323  -13.3323  -13.1375  -13.1375  -13.0928  -13.0928
  -12.8484  -12.8484  -12.7625  -12.7625  -12.3997  -12.3997  -12.3617  -12.3617  -12.0226  -12.0226
  -11.3945  -11.3945  -10.8100  -10.8100  -10.7312  -10.7312  -10.6817  -10.6817  -10.1045  -10.1045
   -9.5512   -9.5512   -9.2108   -9.2108   -8.8569   -8.8569   -8.7046   -8.7046   -8.6636   -8.6636
   -8.6039   -8.6039   -8.4124   -8.4124   -8.1652   -8.1652   -7.8100   -7.8100   -7.6542   -7.6542
   -7.6448   -7.6448   -7.3185   -7.3185   -7.2838   -7.2838   -6.8420   -6.8420   -6.7717   -6.7717
   -6.5331   -6.5331   -6.5071   -6.5071   -6.1282   -6.1282   -6.1024   -6.1024   -6.0951   -6.0951
   -5.8162   -5.8162   -5.6782   -5.6782   -5.4721   -5.4721   -4.3044   -4.3044   -3.2435   -3.2435
   -2.3186   -2.3186   -2.2992   -2.2992   -2.2295   -2.2295   -1.8567   -1.8567   -1.8521   -1.8521
   -1.8281   -1.8281   -1.7816   -1.7816   -1.5729   -1.5729   -1.4910   -1.4910   -1.0125   -1.0125
   -0.9488   -0.9488   -0.7871   -0.7871   -0.3685   -0.3685   -0.2057   -0.2057    0.0591    0.0591
    0.4106    0.4106    0.4473    0.4473    0.5730    0.5730    0.7091    0.7091    0.8032    0.8032
    1.0237    1.0237    1.2547    1.2547    1.3134    1.3134    1.4343    1.4343    1.4378    1.4378
    1.7026    1.7026    1.8491    1.8491    1.9319    1.9319    2.3777    2.3777    2.7477    2.7477
    2.7539    2.7539    2.8282    2.8282    2.9705    2.9705    3.1895    3.1895    3.3844    3.3844
    3.4058    3.4058    3.7966    3.7966    3.9075    3.9075    4.0801    4.0801    4.3418    4.3418
    4.4111    4.4111    4.5201    4.5201    4.5817    4.5817    4.6107    4.6107    4.9004    4.9004
    4.9146    4.9146    5.0521    5.0521    5.2617    5.2617    5.4927    5.4927    5.6800    5.6800
    5.7315    5.7315    5.7721    5.7721    5.9922    5.9922    6.0010    6.0010    6.1102    6.1102
    6.1772    6.1772    6.3532    6.3532    6.6033    6.6033    6.7562    6.7562    6.8132    6.8132
    7.0413    7.0413    7.2100    7.2100    7.4147    7.4147    7.5757    7.5757    7.7237    7.7237
    7.8301    7.8301    8.0411    8.0411    8.0776    8.0776    8.2641    8.2641    8.2941    8.2941
    8.5782    8.5782    8.7079    8.7079    8.7987    8.7987    8.9435    8.9435    9.1904    9.1904
    9.2514    9.2514    9.3273    9.3273    9.7282    9.7282    9.8384    9.8384    9.8458    9.8458
   10.0112   10.0112   10.1549   10.1549   10.4524   10.4524   10.8183   10.8183   10.9616   10.9616
   11.0435   11.0435   11.1017   11.1017   11.1625   11.1625   11.7262   11.7262   11.8329   11.8329
   11.9080   11.9080   12.0034   12.0034   12.2867   12.2867   12.4358   12.4358   12.5385   12.5385
   12.6931   12.6931   12.7255   12.7255   13.4546   13.4546   13.5091   13.5091   13.7007   13.7007
   13.8301   13.8301   14.0355   14.0355   14.2644   14.2644   14.5609   14.5609   14.8424   14.8424
   14.8457   14.8457   15.3136   15.3136   16.0012   16.0012   16.4354   16.4354   16.6623   16.6623
   16.9679   16.9679   17.4484   17.4484   17.6356   17.6356   18.2944   18.2944   18.3688   18.3688
   18.5770   18.5770   19.0479   19.0479   19.3739   19.3739   19.9819   19.9819   20.2393   20.2393
   20.8859   20.8859   21.3086   21.3086   21.8223   21.8223   22.1149   22.1149   22.5062   22.5062
   23.1218   23.1218   23.3721   23.3721   23.7521   23.7521   23.9136   23.9136   23.9734   23.9734
   24.8696   24.8696   25.2302   25.2302   25.9939   25.9939   26.8599   26.8599   27.7550   27.7550
   28.8634   28.8634   29.0077   29.0077   29.1663   29.1663   29.5210   29.5210   29.7243   29.7243
   30.1043   30.1043   30.2954   30.2954   30.3218   30.3218   30.7458   30.7458   31.0204   31.0204
   31.0712   31.0712   31.1174   31.1174   31.4463   31.4463   31.8149   31.8149   32.2203   32.2203
   33.0275   33.0275   33.9196   33.9196   34.5151   34.5151   34.6047   34.6047   34.8514   34.8514
   34.9781   34.9781   34.9859   34.9859   35.3851   35.3851   35.6670   35.6670   35.6872   35.6872
   36.8404   36.8404   36.9042   36.9042   37.1360   37.1360   37.3141   37.3141   37.8690   37.8690
   38.2206   38.2206   38.5974   38.5974   39.2841   39.2841   39.5461   39.5461   40.0012   40.0012
   40.3449   40.3449   40.5038   40.5038   40.7331   40.7331   40.9378   40.9378   41.2333   41.2333
   41.4720   41.4720   41.6464   41.6464   42.4932   42.4932   42.8162   42.8162   42.9747   42.9747
   43.2604   43.2604   43.7330   43.7330   44.1018   44.1018   44.1292   44.1292   44.2268   44.2268
   44.7021   44.7021   44.7620   44.7620   45.1890   45.1890   45.5118   45.5118   46.0145   46.0145
   46.6191   46.6191   47.0672   47.0672   47.2111   47.2111   48.5715   48.5715   49.3189   49.3189
   49.5191   49.5191   50.2704   50.2704   50.5610   50.5610   50.6667   50.6667   51.0077   51.0077
   51.4607   51.4607   51.6539   51.6539   52.5961   52.5961   53.0928   53.0928   54.1555   54.1555
   54.4874   54.4874   54.5781   54.5781   55.2400   55.2400   55.7704   55.7704   56.0137   56.0137
   56.1709   56.1709   56.4890   56.4890   56.4976   56.4976   58.3246   58.3246   58.3752   58.3752
   59.0443   59.0443   60.2599   60.2599   60.5156   60.5156   61.1475   61.1475   61.5107   61.5107
   61.7673   61.7673   62.1866   62.1866   62.4595   62.4595   64.5533   64.5533   66.4599   66.4599
   67.2326   67.2326   67.4270   67.4270   68.1379   68.1379   68.9595   68.9595   70.8754   70.8754
   74.1858   74.1858   80.4997   80.4997   91.1839   91.1839   91.9105   91.9105   93.4523   93.4523
   98.4833   98.4833   99.4016   99.4016   99.6251   99.6251  103.4509  103.4509  103.9870  103.9870
  110.2737  110.2737  112.0111  112.0111  123.7054  123.7054  125.7350  125.7350  130.2665  130.2665
  135.2484  135.2484  138.5523  138.5523
siesta: Fermi energy =      -3.774352 eV

siesta: Program's energy decomposition (eV):
siesta: Ebs     =     -1133.620953
siesta: Eions   =      3585.165840
siesta: Ena     =       382.018302
siesta: Ekin    =      2903.198666
siesta: Enl     =     -2788.156218
siesta: Eso     =        -0.004278
siesta: Edftu   =         0.000000
siesta: DEna    =        47.079136
siesta: DUscf   =        14.272645
siesta: DUext   =         0.000000
siesta: Exc     =     -1119.782350
siesta: eta*DQ  =         0.000000
siesta: Emadel  =         0.000000
siesta: Emeta   =         0.000000
siesta: Emolmec =         0.000000
siesta: Ekinion =         0.000000
siesta: Eharris =     -4146.539936
siesta: Etot    =     -4146.539936
siesta: FreeEng =     -4146.539936

siesta: Final energy (eV):
siesta:  Band Struct. =   -1133.620953
siesta:       Kinetic =    2903.198666
siesta:       Hartree =    8324.430509
siesta:       Edftu   =       0.000000
siesta:       Eso     =      -0.004278
siesta:    Ext. field =       0.000000
siesta:   Exch.-corr. =   -1119.782350
siesta:  Ion-electron =  -19232.076737
siesta:       Ion-ion =    4977.694252
siesta:       Ekinion =       0.000000
siesta:         Total =   -4146.539936
siesta:         Fermi =      -3.774352

siesta: Atomic forces (eV/Ang):
siesta:      1    4.083925    0.598818    0.000000
siesta:      2   -0.008737    0.025292   -0.000000
siesta:      3    0.730937   -0.350476   -0.000000
siesta:      4    0.695292   -0.015801   -0.000000
siesta:      5    0.040672   -0.087489   -0.000000
siesta:      6    1.745499    0.664317    0.000000
siesta:      7    0.041498   -0.245016   -0.000000
siesta:      8   -0.386514    0.271297    0.000000
siesta:      9   -0.165465    1.204243   -0.000000
siesta:     10   -0.948440    0.349277   -0.000000
siesta:     11   -0.020296   -0.019735    0.000000
siesta:     12   -0.367372   -0.247712    0.000000
siesta:     13    0.006589    0.021382    0.000000
siesta:     14    0.178616   -0.057350    0.000000
siesta:     15   -1.183636   -0.865849   -0.000000
siesta:     16   -0.064308    0.116836   -0.000000
siesta:     17    0.946815   -1.056339   -0.000000
siesta:     18   -0.204681    0.188691    0.000000
siesta:     19   -0.184629   -1.156204   -0.000000
siesta:     20   -0.016348   -0.392023    0.000000
siesta:     21   -0.283457    0.969694   -0.000000
siesta:     22   -2.142421   -0.916066    0.000000
siesta:     23    0.250898    0.501864   -0.000000
siesta:     24    0.049125    0.013359    0.000000
siesta:     25    0.096963    0.029569   -0.000000
siesta:     26   -0.248896   -0.319593   -0.000000
siesta:     27    1.625819    1.303911    0.000000
siesta:     28   -2.260791   -0.975039    0.000000
siesta:     29    0.022563    0.053942    0.000000
siesta: ----------------------------------------
siesta:    Tot    2.029222   -0.392200   -0.000000

siesta: Stress tensor (static) (eV/Ang**3):
siesta:     0.000186    0.000931    0.000000
siesta:     0.000931    0.001006    0.000000
siesta:     0.000000    0.000000   -0.000059

siesta: Cell volume =       5115.254106 Ang**3

siesta: Pressure (static):
siesta:                Solid            Molecule  Units
siesta:          -0.00000411          0.00001201  Ry/Bohr**3
siesta:          -0.00037762          0.00110237  eV/Ang**3
siesta:          -0.60502643          1.76621595  kBar
(Free)E+ p_basis*V_orbitals  =       -4126.689519
(Free)Eharris+ p_basis*V_orbitals  =       -4126.689519
     spin moment: S , {S} =    0.00000   0.00000  -0.00000  -0.00000

siesta: Electric dipole (a.u.)  =    1.596201    0.067818   -0.000000
siesta: Electric dipole (Debye) =    4.057140    0.172375   -0.000000

cite: Please see "GC.bib" for an exhaustive BiBTeX file.
cite: Please clearly indicate Siesta version in published work: v4.1.5-1-g384057250
cite: This calculation has made use of the following articles
cite: which are encouraged to be cited in a published work.
        Primary SIESTA paper
          DOI: www.doi.org/10.1088/0953-8984/14/11/302
        Spin-orbit coupling (on-site approximation)
          DOI: www.doi.org/10.1088/0953-8984/19/19/489001


WARNING: alloc-realloc-dealloc name mismatch
         Name: atomlist isa
         Size:              -116. Bytes
         Node:     0
         Subsequent mismatches will not be reported
>> End of run:  28-JUN-2023  15:43:40
Job completed
