Siesta Version  : v4.1.5-1-g384057250
Architecture    : gcc
Compiler version: GNU Fortran (Ubuntu 11.3.0-1ubuntu1~22.04) 11.3.0
Compiler flags  : mpifort -O2 -fPIC -ftree-vectorize -fallow-argument-mismatch
PP flags        : -DFC_HAVE_ABORT -DMPI -DSIESTA__FLOOK -DSIESTA__METIS -DSIESTA__MUMPS -DCDF -DNCDF -DNCDF_4 -DNCDF_PARALLEL -DSIESTA__MRRR -DSIESTA__ELPA
Libraries       : libncdf.a libfdict.a  -lflookall -ldl -lnetcdff -lnetcdf -lhdf5_hl -lhdf5 -lhdf5_fortran -lz -lscalapack-openmpi -lopenblas -lmetis -lzmumps -lcmumps -ldmumps -lmumps_common -lpord -lsmumps -lesmumps -lscotch -lscotcherr -fopenmp -lelpa
PARALLEL version
NetCDF support
NetCDF-4 support
NetCDF-4 MPI-IO support
METIS ordering support
Lua support

* Running on 4 nodes in parallel
>> Start of run:  22-MAY-2023  20:02:11

                           ***********************       
                           *  WELCOME TO SIESTA  *       
                           ***********************       

reinit: Reading from standard input
reinit: Dumped input in INPUT_TMP.56430
************************** Dump of input data file ****************************
SystemLabel      GC
NumberOfAtoms    29
NumberOfSpecies  4
%block ChemicalSpeciesLabel
    1    8  O
    2    7  N
    3   14  Si
    4    1  H
%endblock ChemicalSpeciesLabel
# Single point calculation
MD.TypeOfRun                CG
MD.Steps                    0
SCF.MustConverge            F # In case it does not. There can be 2 very close atoms
AtomicCoordinatesFormat NotScaledCartesianAng
%block AtomicCoordinatesAndAtomicSpecies
0.854927710    3.902811360    0.000000000       1
-3.151486600   0.823854130    0.000000000       2
1.928518680    1.174000900    0.000000000       2
0.979899500    -1.830275890   0.000000000       2
-2.159258930   -2.028004800   0.000000000       2
3.785319770    -1.112700660   0.000000000       2
-1.345933810   0.976250250    0.000000000       3
-0.599439880   -1.096077170   0.000000000       3
0.453182890    2.350510230    0.000000000       3
2.133302030    -0.576510800   0.000000000       3
-3.516065660   -0.842056510   0.000000000       3
2.824527830    1.754723110    0.000000000       4
-4.877551690   -1.469214660   0.000000000       4
3.994952020    -2.143204000   0.000000000       4
4.620903610    -0.483666060   0.000000000       4
-2.279085180   -3.081514090   0.000000000       4
8.065051465    7.354935306    -0.000000000      3
9.934010955    8.614578936    -0.000000000      3
9.475078575    4.613197086    -0.000000000      3
11.542671295   7.119788306    -0.000000000      3
8.124581415    5.669982846    -0.000000000      2
6.435052265    7.984995536    -0.000000000      2
11.118967445   5.404287496    -0.000000000      2
10.214374655   10.084801456   -0.000000000      4
13.038082675   7.338640846    -0.000000000      4
6.190593275    9.003461486    -0.000000000      4
5.608311085    7.328147406    -0.000000000      4
9.534354335    3.030755056    -0.000000000      1
11.890623035   4.677320136    -0.000000000      4
%endblock AtomicCoordinatesAndAtomicSpecies
%include ../../../Defaults.fdf
************************** End of input data file *****************************

reinit: -----------------------------------------------------------------------
reinit: System Name: 
reinit: -----------------------------------------------------------------------
reinit: System Label: GC
reinit: -----------------------------------------------------------------------

initatom: Reading input for the pseudopotentials and atomic orbitals ----------
Species number:   1 Atomic number:    8 Label: O
Species number:   2 Atomic number:    7 Label: N
Species number:   3 Atomic number:   14 Label: Si
Species number:   4 Atomic number:    1 Label: H

Ground state valence configuration:   2s02  2p04
Reading pseudopotential information in formatted form from O.psf

Pseudopotential generated from a relativistic atomic calculation

Valence configuration for pseudopotential generation:
2s( 2.00) rc: 0.45
2p( 4.00) rc: 0.92
3d( 0.00) rc: 2.24
4f( 0.00) rc: 0.25
Ground state valence configuration:   2s02  2p03
Reading pseudopotential information in formatted form from N.psf

Pseudopotential generated from a relativistic atomic calculation

Valence configuration for pseudopotential generation:
2s( 2.00) rc: 0.94
2p( 3.00) rc: 0.59
3d( 0.00) rc: 3.46
4f( 0.00) rc: 2.47
Ground state valence configuration:   3s02  3p02
Reading pseudopotential information in formatted form from Si.psf

Pseudopotential generated from a relativistic atomic calculation

Valence configuration for pseudopotential generation:
3s( 2.00) rc: 1.67
3p( 2.00) rc: 2.04
3d( 0.00) rc: 2.89
4f( 0.00) rc: 2.49
Ground state valence configuration:   1s01
Reading pseudopotential information in formatted form from H.psf

Pseudopotential generated from a relativistic atomic calculation

Valence configuration for pseudopotential generation:
1s( 1.00) rc: 0.01
2p( 0.00) rc: 0.60
3d( 0.00) rc: 1.99
4f( 0.00) rc: 2.49
For O, standard SIESTA heuristics set lmxkb to 3
 (one more than the basis l, including polarization orbitals).
Use PS.lmax or PS.KBprojectors blocks to override.
For N, standard SIESTA heuristics set lmxkb to 3
 (one more than the basis l, including polarization orbitals).
Use PS.lmax or PS.KBprojectors blocks to override.
For Si, standard SIESTA heuristics set lmxkb to 3
 (one more than the basis l, including polarization orbitals).
Use PS.lmax or PS.KBprojectors blocks to override.
For H, standard SIESTA heuristics set lmxkb to 2
 (one more than the basis l, including polarization orbitals).
Use PS.lmax or PS.KBprojectors blocks to override.

<basis_specs>
===============================================================================
O                    Z=   8    Mass=  16.000        Charge= 0.17977+309
Lmxo=1 Lmxkb= 3    BasisType=split      Semic=F
L=0  Nsemic=0  Cnfigmx=2
          i=1  nzeta=2  polorb=0  (2s)
            splnorm:   0.28000    
               vcte:    0.0000    
               rinn:    0.0000    
               qcoe:    0.0000    
               qyuk:    0.0000    
               qwid:   0.10000E-01
                rcs:    0.0000      0.0000    
            lambdas:    1.0000      1.0000    
L=1  Nsemic=0  Cnfigmx=2
          i=1  nzeta=2  polorb=1  (2p)
            splnorm:   0.28000    
               vcte:    0.0000    
               rinn:    0.0000    
               qcoe:    0.0000    
               qyuk:    0.0000    
               qwid:   0.10000E-01
                rcs:    0.0000      0.0000    
            lambdas:    1.0000      1.0000    
-------------------------------------------------------------------------------
L=0  Nkbl=1  erefs: 0.17977+309
L=1  Nkbl=1  erefs: 0.17977+309
L=2  Nkbl=1  erefs: 0.17977+309
L=3  Nkbl=1  erefs: 0.17977+309
===============================================================================
</basis_specs>

atom: Called for O                     (Z =   8)

read_vps: Pseudopotential generation method:
read_vps: ATM4.2.7  Troullier-Martins                       
Valence charge for ps generation:    6.00000

xc_check: Exchange-correlation functional:
xc_check: GGA Perdew, Burke & Ernzerhof 1996
V l=0 = -2*Zval/r beyond r=  1.1000
V l=1 = -2*Zval/r beyond r=  1.1000
V l=2 = -2*Zval/r beyond r=  2.2154
V l=3 = -2*Zval/r beyond r=  1.1000
All V_l potentials equal beyond r=  2.2154
This should be close to max(r_c) in ps generation
All pots = -2*Zval/r beyond r=  2.2154

VLOCAL1: 99.0% of the norm of Vloc inside      8.845 Ry
VLOCAL1: 99.9% of the norm of Vloc inside     20.157 Ry
atom: Maximum radius for 4*pi*r*r*local-pseudopot. charge    2.67231
atom: Maximum radius for r*vlocal+2*Zval:    2.32897
GHOST: No ghost state for L =  0
GHOST: No ghost state for L =  1
GHOST: No ghost state for L =  2
GHOST: No ghost state for L =  3

KBgen: Kleinman-Bylander projectors: 
   l= 0   rc=  2.243238   el= -1.759686   Ekb=**********   kbcos= -0.171774
   l= 1   rc=  2.328968   el= -0.663873   Ekb=-14.506792   kbcos= -0.519897
   l= 2   rc=  2.573941   el=  0.002031   Ekb= -1.137373   kbcos= -0.019581
   l= 3   rc=  2.606321   el=  0.003153   Ekb= -1.013546   kbcos= -0.003122

KBgen: Total number of Kleinman-Bylander projectors:   16
atom: -------------------------------------------------------------------------

atom: SANKEY-TYPE ORBITALS:
atom: Selected multiple-zeta basis: split     

SPLIT: Orbitals with angular momentum L= 0

SPLIT: Basis orbitals for state 2s

SPLIT: PAO cut-off radius determined from an
SPLIT: energy shift=  0.002000 Ry

   izeta = 1
                 lambda =    1.000000
                     rc =    4.243912
                 energy =   -1.758270
                kinetic =    3.286084
    potential(screened) =   -5.044353
       potential(ionic) =  -12.921184

   izeta = 2
                 rmatch =    2.187845
              splitnorm =    0.280000
                 energy =   -0.885018
                kinetic =    8.134434
    potential(screened) =   -9.019452
       potential(ionic) =  -17.710645

SPLIT: Orbitals with angular momentum L= 1

SPLIT: Basis orbitals for state 2p

SPLIT: PAO cut-off radius determined from an
SPLIT: energy shift=  0.002000 Ry

   izeta = 1
                 lambda =    1.000000
                     rc =    5.314825
                 energy =   -0.661986
                kinetic =    4.917472
    potential(screened) =   -5.579458
       potential(ionic) =  -13.236259

   izeta = 2
                 rmatch =    2.160663
              splitnorm =    0.280000
                 energy =   -0.068760
                kinetic =    9.183374
    potential(screened) =   -9.252135
       potential(ionic) =  -18.274251

POLgen: Perturbative polarization orbital with L=  2

POLgen: Polarization orbital for state 2p

   izeta = 1
                     rc =    5.314825
                 energy =    1.970580
                kinetic =    3.886128
    potential(screened) =   -1.915547
       potential(ionic) =   -7.749584
atom: Total number of Sankey-type orbitals: 13

atm_pop: Valence configuration (for local Pseudopot. screening):
 2s( 2.00)                                                            
 2p( 4.00)                                                            
Vna: chval, zval:    6.00000   6.00000

Vna:  Cut-off radius for the neutral-atom potential:   5.314825

atom: _________________________________________________________________________

<basis_specs>
===============================================================================
N                    Z=   7    Mass=  14.010        Charge= 0.17977+309
Lmxo=1 Lmxkb= 3    BasisType=split      Semic=F
L=0  Nsemic=0  Cnfigmx=2
          i=1  nzeta=2  polorb=0  (2s)
            splnorm:   0.28000    
               vcte:    0.0000    
               rinn:    0.0000    
               qcoe:    0.0000    
               qyuk:    0.0000    
               qwid:   0.10000E-01
                rcs:    0.0000      0.0000    
            lambdas:    1.0000      1.0000    
L=1  Nsemic=0  Cnfigmx=2
          i=1  nzeta=2  polorb=1  (2p)
            splnorm:   0.28000    
               vcte:    0.0000    
               rinn:    0.0000    
               qcoe:    0.0000    
               qyuk:    0.0000    
               qwid:   0.10000E-01
                rcs:    0.0000      0.0000    
            lambdas:    1.0000      1.0000    
-------------------------------------------------------------------------------
L=0  Nkbl=1  erefs: 0.17977+309
L=1  Nkbl=1  erefs: 0.17977+309
L=2  Nkbl=1  erefs: 0.17977+309
L=3  Nkbl=1  erefs: 0.17977+309
===============================================================================
</basis_specs>

atom: Called for N                     (Z =   7)

read_vps: Pseudopotential generation method:
read_vps: ATM4.2.7  Troullier-Martins                       
Valence charge for ps generation:    5.00000

xc_check: Exchange-correlation functional:
xc_check: GGA Perdew, Burke & Ernzerhof 1996
V l=0 = -2*Zval/r beyond r=  1.2889
V l=1 = -2*Zval/r beyond r=  1.2889
V l=2 = -2*Zval/r beyond r=  3.4178
V l=3 = -2*Zval/r beyond r=  2.4084
All V_l potentials equal beyond r=  3.3753
This should be close to max(r_c) in ps generation
All pots = -2*Zval/r beyond r=  3.4178

VLOCAL1: 99.0% of the norm of Vloc inside      3.810 Ry
VLOCAL1: 99.9% of the norm of Vloc inside      8.683 Ry
atom: Maximum radius for 4*pi*r*r*local-pseudopot. charge    4.02088
atom: Maximum radius for r*vlocal+2*Zval:    3.54838
GHOST: No ghost state for L =  0
GHOST: No ghost state for L =  1
GHOST: No ghost state for L =  2
GHOST: No ghost state for L =  3

KBgen: Kleinman-Bylander projectors: 
   l= 0   rc=  3.417763   el= -1.365098   Ekb= -4.433130   kbcos= -0.707855
   l= 1   rc=  3.375302   el= -0.521201   Ekb=-13.264039   kbcos= -0.535594
   l= 2   rc=  3.872880   el=  0.001991   Ekb= -0.641094   kbcos= -0.062456
   l= 3   rc=  3.970931   el=  0.003093   Ekb= -0.474517   kbcos= -0.018236

KBgen: Total number of Kleinman-Bylander projectors:   16
atom: -------------------------------------------------------------------------

atom: SANKEY-TYPE ORBITALS:
atom: Selected multiple-zeta basis: split     

SPLIT: Orbitals with angular momentum L= 0

SPLIT: Basis orbitals for state 2s

SPLIT: PAO cut-off radius determined from an
SPLIT: energy shift=  0.002000 Ry

   izeta = 1
                 lambda =    1.000000
                     rc =    4.730425
                 energy =   -1.363399
                kinetic =    1.245246
    potential(screened) =   -2.608645
       potential(ionic) =   -8.121105

   izeta = 2
                 rmatch =    2.531849
              splitnorm =    0.280000
                 energy =   -0.959908
                kinetic =    2.409435
    potential(screened) =   -3.369343
       potential(ionic) =   -9.427975

SPLIT: Orbitals with angular momentum L= 1

SPLIT: Basis orbitals for state 2p

SPLIT: PAO cut-off radius determined from an
SPLIT: energy shift=  0.002000 Ry

   izeta = 1
                 lambda =    1.000000
                     rc =    5.924108
                 energy =   -0.519262
                kinetic =    3.672940
    potential(screened) =   -4.192202
       potential(ionic) =   -9.518354

   izeta = 2
                 rmatch =    2.531849
              splitnorm =    0.280000
                 energy =   -0.104258
                kinetic =    6.807538
    potential(screened) =   -6.911796
       potential(ionic) =  -13.149920

POLgen: Perturbative polarization orbital with L=  2

POLgen: Polarization orbital for state 2p

   izeta = 1
                     rc =    5.924108
                 energy =    1.427508
                kinetic =    2.872379
    potential(screened) =   -1.444871
       potential(ionic) =   -5.563644
atom: Total number of Sankey-type orbitals: 13

atm_pop: Valence configuration (for local Pseudopot. screening):
 2s( 2.00)                                                            
 2p( 3.00)                                                            
Vna: chval, zval:    5.00000   5.00000

Vna:  Cut-off radius for the neutral-atom potential:   5.924108

atom: _________________________________________________________________________

<basis_specs>
===============================================================================
Si                   Z=  14    Mass=  28.090        Charge= 0.17977+309
Lmxo=1 Lmxkb= 3    BasisType=split      Semic=F
L=0  Nsemic=0  Cnfigmx=3
          i=1  nzeta=2  polorb=0  (3s)
            splnorm:   0.28000    
               vcte:    0.0000    
               rinn:    0.0000    
               qcoe:    0.0000    
               qyuk:    0.0000    
               qwid:   0.10000E-01
                rcs:    0.0000      0.0000    
            lambdas:    1.0000      1.0000    
L=1  Nsemic=0  Cnfigmx=3
          i=1  nzeta=2  polorb=1  (3p)
            splnorm:   0.28000    
               vcte:    0.0000    
               rinn:    0.0000    
               qcoe:    0.0000    
               qyuk:    0.0000    
               qwid:   0.10000E-01
                rcs:    0.0000      0.0000    
            lambdas:    1.0000      1.0000    
-------------------------------------------------------------------------------
L=0  Nkbl=1  erefs: 0.17977+309
L=1  Nkbl=1  erefs: 0.17977+309
L=2  Nkbl=1  erefs: 0.17977+309
L=3  Nkbl=1  erefs: 0.17977+309
===============================================================================
</basis_specs>

atom: Called for Si                    (Z =  14)

read_vps: Pseudopotential generation method:
read_vps: ATM4.2.7  Troullier-Martins                       
Valence charge for ps generation:    4.00000

xc_check: Exchange-correlation functional:
xc_check: GGA Perdew, Burke & Ernzerhof 1996
V l=0 = -2*Zval/r beyond r=  2.7826
V l=1 = -2*Zval/r beyond r=  2.7826
V l=2 = -2*Zval/r beyond r=  2.9253
V l=3 = -2*Zval/r beyond r=  2.7826
All V_l potentials equal beyond r=  2.8530
This should be close to max(r_c) in ps generation
All pots = -2*Zval/r beyond r=  2.9253

VLOCAL1: 99.0% of the norm of Vloc inside      5.333 Ry
VLOCAL1: 99.9% of the norm of Vloc inside     12.154 Ry
atom: Maximum radius for 4*pi*r*r*local-pseudopot. charge    3.39869
atom: Maximum radius for r*vlocal+2*Zval:    2.96205
GHOST: No ghost state for L =  0
GHOST: No ghost state for L =  1
GHOST: No ghost state for L =  2
GHOST: No ghost state for L =  3

KBgen: Kleinman-Bylander projectors: 
   l= 0   rc=  3.075247   el= -0.794092   Ekb=  5.879390   kbcos=  0.167461
   l= 1   rc=  3.153101   el= -0.300068   Ekb=  2.642817   kbcos=  0.058301
   l= 2   rc=  3.273594   el=  0.001958   Ekb= -1.185135   kbcos= -0.104411
   l= 3   rc=  3.232927   el=  0.003046   Ekb= -0.497174   kbcos= -0.015889

KBgen: Total number of Kleinman-Bylander projectors:   16
atom: -------------------------------------------------------------------------

atom: SANKEY-TYPE ORBITALS:
atom: Selected multiple-zeta basis: split     

SPLIT: Orbitals with angular momentum L= 0

SPLIT: Basis orbitals for state 3s

SPLIT: PAO cut-off radius determined from an
SPLIT: energy shift=  0.002000 Ry

   izeta = 1
                 lambda =    1.000000
                     rc =    6.429618
                 energy =   -0.792283
                kinetic =    0.525293
    potential(screened) =   -1.317576
       potential(ionic) =   -3.744923

   izeta = 2
                 rmatch =    3.998416
              splitnorm =    0.280000
                 energy =   -0.583081
                kinetic =    1.069570
    potential(screened) =   -1.652651
       potential(ionic) =   -4.235185

SPLIT: Orbitals with angular momentum L= 1

SPLIT: Basis orbitals for state 3p

SPLIT: PAO cut-off radius determined from an
SPLIT: energy shift=  0.002000 Ry

   izeta = 1
                 lambda =    1.000000
                     rc =    8.464845
                 energy =   -0.298236
                kinetic =    0.785360
    potential(screened) =   -1.083596
       potential(ionic) =   -3.273779

   izeta = 2
                 rmatch =    4.587816
              splitnorm =    0.280000
                 energy =   -0.131871
                kinetic =    1.403687
    potential(screened) =   -1.535557
       potential(ionic) =   -4.015310

POLgen: Perturbative polarization orbital with L=  2

POLgen: Polarization orbital for state 3p

   izeta = 1
                     rc =    8.464845
                 energy =    0.321949
                kinetic =    1.055677
    potential(screened) =   -0.733728
       potential(ionic) =   -2.672950
atom: Total number of Sankey-type orbitals: 13

atm_pop: Valence configuration (for local Pseudopot. screening):
 3s( 2.00)                                                            
 3p( 2.00)                                                            
Vna: chval, zval:    4.00000   4.00000

Vna:  Cut-off radius for the neutral-atom potential:   8.464845

atom: _________________________________________________________________________

<basis_specs>
===============================================================================
H                    Z=   1    Mass=  1.0100        Charge= 0.17977+309
Lmxo=0 Lmxkb= 2    BasisType=split      Semic=F
L=0  Nsemic=0  Cnfigmx=1
          i=1  nzeta=2  polorb=1  (1s)
            splnorm:   0.62000    
               vcte:    0.0000    
               rinn:    0.0000    
               qcoe:    0.0000    
               qyuk:    0.0000    
               qwid:   0.10000E-01
                rcs:    0.0000      0.0000    
            lambdas:    1.0000      1.0000    
-------------------------------------------------------------------------------
L=0  Nkbl=1  erefs: 0.17977+309
L=1  Nkbl=1  erefs: 0.17977+309
L=2  Nkbl=1  erefs: 0.17977+309
===============================================================================
</basis_specs>

atom: Called for H                     (Z =   1)

read_vps: Pseudopotential generation method:
read_vps: ATM4.2.7  Troullier-Martins                       
Valence charge for ps generation:    1.00000

xc_check: Exchange-correlation functional:
xc_check: GGA Perdew, Burke & Ernzerhof 1996
V l=0 = -2*Zval/r beyond r=  0.0098
V l=1 = -2*Zval/r beyond r=  0.5817
V l=2 = -2*Zval/r beyond r=  1.9372
All V_l potentials equal beyond r=  1.9372
This should be close to max(r_c) in ps generation
All pots = -2*Zval/r beyond r=  1.9372

VLOCAL1: 99.0% of the norm of Vloc inside     11.567 Ry
VLOCAL1: 99.9% of the norm of Vloc inside     26.362 Ry
atom: Maximum radius for 4*pi*r*r*local-pseudopot. charge    2.25106
atom: Maximum radius for r*vlocal+2*Zval:    1.91306
GHOST: No ghost state for L =  0
GHOST: No ghost state for L =  1
GHOST: No ghost state for L =  2

KBgen: Kleinman-Bylander projectors: 
   l= 0   rc=  2.036604   el= -0.477180   Ekb= -6.081590   kbcos= -0.277285
   l= 1   rc=  2.195416   el=  0.001076   Ekb= -0.926943   kbcos= -0.034643
   l= 2   rc=  2.251056   el=  0.002010   Ekb= -0.130941   kbcos= -0.009788

KBgen: Total number of Kleinman-Bylander projectors:    9
atom: -------------------------------------------------------------------------

atom: SANKEY-TYPE ORBITALS:
atom: Selected multiple-zeta basis: split     

SPLIT: Orbitals with angular momentum L= 0

SPLIT: Basis orbitals for state 1s

SPLIT: PAO cut-off radius determined from an
SPLIT: energy shift=  0.002000 Ry

   izeta = 1
                 lambda =    1.000000
                     rc =    6.518340
                 energy =   -0.475305
                kinetic =    0.912139
    potential(screened) =   -1.387444
       potential(ionic) =   -1.907295

   izeta = 2
                 rmatch =    2.141150
              splitnorm =    0.620000
                 energy =    0.566467
                kinetic =    3.772856
    potential(screened) =   -3.206389
       potential(ionic) =   -3.759093

POLgen: Perturbative polarization orbital with L=  1

POLgen: Polarization orbital for state 1s

   izeta = 1
                     rc =    6.518340
                 energy =    0.533861
                kinetic =    1.121086
    potential(screened) =   -0.587225
       potential(ionic) =   -1.053027
atom: Total number of Sankey-type orbitals:  5

atm_pop: Valence configuration (for local Pseudopot. screening):
 1s( 1.00)                                                            
Vna: chval, zval:    1.00000   1.00000

Vna:  Cut-off radius for the neutral-atom potential:   6.518340

atom: _________________________________________________________________________

prinput: Basis input ----------------------------------------------------------

PAO.BasisType split     

%block ChemicalSpeciesLabel
    1    8 O                       # Species index, atomic number, species label
    2    7 N                       # Species index, atomic number, species label
    3   14 Si                      # Species index, atomic number, species label
    4    1 H                       # Species index, atomic number, species label
%endblock ChemicalSpeciesLabel

%block PAO.Basis                 # Define Basis set
O                     2                    # Species label, number of l-shells
 n=2   0   2                         # n, l, Nzeta 
   4.244      2.188   
   1.000      1.000   
 n=2   1   2 P   1                   # n, l, Nzeta, Polarization, NzetaPol
   5.315      2.161   
   1.000      1.000   
N                     2                    # Species label, number of l-shells
 n=2   0   2                         # n, l, Nzeta 
   4.730      2.532   
   1.000      1.000   
 n=2   1   2 P   1                   # n, l, Nzeta, Polarization, NzetaPol
   5.924      2.532   
   1.000      1.000   
Si                    2                    # Species label, number of l-shells
 n=3   0   2                         # n, l, Nzeta 
   6.430      3.998   
   1.000      1.000   
 n=3   1   2 P   1                   # n, l, Nzeta, Polarization, NzetaPol
   8.465      4.588   
   1.000      1.000   
H                     1                    # Species label, number of l-shells
 n=1   0   2 P   1                   # n, l, Nzeta, Polarization, NzetaPol
   6.518      2.141   
   1.000      1.000   
%endblock PAO.Basis

prinput: ----------------------------------------------------------------------

Dumping basis to NetCDF file O.ion.nc
Dumping basis to NetCDF file N.ion.nc
Dumping basis to NetCDF file Si.ion.nc
Dumping basis to NetCDF file H.ion.nc
coor:   Atomic-coordinates input format  =     Cartesian coordinates
coor:                                          (in Angstroms)

siesta: Atomic coordinates (Bohr) and species
siesta:      1.61558   7.37525   0.00000  1        1
siesta:     -5.95545   1.55686   0.00000  2        2
siesta:      3.64437   2.21854   0.00000  2        3
siesta:      1.85174  -3.45872   0.00000  2        4
siesta:     -4.08041  -3.83238   0.00000  2        5
siesta:      7.15322  -2.10270   0.00000  2        6
siesta:     -2.54345   1.84485   0.00000  3        7
siesta:     -1.13278  -2.07129   0.00000  3        8
siesta:      0.85639   4.44182   0.00000  3        9
siesta:      4.03136  -1.08945   0.00000  3       10
siesta:     -6.64440  -1.59126   0.00000  3       11
siesta:      5.33759   3.31595   0.00000  4       12
siesta:     -9.21724  -2.77641   0.00000  4       13
siesta:      7.54937  -4.05007   0.00000  4       14
siesta:      8.73225  -0.91400   0.00000  4       15
siesta:     -4.30685  -5.82322   0.00000  4       16
siesta:     15.24074  13.89882  -0.00000  3       17
siesta:     18.77257  16.27920  -0.00000  3       18
siesta:     17.90531   8.71768  -0.00000  3       19
siesta:     21.81250  13.45446  -0.00000  3       20
siesta:     15.35324  10.71472  -0.00000  2       21
siesta:     12.16049  15.08946  -0.00000  2       22
siesta:     21.01181  10.21263  -0.00000  2       23
siesta:     19.30238  19.05752  -0.00000  4       24
siesta:     24.63842  13.86803  -0.00000  4       25
siesta:     11.69853  17.01408  -0.00000  4       26
siesta:     10.59818  13.84820  -0.00000  4       27
siesta:     18.01733   5.72730  -0.00000  1       28
siesta:     22.47003   8.83886  -0.00000  4       29

siesta: Automatic unit cell vectors (Ang):
siesta:   27.295781    0.000000    0.000000
siesta:    0.000000   22.071530    0.000000
siesta:    0.000000    0.000000    9.854683

siesta: System type = molecule  

initatomlists: Number of atoms, orbitals, and projectors:     29   297   394

siesta: ******************** Simulation parameters ****************************
siesta:
siesta: The following are some of the parameters of the simulation.
siesta: A complete list of the parameters used, including default values,
siesta: can be found in file out.fdf
siesta:
redata: Spin configuration                          = spin-orbit
redata: Number of spin components                   = 8
redata: Time-Reversal Symmetry                      = F
redata: Spin spiral                                 = F
############################################################
This spin-orbit implementation uses a local approximation.
From 4.2 and onwards the full non-local approximation is implemented
You are strongly advised to use >=4.2 versions!
############################################################
redata: Long output                                 =   F
redata: Number of Atomic Species                    =        4
redata: Charge density info will appear in .RHO file
redata: Write Mulliken Pop.                         = Atomic and Orbital charges
redata: Matel table size (NRTAB)                    =     1024
redata: Mesh Cutoff                                 =   340.0000 Ry
redata: Net charge of the system                    =     0.0000 |e|
redata: Min. number of SCF Iter                     =        1
redata: Max. number of SCF Iter                     =      200
redata: SCF mix quantity                            = Hamiltonian
redata: Mix DM or H after convergence               =   F
redata: Recompute H after scf cycle                 =   F
redata: Mix DM in first SCF step                    =   T
redata: Write Pulay info on disk                    =   F
redata: New DM Occupancy tolerance                  = 0.000000000001
redata: No kicks to SCF
redata: DM Mixing Weight for Kicks                  =     0.5000
redata: Require Harris convergence for SCF          =   F
redata: Harris energy tolerance for SCF             =     0.000100 eV
redata: Require DM convergence for SCF              =   T
redata: DM tolerance for SCF                        =     0.000008
redata: Require EDM convergence for SCF             =   F
redata: EDM tolerance for SCF                       =     0.001000 eV
redata: Require H convergence for SCF               =   T
redata: Hamiltonian tolerance for SCF               =     0.000001 eV
redata: Require (free) Energy convergence for SCF   =   F
redata: (free) Energy tolerance for SCF             =     0.000100 eV
redata: Using Saved Data (generic)                  =   F
redata: Use continuation files for DM               =   F
redata: Neglect nonoverlap interactions             =   F
redata: Method of Calculation                       = Diagonalization
redata: Electronic Temperature                      =   299.9978 K
redata: Fix the spin of the system                  =   F
redata: Dynamics option                             = Single-point calculation
mix.SCF: Pulay mixing                            = Pulay
mix.SCF:    Variant                              = stable
mix.SCF:    History steps                        = 6
mix.SCF:    Linear mixing weight                 =     0.250000
mix.SCF:    Mixing weight                        =     0.250000
mix.SCF:    SVD condition                        = 0.1000E-07
mix.SCF:    Restart steps                        = 24
mix.SCF:    Restart save steps                   = 3
mix.SCF: Spin-component mixing                   all
redata: Save all siesta data in one NC              =   F
redata: ***********************************************************************

%block SCF.Mixers
  Pulay
%endblock SCF.Mixers

%block SCF.Mixer.Pulay
  # Mixing method
  method pulay
  variant stable

  # Mixing options
  weight 0.2500
  weight.linear 0.2500
  history 6
  restart 24
  restart.save 3
%endblock SCF.Mixer.Pulay

DM_history_depth set to one: no extrapolation allowed by default for geometry relaxation
Size of DM history Fstack: 1
Total number of electrons:    98.000000
Total ionic charge:    98.000000

* ProcessorY, Blocksize:    2  24


* Orbital distribution balance (max,min):    81    72


Time-reversal symmetry not used.

siesta: k-grid: Number of k-points =     1
siesta: k-grid: Cutoff (effective) =     4.927 Ang
siesta: k-grid: Supercell and displacements
siesta: k-grid:    1   0   0      0.000
siesta: k-grid:    0   1   0      0.000
siesta: k-grid:    0   0   1      0.000

diag: Algorithm                                     = ELPA-1stage
diag: Parallel over k                               =   F
diag: Use parallel 2D distribution                  =   T
diag: Parallel block-size                           = 24
diag: Parallel distribution                         =     2 x     2
diag: Used triangular part                          = Lower
diag: Absolute tolerance                            =  0.100E-15
diag: Orthogonalization factor                      =  0.100E-05
diag: Memory factor                                 =  1.0000


ts: **************************************************************
ts: Save H and S matrices                           =    F
ts: Save DM and EDM matrices                        =    F
ts: Only save the overlap matrix S                  =    F
ts: **************************************************************

************************ Begin: TS CHECKS AND WARNINGS ************************
************************ End: TS CHECKS AND WARNINGS **************************


                     ====================================
                        Single-point calculation
                     ====================================

outcoor: Atomic coordinates (Ang):                          
    0.85492771    3.90281136    0.00000000   1       1  O
   -3.15148660    0.82385413    0.00000000   2       2  N
    1.92851868    1.17400090    0.00000000   2       3  N
    0.97989950   -1.83027589    0.00000000   2       4  N
   -2.15925893   -2.02800480    0.00000000   2       5  N
    3.78531977   -1.11270066    0.00000000   2       6  N
   -1.34593381    0.97625025    0.00000000   3       7  Si
   -0.59943988   -1.09607717    0.00000000   3       8  Si
    0.45318289    2.35051023    0.00000000   3       9  Si
    2.13330203   -0.57651080    0.00000000   3      10  Si
   -3.51606566   -0.84205651    0.00000000   3      11  Si
    2.82452783    1.75472311    0.00000000   4      12  H
   -4.87755169   -1.46921466    0.00000000   4      13  H
    3.99495202   -2.14320400    0.00000000   4      14  H
    4.62090361   -0.48366606    0.00000000   4      15  H
   -2.27908518   -3.08151409    0.00000000   4      16  H
    8.06505146    7.35493531    0.00000000   3      17  Si
    9.93401095    8.61457894    0.00000000   3      18  Si
    9.47507857    4.61319709    0.00000000   3      19  Si
   11.54267129    7.11978831    0.00000000   3      20  Si
    8.12458141    5.66998285    0.00000000   2      21  N
    6.43505227    7.98499554    0.00000000   2      22  N
   11.11896744    5.40428750    0.00000000   2      23  N
   10.21437466   10.08480146    0.00000000   4      24  H
   13.03808268    7.33864085    0.00000000   4      25  H
    6.19059328    9.00346149    0.00000000   4      26  H
    5.60831109    7.32814741    0.00000000   4      27  H
    9.53435433    3.03075506    0.00000000   1      28  O
   11.89062304    4.67732014    0.00000000   4      29  H

outcell: Unit cell vectors (Ang):
       27.295781    0.000000    0.000000
        0.000000   22.071530    0.000000
        0.000000    0.000000    9.854683

outcell: Cell vector modules (Ang)   :   27.295781   22.071530    9.854683
outcell: Cell angles (23,13,12) (deg):     90.0000     90.0000     90.0000
outcell: Cell volume (Ang**3)        :   5937.0489
<dSpData1D:S at geom step 0
  <sparsity:sparsity for geom step 0
    nrows_g=297 nrows=81 sparsity=.1377 nnzs=12149, refcount: 8>
  <dData1D:(new from dSpData1D) n=12149, refcount: 1>
refcount: 1>
new_DM -- step:     1
Initializing Density Matrix...
DM filled with atomic data:
<dSpData2D:DM initialized from atoms
  <sparsity:sparsity for geom step 0
    nrows_g=297 nrows=81 sparsity=.1377 nnzs=12149, refcount: 9>
  <dData2D:DM n=12149 m=8, refcount: 1>
refcount: 1>
     spin moment: S , {S} =   56.00000   0.00000   0.00000  56.00000
No. of atoms with KB's overlaping orbs in proc 0. Max # of overlaps:      29     142

Initializing spin-orbit part of the Hamiltonian
  Adding spin-orbit effects for O 
  Adding spin-orbit effects for N 
  Adding spin-orbit effects for Si
  Adding spin-orbit effects for H 


New grid distribution:   1
           1       1:  160    1:   63    1:   30
           2       1:  160    1:   63   31:   60
           3       1:  160   64:  125    1:   30
           4       1:  160   64:  125   31:   60

InitMesh: MESH =   320 x   250 x   120 =     9600000
InitMesh: (bp) =   160 x   125 x    60 =     1200000
InitMesh: Mesh cutoff (required, used) =   340.000   354.582 Ry
ExtMesh (bp) on 0 =   268 x   167 x   142 =     6355352
New grid distribution:   2
           1      57:  160    1:   39    1:   60
           2       1:   56    1:   39    1:   60
           3      57:  160   40:  125    1:   60
           4       1:   56   40:  125    1:   60
New grid distribution:   3
           1      58:  160    1:   42    1:   60
           2       1:   57    1:   41    1:   60
           3      58:  160   43:  125    1:   60
           4       1:   57   42:  125    1:   60
Setting up quadratic distribution...
ExtMesh (bp) on 0 =   212 x   143 x   172 =     5214352
PhiOnMesh: Number of (b)points on node 0 =               243360
PhiOnMesh: nlist on node 0 =              2558551

stepf: Fermi-Dirac step function

siesta: Program's energy decomposition (eV):
siesta: Ebs     =      -624.837893
siesta: Eions   =      3585.165840
siesta: Ena     =       384.948850
siesta: Ekin    =      3377.028496
siesta: Enl     =     -3308.722953
siesta: Eso     =        -0.003378
siesta: Edftu   =         0.000000
siesta: DEna    =       154.799127
siesta: DUscf   =        82.492418
siesta: DUext   =         0.000000
siesta: Exc     =     -1205.549859
siesta: eta*DQ  =         0.000000
siesta: Emadel  =         0.000000
siesta: Emeta   =         0.000000
siesta: Emolmec =         0.000000
siesta: Ekinion =         0.000000
siesta: Eharris =     -4019.694623
siesta: Etot    =     -4100.173139
siesta: FreeEng =     -4100.174649

        iscf     Eharris(eV)        E_KS(eV)     FreeEng(eV)     dDmax    Ef(eV) dHmax(eV)
   scf:    1    -4019.694623    -4100.173139    -4100.174649  0.965217 -4.889090 21.672254
     spin moment: S , {S} =    2.00785  -0.00000   0.00000   2.00785
timer: Routine,Calls,Time,% = IterSCF        1      13.794  18.32
   scf:    2    -4147.703391    -4136.090872    -4136.096111  0.454010 -4.244929 11.646306
     spin moment: S , {S} =    1.95917   0.00000   0.00000   1.95917
   scf:    3    -4099.271283    -4131.077020    -4131.109578  0.427289 -4.367233 12.948451
     spin moment: S , {S} =    2.48456   0.00000  -0.00000   2.48456
   scf:    4    -4150.446994    -4145.072064    -4145.072065  0.315984 -3.944598  5.930868
     spin moment: S , {S} =    0.00010  -0.00000  -0.00000   0.00010
   scf:    5    -4146.461620    -4145.887101    -4145.887101  0.040050 -3.755155  4.253505
     spin moment: S , {S} =    0.00006  -0.00000  -0.00000   0.00006
   scf:    6    -4146.629547    -4146.263337    -4146.263337  0.023836 -3.618886  2.287578
     spin moment: S , {S} =    0.00003  -0.00000   0.00000   0.00003
   scf:    7    -4146.651806    -4146.454944    -4146.454944  0.023540 -3.805891  0.869515
     spin moment: S , {S} =    0.00001  -0.00000   0.00000   0.00001
   scf:    8    -4146.564974    -4146.508539    -4146.508539  0.012210 -3.736895  0.524085
     spin moment: S , {S} =    0.00000   0.00000  -0.00000   0.00000
   scf:    9    -4146.551774    -4146.529382    -4146.529382  0.007403 -3.706915  0.389692
     spin moment: S , {S} =    0.00000  -0.00000   0.00000   0.00000
   scf:   10    -4146.583091    -4146.549075    -4146.549075  0.022529 -3.829344  0.255785
     spin moment: S , {S} =    0.00000  -0.00000  -0.00000  -0.00000
   scf:   11    -4146.552682    -4146.550844    -4146.550844  0.006221 -3.814436  0.079848
     spin moment: S , {S} =    0.00000  -0.00000   0.00000  -0.00000
   scf:   12    -4146.552536    -4146.551708    -4146.551708  0.001300 -3.800739  0.032024
     spin moment: S , {S} =    0.00000  -0.00000   0.00000  -0.00000
   scf:   13    -4146.552272    -4146.551986    -4146.551986  0.001185 -3.798293  0.021106
     spin moment: S , {S} =    0.00000  -0.00000   0.00000  -0.00000
   scf:   14    -4146.552315    -4146.552143    -4146.552143  0.000848 -3.796302  0.012405
     spin moment: S , {S} =    0.00000  -0.00000   0.00000  -0.00000
   scf:   15    -4146.552267    -4146.552201    -4146.552201  0.000786 -3.796158  0.007364
     spin moment: S , {S} =    0.00000  -0.00000   0.00000  -0.00000
   scf:   16    -4146.552267    -4146.552231    -4146.552231  0.000681 -3.796107  0.005457
     spin moment: S , {S} =    0.00000   0.00000   0.00000   0.00000
   scf:   17    -4146.552252    -4146.552241    -4146.552241  0.000428 -3.796106  0.004014
     spin moment: S , {S} =    0.00000   0.00000   0.00000   0.00000
   scf:   18    -4146.552249    -4146.552244    -4146.552244  0.000266 -3.796087  0.002707
     spin moment: S , {S} =    0.00000   0.00000   0.00000   0.00000
   scf:   19    -4146.552249    -4146.552246    -4146.552246  0.000217 -3.796038  0.001849
     spin moment: S , {S} =    0.00000   0.00000   0.00000   0.00000
   scf:   20    -4146.552248    -4146.552247    -4146.552247  0.000125 -3.796048  0.001270
     spin moment: S , {S} =    0.00000   0.00000   0.00000   0.00000
   scf:   21    -4146.552249    -4146.552248    -4146.552248  0.000150 -3.796086  0.000769
     spin moment: S , {S} =    0.00000   0.00000   0.00000   0.00000
   scf:   22    -4146.552248    -4146.552248    -4146.552248  0.000112 -3.796140  0.000288
     spin moment: S , {S} =    0.00000   0.00000   0.00000   0.00000
   scf:   23    -4146.552248    -4146.552248    -4146.552248  0.000047 -3.796147  0.000151
     spin moment: S , {S} =    0.00000   0.00000   0.00000   0.00000
   scf:   24    -4146.552248    -4146.552248    -4146.552248  0.000021 -3.796139  0.000093
     spin moment: S , {S} =    0.00000   0.00000   0.00000   0.00000
mix: Pulay -- resetting history
   scf:   25    -4146.552248    -4146.552248    -4146.552248  0.000012 -3.796126  0.000060
     spin moment: S , {S} =    0.00000  -0.00000   0.00000   0.00000
   scf:   26    -4146.552248    -4146.552248    -4146.552248  0.000004 -3.796115  0.000032
     spin moment: S , {S} =    0.00000  -0.00000   0.00000   0.00000
   scf:   27    -4146.552248    -4146.552248    -4146.552248  0.000003 -3.796113  0.000020
     spin moment: S , {S} =    0.00000  -0.00000   0.00000   0.00000
   scf:   28    -4146.552248    -4146.552248    -4146.552248  0.000003 -3.796111  0.000009
     spin moment: S , {S} =    0.00000  -0.00000   0.00000   0.00000
   scf:   29    -4146.552248    -4146.552248    -4146.552248  0.000001 -3.796111  0.000007
     spin moment: S , {S} =    0.00000  -0.00000   0.00000   0.00000
   scf:   30    -4146.552248    -4146.552248    -4146.552248  0.000001 -3.796111  0.000003
     spin moment: S , {S} =    0.00000  -0.00000   0.00000   0.00000
   scf:   31    -4146.552248    -4146.552248    -4146.552248  0.000000 -3.796110  0.000002
     spin moment: S , {S} =    0.00000  -0.00000   0.00000   0.00000
   scf:   32    -4146.552248    -4146.552248    -4146.552248  0.000000 -3.796110  0.000001
     spin moment: S , {S} =    0.00000   0.00000   0.00000   0.00000
   scf:   33    -4146.552248    -4146.552248    -4146.552248  0.000000 -3.796110  0.000001
     spin moment: S , {S} =    0.00000   0.00000   0.00000   0.00000

SCF Convergence by DM+H criterion
max |DM_out - DM_in|         :     0.0000001422
max |H_out - H_in|      (eV) :     0.0000008371
SCF cycle converged after 33 iterations

Using DM_out to compute the final energy and forces
No. of atoms with KB's overlaping orbs in proc 0. Max # of overlaps:      29     142

siesta: E_KS(eV) =            -4146.5522

siesta: E_KS - E_eggbox =     -4146.5522
     spin moment: S , {S} =    0.00000   0.00000   0.00000   0.00000

siesta: Atomic forces (eV/Ang):
     1   -0.572050   -2.867361    0.000000
     2   -0.000697   -0.005826    0.000000
     3   -0.040674    0.012399    0.000000
     4   -0.036614   -0.036104    0.000000
     5    0.003362   -0.023506   -0.000000
     6   -0.049613   -0.008554    0.000000
     7   -0.008304   -0.004364   -0.000000
     8    0.025618    0.037423   -0.000000
     9    0.054188    0.005003    0.000000
    10    0.102705    0.032684   -0.000000
    11   -0.031053    0.030380    0.000000
    12   -0.206230    0.046672   -0.000000
    13    0.051119    0.053532    0.000000
    14    0.051759    0.079956   -0.000000
    15    0.160754    0.101660    0.000000
    16   -0.036187    0.117544    0.000000
    17   -0.058455   -0.004079   -0.000000
    18    0.005279   -0.007956   -0.000000
    19   -0.010524    0.012021    0.000000
    20   -0.013512   -0.006966    0.000000
    21    0.019025   -0.011117   -0.000000
    22    0.051476    0.012047    0.000000
    23    0.006840    0.016470    0.000000
    24    0.013469    0.049166    0.000000
    25   -0.008027   -0.057761   -0.000000
    26   -0.018622    0.153419   -0.000000
    27    0.174644    0.022624   -0.000000
    28    2.883139   -3.346672   -0.000000
    29    0.022443    0.036536    0.000000
----------------------------------------
   Tot    2.535258   -5.560730    0.000000
----------------------------------------
   Max    3.346672
   Res    0.570025    sqrt( Sum f_i^2 / 3N )
----------------------------------------
   Max    3.346672    constrained

Stress tensor Voigt[x,y,z,yz,xz,xy] (kbar):        0.10        0.10       -0.09       -0.00       -0.00        0.36
(Free)E + p*V (eV/cell)    -4146.7008
Target enthalpy (eV/cell)    -4146.5522

mulliken: Atomic and Orbital Populations:

Species: O                   

Atom      Orb        Charge      Spin       Svec
----------------------------------------------------------------
    1  1 2s         1.74475   0.00000     -0.000   0.000   0.000
    1  2 2s         0.06867   0.00000      0.000   0.000   0.000
    1  3 2py        1.42501   0.00000     -0.000   0.000  -0.000
    1  4 2pz        1.53947   0.00000     -0.000  -0.000   0.000
    1  5 2px        1.61377   0.00000     -0.000  -0.000  -0.000
    1  6 2py        0.04260   0.00000      0.000   0.000   0.000
    1  7 2pz       -0.00202   0.00000      0.000   0.000   0.000
    1  8 2px        0.00892   0.00000      0.000   0.000   0.000
    1  9 3Pdxy      0.00755   0.00000     -0.000  -0.000   0.000
    1 10 3Pdyz      0.00953   0.00000     -0.000   0.000  -0.000
    1 11 3Pdz2      0.00172   0.00000      0.000   0.000  -0.000
    1 12 3Pdxz      0.00043   0.00000      0.000   0.000   0.000
    1 13 3Pdx2-y2   0.00717   0.00000      0.000   0.000  -0.000
    1     Total     6.46756   0.00000     -0.000   0.000   0.000

   28  1 2s         1.73757   0.00000      0.000  -0.000   0.000
   28  2 2s         0.06962   0.00000     -0.000   0.000  -0.000
   28  3 2py        1.41828   0.00000     -0.000  -0.000   0.000
   28  4 2pz        1.53463   0.00000     -0.000  -0.000   0.000
   28  5 2px        1.63239   0.00000     -0.000  -0.000   0.000
   28  6 2py        0.04607   0.00000      0.000   0.000   0.000
   28  7 2pz       -0.00079   0.00000      0.000  -0.000   0.000
   28  8 2px        0.01558   0.00000     -0.000   0.000   0.000
   28  9 3Pdxy      0.00716   0.00000      0.000   0.000  -0.000
   28 10 3Pdyz      0.01046   0.00000      0.000   0.000   0.000
   28 11 3Pdz2      0.00131   0.00000     -0.000   0.000  -0.000
   28 12 3Pdxz     -0.00017   0.00000      0.000  -0.000   0.000
   28 13 3Pdx2-y2   0.00784   0.00000      0.000  -0.000  -0.000
   28     Total     6.47994   0.00000     -0.000  -0.000   0.000

----------------------------------------------------------------
Total              12.94751   0.00000     -0.000  -0.000   0.000


Species: N                   

Atom      Orb        Charge      Spin       Svec
----------------------------------------------------------------
    2  1 2s         1.55030   0.00000      0.000   0.000  -0.000
    2  2 2s         0.08415   0.00000     -0.000  -0.000   0.000
    2  3 2py        1.03130   0.00000      0.000   0.000  -0.000
    2  4 2pz        1.22378   0.00000      0.000   0.000  -0.000
    2  5 2px        1.00455   0.00000     -0.000  -0.000  -0.000
    2  6 2py        0.19301   0.00000     -0.000  -0.000   0.000
    2  7 2pz        0.05465   0.00000     -0.000  -0.000   0.000
    2  8 2px        0.19103   0.00000      0.000   0.000   0.000
    2  9 3Pdxy      0.00843   0.00000      0.000  -0.000   0.000
    2 10 3Pdyz      0.01084   0.00000      0.000  -0.000   0.000
    2 11 3Pdz2      0.00196   0.00000     -0.000  -0.000   0.000
    2 12 3Pdxz      0.00753   0.00000      0.000  -0.000   0.000
    2 13 3Pdx2-y2   0.00893   0.00000      0.000   0.000  -0.000
    2     Total     5.37047   0.00000      0.000   0.000  -0.000

    3  1 2s         1.40760   0.00000     -0.000   0.000  -0.000
    3  2 2s         0.11422   0.00000      0.000  -0.000   0.000
    3  3 2py        0.93949   0.00000     -0.000   0.000  -0.000
    3  4 2pz        1.53787   0.00000     -0.000  -0.000  -0.000
    3  5 2px        1.09667   0.00000     -0.000  -0.000  -0.000
    3  6 2py        0.24824   0.00000      0.000  -0.000   0.000
    3  7 2pz        0.00901   0.00000      0.000   0.000   0.000
    3  8 2px        0.16953   0.00000      0.000   0.000   0.000
    3  9 3Pdxy      0.00430   0.00000      0.000   0.000   0.000
    3 10 3Pdyz      0.00418   0.00000     -0.000   0.000  -0.000
    3 11 3Pdz2      0.00083   0.00000     -0.000   0.000   0.000
    3 12 3Pdxz      0.00268   0.00000      0.000   0.000  -0.000
    3 13 3Pdx2-y2   0.00307   0.00000     -0.000  -0.000  -0.000
    3     Total     5.53769   0.00000     -0.000  -0.000  -0.000

    4  1 2s         1.46846   0.00000      0.000  -0.000  -0.000
    4  2 2s         0.11682   0.00000      0.000   0.000   0.000
    4  3 2py        1.10530   0.00000      0.000  -0.000   0.000
    4  4 2pz        1.29237   0.00000     -0.000  -0.000  -0.000
    4  5 2px        0.84208   0.00000      0.000  -0.000  -0.000
    4  6 2py        0.15553   0.00000     -0.000  -0.000   0.000
    4  7 2pz        0.05381   0.00000      0.000   0.000   0.000
    4  8 2px        0.28649   0.00000     -0.000   0.000   0.000
    4  9 3Pdxy      0.00855   0.00000      0.000   0.000  -0.000
    4 10 3Pdyz      0.01080   0.00000     -0.000   0.000  -0.000
    4 11 3Pdz2      0.00132   0.00000      0.000  -0.000   0.000
    4 12 3Pdxz      0.00496   0.00000      0.000   0.000  -0.000
    4 13 3Pdx2-y2   0.00850   0.00000     -0.000  -0.000  -0.000
    4     Total     5.35498   0.00000      0.000  -0.000   0.000

    5  1 2s         1.37379   0.00000      0.000  -0.000  -0.000
    5  2 2s         0.12882   0.00000     -0.000   0.000   0.000
    5  3 2py        1.02736   0.00000      0.000  -0.000  -0.000
    5  4 2pz        1.50106   0.00000      0.000  -0.000  -0.000
    5  5 2px        1.05905   0.00000     -0.000   0.000  -0.000
    5  6 2py        0.20317   0.00000     -0.000   0.000   0.000
    5  7 2pz        0.01346   0.00000     -0.000   0.000   0.000
    5  8 2px        0.20237   0.00000      0.000  -0.000   0.000
    5  9 3Pdxy      0.00369   0.00000      0.000  -0.000   0.000
    5 10 3Pdyz      0.00249   0.00000     -0.000   0.000   0.000
    5 11 3Pdz2      0.00137   0.00000     -0.000  -0.000   0.000
    5 12 3Pdxz      0.00686   0.00000      0.000   0.000   0.000
    5 13 3Pdx2-y2   0.00572   0.00000     -0.000   0.000   0.000
    5     Total     5.52921   0.00000     -0.000  -0.000  -0.000

    6  1 2s         1.26676   0.00000      0.000  -0.000  -0.000
    6  2 2s         0.17987   0.00000     -0.000   0.000   0.000
    6  3 2py        1.07979   0.00000      0.000  -0.000  -0.000
    6  4 2pz        1.57753   0.00000      0.000   0.000  -0.000
    6  5 2px        0.97103   0.00000     -0.000  -0.000  -0.000
    6  6 2py        0.18751   0.00000     -0.000   0.000   0.000
    6  7 2pz        0.02930   0.00000      0.000  -0.000   0.000
    6  8 2px        0.25275   0.00000      0.000   0.000   0.000
    6  9 3Pdxy      0.00270   0.00000      0.000  -0.000   0.000
    6 10 3Pdyz      0.00013   0.00000      0.000   0.000  -0.000
    6 11 3Pdz2      0.00167   0.00000     -0.000   0.000  -0.000
    6 12 3Pdxz      0.00288   0.00000      0.000   0.000  -0.000
    6 13 3Pdx2-y2   0.00301   0.00000      0.000   0.000   0.000
    6     Total     5.55494   0.00000     -0.000  -0.000  -0.000

   21  1 2s         1.41224   0.00000      0.000   0.000  -0.000
   21  2 2s         0.13211   0.00000     -0.000  -0.000   0.000
   21  3 2py        0.87119   0.00000      0.000   0.000  -0.000
   21  4 2pz        1.29295   0.00000     -0.000   0.000   0.000
   21  5 2px        1.15554   0.00000     -0.000   0.000  -0.000
   21  6 2py        0.28104   0.00000     -0.000  -0.000   0.000
   21  7 2pz        0.05018   0.00000      0.000   0.000   0.000
   21  8 2px        0.16551   0.00000      0.000  -0.000   0.000
   21  9 3Pdxy      0.00658   0.00000      0.000  -0.000   0.000
   21 10 3Pdyz      0.00526   0.00000      0.000  -0.000  -0.000
   21 11 3Pdz2     -0.00003   0.00000      0.000  -0.000  -0.000
   21 12 3Pdxz      0.00579   0.00000      0.000  -0.000  -0.000
   21 13 3Pdx2-y2   0.00558   0.00000     -0.000   0.000  -0.000
   21     Total     5.38394   0.00000     -0.000   0.000   0.000

   22  1 2s         1.28672   0.00000      0.000   0.000   0.000
   22  2 2s         0.17092   0.00000     -0.000  -0.000  -0.000
   22  3 2py        1.06847   0.00000     -0.000   0.000  -0.000
   22  4 2pz        1.56186   0.00000     -0.000   0.000  -0.000
   22  5 2px        1.00170   0.00000     -0.000   0.000  -0.000
   22  6 2py        0.19330   0.00000      0.000  -0.000   0.000
   22  7 2pz        0.02776   0.00000      0.000  -0.000   0.000
   22  8 2px        0.23296   0.00000      0.000  -0.000   0.000
   22  9 3Pdxy      0.00360   0.00000     -0.000   0.000   0.000
   22 10 3Pdyz      0.00013   0.00000     -0.000  -0.000  -0.000
   22 11 3Pdz2      0.00260   0.00000     -0.000  -0.000  -0.000
   22 12 3Pdxz      0.00278   0.00000     -0.000  -0.000  -0.000
   22 13 3Pdx2-y2   0.00336   0.00000      0.000  -0.000  -0.000
   22     Total     5.55616   0.00000     -0.000   0.000  -0.000

   23  1 2s         1.39858   0.00000      0.000  -0.000   0.000
   23  2 2s         0.11694   0.00000     -0.000   0.000  -0.000
   23  3 2py        0.99586   0.00000      0.000  -0.000   0.000
   23  4 2pz        1.51822   0.00000      0.000   0.000  -0.000
   23  5 2px        1.07595   0.00000      0.000  -0.000  -0.000
   23  6 2py        0.22148   0.00000     -0.000   0.000  -0.000
   23  7 2pz        0.00547   0.00000      0.000  -0.000   0.000
   23  8 2px        0.19217   0.00000     -0.000   0.000   0.000
   23  9 3Pdxy      0.00527   0.00000      0.000   0.000   0.000
   23 10 3Pdyz      0.00451   0.00000      0.000  -0.000  -0.000
   23 11 3Pdz2      0.00048   0.00000      0.000   0.000  -0.000
   23 12 3Pdxz      0.00229   0.00000      0.000   0.000  -0.000
   23 13 3Pdx2-y2   0.00119   0.00000     -0.000   0.000  -0.000
   23     Total     5.53840   0.00000      0.000  -0.000  -0.000

----------------------------------------------------------------
Total              56.77329   0.00000     -0.000   0.000  -0.000


Species: Si                  

Atom      Orb        Charge      Spin       Svec
----------------------------------------------------------------
    7  1 3s         0.68896   0.00000      0.000  -0.000   0.000
    7  2 3s         0.35793   0.00000     -0.000   0.000   0.000
    7  3 3py        0.47557   0.00000      0.000  -0.000  -0.000
    7  4 3pz        0.69896   0.00000     -0.000   0.000   0.000
    7  5 3px        0.13665   0.00000      0.000  -0.000   0.000
    7  6 3py        0.27098   0.00000     -0.000   0.000   0.000
    7  7 3pz        0.25798   0.00000      0.000  -0.000   0.000
    7  8 3px        0.42216   0.00000     -0.000   0.000   0.000
    7  9 3Pdxy      0.24289   0.00000     -0.000  -0.000   0.000
    7 10 3Pdyz      0.03037   0.00000     -0.000  -0.000   0.000
    7 11 3Pdz2      0.01208   0.00000     -0.000   0.000   0.000
    7 12 3Pdxz      0.13866   0.00000      0.000   0.000  -0.000
    7 13 3Pdx2-y2   0.11315   0.00000     -0.000   0.000   0.000
    7     Total     3.84634   0.00000      0.000  -0.000   0.000

    8  1 3s         0.64825   0.00000     -0.000   0.000  -0.000
    8  2 3s         0.37128   0.00000      0.000  -0.000   0.000
    8  3 3py        0.38670   0.00000      0.000   0.000  -0.000
    8  4 3pz        0.52728   0.00000     -0.000   0.000  -0.000
    8  5 3px       -0.03203   0.00000     -0.000   0.000  -0.000
    8  6 3py        0.30474   0.00000     -0.000  -0.000   0.000
    8  7 3pz        0.20211   0.00000      0.000  -0.000   0.000
    8  8 3px        0.52009   0.00000      0.000   0.000   0.000
    8  9 3Pdxy      0.25845   0.00000     -0.000  -0.000  -0.000
    8 10 3Pdyz      0.11054   0.00000     -0.000  -0.000  -0.000
    8 11 3Pdz2      0.01338   0.00000      0.000   0.000   0.000
    8 12 3Pdxz      0.15555   0.00000     -0.000  -0.000  -0.000
    8 13 3Pdx2-y2   0.18796   0.00000      0.000   0.000   0.000
    8     Total     3.65428   0.00000     -0.000   0.000  -0.000

    9  1 3s         0.63064   0.00000     -0.000  -0.000  -0.000
    9  2 3s         0.35570   0.00000      0.000   0.000  -0.000
    9  3 3py        0.08580   0.00000     -0.000   0.000  -0.000
    9  4 3pz        0.48241   0.00000      0.000  -0.000  -0.000
    9  5 3px        0.37098   0.00000      0.000   0.000  -0.000
    9  6 3py        0.43890   0.00000     -0.000  -0.000  -0.000
    9  7 3pz        0.18483   0.00000     -0.000   0.000  -0.000
    9  8 3px        0.26794   0.00000     -0.000  -0.000   0.000
    9  9 3Pdxy      0.31440   0.00000      0.000  -0.000  -0.000
    9 10 3Pdyz      0.19130   0.00000      0.000   0.000  -0.000
    9 11 3Pdz2      0.01625   0.00000     -0.000   0.000   0.000
    9 12 3Pdxz      0.08736   0.00000     -0.000   0.000  -0.000
    9 13 3Pdx2-y2   0.15442   0.00000      0.000  -0.000   0.000
    9     Total     3.58092   0.00000     -0.000  -0.000  -0.000

   10  1 3s         0.48405   0.00000     -0.000  -0.000  -0.000
   10  2 3s         0.37948   0.00000      0.000  -0.000   0.000
   10  3 3py        0.24002   0.00000      0.000   0.000   0.000
   10  4 3pz        0.41043   0.00000      0.000   0.000   0.000
   10  5 3px        0.10269   0.00000     -0.000   0.000   0.000
   10  6 3py        0.33620   0.00000     -0.000   0.000  -0.000
   10  7 3pz        0.22055   0.00000      0.000  -0.000   0.000
   10  8 3px        0.42158   0.00000      0.000   0.000  -0.000
   10  9 3Pdxy      0.16311   0.00000     -0.000  -0.000  -0.000
   10 10 3Pdyz      0.14985   0.00000      0.000   0.000   0.000
   10 11 3Pdz2      0.01143   0.00000     -0.000   0.000   0.000
   10 12 3Pdxz      0.16957   0.00000      0.000   0.000   0.000
   10 13 3Pdx2-y2   0.32198   0.00000     -0.000   0.000  -0.000
   10     Total     3.41092   0.00000      0.000   0.000   0.000

   11  1 3s         0.55847   0.00000     -0.000  -0.000   0.000
   11  2 3s         0.38217   0.00000      0.000   0.000   0.000
   11  3 3py        0.30383   0.00000      0.000   0.000   0.000
   11  4 3pz        0.54228   0.00000      0.000  -0.000   0.000
   11  5 3px        0.13765   0.00000     -0.000  -0.000   0.000
   11  6 3py        0.30311   0.00000     -0.000  -0.000   0.000
   11  7 3pz        0.17719   0.00000     -0.000   0.000   0.000
   11  8 3px        0.43250   0.00000      0.000   0.000   0.000
   11  9 3Pdxy      0.24365   0.00000     -0.000   0.000   0.000
   11 10 3Pdyz      0.12459   0.00000     -0.000  -0.000   0.000
   11 11 3Pdz2      0.00937   0.00000      0.000   0.000   0.000
   11 12 3Pdxz      0.05250   0.00000     -0.000   0.000   0.000
   11 13 3Pdx2-y2   0.18365   0.00000      0.000  -0.000   0.000
   11     Total     3.45097   0.00000      0.000  -0.000   0.000

   17  1 3s         0.64928   0.00000      0.000  -0.000   0.000
   17  2 3s         0.35769   0.00000     -0.000   0.000  -0.000
   17  3 3py        0.25128   0.00000     -0.000   0.000  -0.000
   17  4 3pz        0.42811   0.00000     -0.000  -0.000   0.000
   17  5 3px        0.22821   0.00000     -0.000  -0.000   0.000
   17  6 3py        0.37047   0.00000      0.000   0.000   0.000
   17  7 3pz        0.21256   0.00000      0.000   0.000   0.000
   17  8 3px        0.37573   0.00000     -0.000  -0.000  -0.000
   17  9 3Pdxy      0.29625   0.00000      0.000  -0.000  -0.000
   17 10 3Pdyz      0.14015   0.00000      0.000  -0.000   0.000
   17 11 3Pdz2      0.00984   0.00000      0.000  -0.000   0.000
   17 12 3Pdxz      0.14741   0.00000      0.000  -0.000   0.000
   17 13 3Pdx2-y2   0.16952   0.00000      0.000  -0.000   0.000
   17     Total     3.63650   0.00000     -0.000  -0.000   0.000

   18  1 3s         0.74673   0.00000      0.000  -0.000   0.000
   18  2 3s         0.33773   0.00000     -0.000  -0.000   0.000
   18  3 3py        0.09047   0.00000      0.000   0.000   0.000
   18  4 3pz        0.83374   0.00000      0.000   0.000   0.000
   18  5 3px        0.54554   0.00000     -0.000  -0.000   0.000
   18  6 3py        0.51252   0.00000     -0.000  -0.000   0.000
   18  7 3pz        0.19684   0.00000     -0.000  -0.000   0.000
   18  8 3px        0.25175   0.00000      0.000  -0.000   0.000
   18  9 3Pdxy      0.10903   0.00000      0.000   0.000  -0.000
   18 10 3Pdyz      0.02761   0.00000     -0.000   0.000  -0.000
   18 11 3Pdz2      0.00944   0.00000     -0.000  -0.000  -0.000
   18 12 3Pdxz      0.02910   0.00000     -0.000   0.000  -0.000
   18 13 3Pdx2-y2   0.10684   0.00000     -0.000   0.000   0.000
   18     Total     3.79733   0.00000     -0.000   0.000   0.000

   19  1 3s         0.45334   0.00000      0.000   0.000  -0.000
   19  2 3s         0.36575   0.00000      0.000  -0.000  -0.000
   19  3 3py        0.07916   0.00000      0.000   0.000  -0.000
   19  4 3pz        0.41876   0.00000     -0.000   0.000  -0.000
   19  5 3px        0.34584   0.00000      0.000   0.000  -0.000
   19  6 3py        0.47044   0.00000      0.000  -0.000  -0.000
   19  7 3pz        0.18767   0.00000      0.000   0.000  -0.000
   19  8 3px        0.24302   0.00000     -0.000  -0.000  -0.000
   19  9 3Pdxy      0.34814   0.00000     -0.000   0.000  -0.000
   19 10 3Pdyz      0.18933   0.00000      0.000  -0.000  -0.000
   19 11 3Pdz2      0.01586   0.00000     -0.000   0.000   0.000
   19 12 3Pdxz      0.08358   0.00000     -0.000  -0.000   0.000
   19 13 3Pdx2-y2   0.22730   0.00000     -0.000  -0.000  -0.000
   19     Total     3.42819   0.00000      0.000   0.000  -0.000

   20  1 3s         0.67267   0.00000      0.000  -0.000   0.000
   20  2 3s         0.38010   0.00000     -0.000   0.000  -0.000
   20  3 3py        0.33881   0.00000     -0.000   0.000  -0.000
   20  4 3pz        0.57800   0.00000     -0.000  -0.000  -0.000
   20  5 3px        0.13789   0.00000     -0.000  -0.000  -0.000
   20  6 3py        0.29043   0.00000      0.000  -0.000   0.000
   20  7 3pz        0.16362   0.00000      0.000  -0.000  -0.000
   20  8 3px        0.49946   0.00000      0.000   0.000   0.000
   20  9 3Pdxy      0.10306   0.00000     -0.000  -0.000  -0.000
   20 10 3Pdyz      0.13526   0.00000     -0.000   0.000  -0.000
   20 11 3Pdz2      0.00730   0.00000     -0.000  -0.000   0.000
   20 12 3Pdxz      0.02695   0.00000      0.000  -0.000  -0.000
   20 13 3Pdx2-y2   0.17048   0.00000     -0.000   0.000   0.000
   20     Total     3.50404   0.00000     -0.000  -0.000  -0.000

----------------------------------------------------------------
Total              89.08279   0.00000     -0.000  -0.000   0.000


Species: H                   

Atom      Orb        Charge      Spin       Svec
----------------------------------------------------------------
   12  1 1s         0.49280   0.00000     -0.000   0.000   0.000
   12  2 1s         0.18573   0.00000      0.000  -0.000   0.000
   12  3 2Ppy       0.02886   0.00000      0.000   0.000  -0.000
   12  4 2Ppz       0.03590   0.00000     -0.000  -0.000  -0.000
   12  5 2Ppx       0.02330   0.00000     -0.000   0.000   0.000
   12     Total     0.76658   0.00000     -0.000   0.000   0.000

   13  1 1s         1.02009   0.00000     -0.000   0.000  -0.000
   13  2 1s         0.09462   0.00000      0.000  -0.000   0.000
   13  3 2Ppy       0.01983   0.00000      0.000   0.000  -0.000
   13  4 2Ppz       0.02010   0.00000     -0.000   0.000   0.000
   13  5 2Ppx       0.03327   0.00000      0.000   0.000   0.000
   13     Total     1.18791   0.00000     -0.000   0.000  -0.000

   14  1 1s         0.46448   0.00000     -0.000   0.000   0.000
   14  2 1s         0.19966   0.00000      0.000   0.000   0.000
   14  3 2Ppy       0.01829   0.00000     -0.000   0.000  -0.000
   14  4 2Ppz       0.04714   0.00000      0.000  -0.000   0.000
   14  5 2Ppx       0.01739   0.00000      0.000   0.000  -0.000
   14     Total     0.74696   0.00000      0.000   0.000   0.000

   15  1 1s         0.47016   0.00000      0.000   0.000   0.000
   15  2 1s         0.19912   0.00000     -0.000   0.000   0.000
   15  3 2Ppy       0.00538   0.00000     -0.000  -0.000  -0.000
   15  4 2Ppz       0.04940   0.00000     -0.000   0.000  -0.000
   15  5 2Ppx       0.02793   0.00000      0.000  -0.000  -0.000
   15     Total     0.75198   0.00000     -0.000   0.000   0.000

   16  1 1s         0.50791   0.00000     -0.000  -0.000   0.000
   16  2 1s         0.18760   0.00000     -0.000  -0.000   0.000
   16  3 2Ppy       0.03003   0.00000      0.000   0.000   0.000
   16  4 2Ppz       0.03955   0.00000     -0.000   0.000  -0.000
   16  5 2Ppx       0.02320   0.00000      0.000  -0.000   0.000
   16     Total     0.78829   0.00000     -0.000   0.000   0.000

   24  1 1s         1.05809   0.00000     -0.000   0.000  -0.000
   24  2 1s         0.07624   0.00000      0.000  -0.000   0.000
   24  3 2Ppy       0.03141   0.00000      0.000  -0.000   0.000
   24  4 2Ppz       0.03146   0.00000      0.000   0.000   0.000
   24  5 2Ppx       0.01751   0.00000      0.000   0.000  -0.000
   24     Total     1.21471   0.00000     -0.000   0.000  -0.000

   25  1 1s         1.04757   0.00000      0.000   0.000  -0.000
   25  2 1s         0.08423   0.00000     -0.000  -0.000  -0.000
   25  3 2Ppy       0.01172   0.00000      0.000  -0.000  -0.000
   25  4 2Ppz       0.01781   0.00000      0.000  -0.000  -0.000
   25  5 2Ppx       0.03643   0.00000      0.000  -0.000   0.000
   25     Total     1.19776   0.00000      0.000  -0.000  -0.000

   26  1 1s         0.47739   0.00000      0.000  -0.000   0.000
   26  2 1s         0.19853   0.00000     -0.000   0.000   0.000
   26  3 2Ppy       0.01870   0.00000      0.000   0.000  -0.000
   26  4 2Ppz       0.05220   0.00000      0.000  -0.000  -0.000
   26  5 2Ppx       0.01625   0.00000      0.000  -0.000  -0.000
   26     Total     0.76308   0.00000      0.000  -0.000   0.000

   27  1 1s         0.46996   0.00000      0.000  -0.000   0.000
   27  2 1s         0.19659   0.00000     -0.000   0.000   0.000
   27  3 2Ppy       0.00609   0.00000     -0.000   0.000   0.000
   27  4 2Ppz       0.04452   0.00000     -0.000  -0.000   0.000
   27  5 2Ppx       0.02872   0.00000     -0.000  -0.000  -0.000
   27     Total     0.74588   0.00000     -0.000  -0.000   0.000

   29  1 1s         0.48264   0.00000      0.000   0.000   0.000
   29  2 1s         0.18846   0.00000     -0.000  -0.000   0.000
   29  3 2Ppy       0.02521   0.00000     -0.000   0.000  -0.000
   29  4 2Ppz       0.03397   0.00000     -0.000  -0.000   0.000
   29  5 2Ppx       0.02379   0.00000     -0.000   0.000   0.000
   29     Total     0.75407   0.00000      0.000  -0.000   0.000

----------------------------------------------------------------
Total              98.00000   0.00000      0.000   0.000   0.000


siesta: Eigenvalues (eV):
ik =     1
  -21.9458  -21.9458  -21.9274  -21.9274  -21.7595  -21.7595  -21.5226  -21.5226  -21.3251  -21.3251
  -21.0350  -21.0350  -20.8500  -20.8500  -19.8863  -19.8863  -19.4655  -19.4655  -19.3882  -19.3882
  -14.7038  -14.7038  -13.9185  -13.9185  -13.2954  -13.2954  -13.1897  -13.1897  -13.1511  -13.1511
  -12.8643  -12.8643  -12.8009  -12.8009  -12.5078  -12.5078  -12.3723  -12.3723  -11.9361  -11.9361
  -11.4642  -11.4642  -10.7623  -10.7623  -10.7612  -10.7612  -10.6953  -10.6953  -10.0621  -10.0621
   -9.5477   -9.5477   -9.2124   -9.2124   -8.9884   -8.9884   -8.7730   -8.7730   -8.6455   -8.6455
   -8.6171   -8.6171   -8.3764   -8.3764   -8.2221   -8.2221   -7.7835   -7.7835   -7.7002   -7.7002
   -7.6420   -7.6420   -7.4388   -7.4388   -7.2980   -7.2980   -6.8663   -6.8663   -6.7482   -6.7482
   -6.5720   -6.5720   -6.5153   -6.5153   -6.2815   -6.2815   -6.1975   -6.1975   -6.1370   -6.1370
   -5.8775   -5.8775   -5.8485   -5.8485   -5.4273   -5.4273   -4.3954   -4.3954   -3.2010   -3.2010
   -2.4106   -2.4106   -2.3240   -2.3240   -2.2424   -2.2424   -1.9907   -1.9907   -1.8811   -1.8811
   -1.8557   -1.8557   -1.7505   -1.7505   -1.5737   -1.5737   -1.5367   -1.5367   -1.2680   -1.2680
   -0.9257   -0.9257   -0.8199   -0.8199   -0.4832   -0.4832   -0.1549   -0.1549    0.2780    0.2780
    0.3036    0.3036    0.3042    0.3042    0.5975    0.5975    0.7606    0.7606    0.7871    0.7871
    1.1838    1.1838    1.3016    1.3016    1.4174    1.4174    1.4646    1.4646    1.4672    1.4672
    1.6610    1.6610    1.9067    1.9067    2.2329    2.2329    2.3664    2.3664    2.6181    2.6181
    2.6814    2.6814    2.9645    2.9645    3.0193    3.0193    3.1538    3.1538    3.2855    3.2855
    3.3694    3.3694    3.7290    3.7290    3.8750    3.8750    4.1523    4.1523    4.3209    4.3209
    4.4778    4.4778    4.5280    4.5280    4.5391    4.5391    4.7107    4.7107    4.7608    4.7608
    4.8689    4.8689    5.0923    5.0923    5.2006    5.2006    5.5319    5.5319    5.5725    5.5725
    5.6025    5.6025    5.8233    5.8233    5.9019    5.9019    5.9303    5.9303    6.0569    6.0569
    6.2440    6.2440    6.2923    6.2923    6.5808    6.5808    6.6171    6.6171    6.8734    6.8734
    7.1108    7.1108    7.1772    7.1772    7.2365    7.2365    7.4678    7.4678    7.7687    7.7687
    7.7969    7.7969    8.0432    8.0432    8.1319    8.1319    8.1760    8.1760    8.2991    8.2991
    8.5647    8.5647    8.6466    8.6466    8.6611    8.6611    8.9464    8.9464    9.1296    9.1296
    9.1954    9.1954    9.2777    9.2777    9.7248    9.7248    9.7579    9.7579    9.7703    9.7703
    9.7722    9.7722   10.1989   10.1989   10.3205   10.3205   10.7857   10.7857   10.8305   10.8305
   10.9715   10.9715   10.9959   10.9959   11.0217   11.0217   11.8433   11.8433   11.8980   11.8980
   11.9499   11.9499   11.9877   11.9877   12.0480   12.0480   12.3188   12.3188   12.3669   12.3669
   12.7983   12.7983   12.8264   12.8264   13.3454   13.3454   13.5894   13.5894   13.7035   13.7035
   13.9514   13.9514   14.0334   14.0334   14.0737   14.0737   14.0879   14.0879   14.6486   14.6486
   15.0637   15.0637   15.5493   15.5493   15.8005   15.8005   16.1535   16.1535   16.7732   16.7732
   16.9010   16.9010   17.3736   17.3736   18.0995   18.0995   18.1984   18.1984   18.3296   18.3296
   18.4750   18.4750   19.2095   19.2095   19.5067   19.5067   20.0604   20.0604   20.2223   20.2223
   20.9890   20.9890   21.2122   21.2122   21.7873   21.7873   22.3809   22.3809   22.5350   22.5350
   23.0104   23.0104   23.1125   23.1125   23.5565   23.5565   23.7503   23.7503   23.9090   23.9090
   24.7798   24.7798   24.7844   24.7844   26.2844   26.2844   26.8928   26.8928   28.8124   28.8124
   28.8877   28.8877   28.9307   28.9307   29.4168   29.4168   29.7404   29.7404   29.9757   29.9757
   30.2537   30.2537   30.3914   30.3914   30.7616   30.7616   30.8616   30.8616   30.9716   30.9716
   30.9882   30.9882   31.2438   31.2438   31.5230   31.5230   31.7213   31.7213   32.3521   32.3521
   32.7654   32.7654   34.0729   34.0729   34.2511   34.2511   34.6143   34.6143   34.8344   34.8344
   35.1593   35.1593   35.1600   35.1600   35.3335   35.3335   35.4223   35.4223   36.0361   36.0361
   36.5940   36.5940   36.8674   36.8674   37.2421   37.2421   37.2999   37.2999   37.5772   37.5772
   38.0236   38.0236   38.2100   38.2100   39.2114   39.2114   39.3670   39.3670   39.9164   39.9164
   40.1299   40.1299   40.6880   40.6880   40.8469   40.8469   40.8592   40.8592   41.1402   41.1402
   41.3336   41.3336   41.3570   41.3570   42.5224   42.5224   42.8870   42.8870   43.2095   43.2095
   43.2971   43.2971   43.6830   43.6830   43.9176   43.9176   43.9708   43.9708   44.1301   44.1301
   44.6507   44.6507   44.6752   44.6752   44.8583   44.8583   45.3229   45.3229   46.2814   46.2814
   46.4356   46.4356   46.7318   46.7318   47.3698   47.3698   49.1183   49.1183   49.1664   49.1664
   49.3325   49.3325   50.3747   50.3747   50.9049   50.9049   51.0138   51.0138   51.1618   51.1618
   51.2526   51.2526   51.8280   51.8280   52.4853   52.4853   52.8600   52.8600   54.7308   54.7308
   54.7715   54.7715   54.8987   54.8987   55.2332   55.2332   55.7406   55.7406   55.7947   55.7947
   55.9722   55.9722   56.4300   56.4300   56.7190   56.7190   58.1415   58.1415   58.7050   58.7050
   59.1636   59.1636   60.1957   60.1957   60.3107   60.3107   60.9411   60.9411   61.4265   61.4265
   61.8056   61.8056   62.0152   62.0152   62.1684   62.1684   64.2596   64.2596   66.3773   66.3773
   67.1069   67.1069   67.1648   67.1648   68.6764   68.6764   68.9773   68.9773   70.6371   70.6371
   73.3774   73.3774   80.7839   80.7839   90.0743   90.0743   91.7331   91.7331   93.3567   93.3567
   98.2028   98.2028   99.4125   99.4125  100.3211  100.3211  103.1737  103.1737  103.4611  103.4611
  110.4053  110.4053  111.2600  111.2600  123.8203  123.8203  126.2315  126.2315  130.8088  130.8088
  139.8160  139.8160  141.1365  141.1365
siesta: Fermi energy =      -3.796110 eV

siesta: Program's energy decomposition (eV):
siesta: Ebs     =     -1137.404247
siesta: Eions   =      3585.165840
siesta: Ena     =       384.948850
siesta: Ekin    =      2907.715172
siesta: Enl     =     -2795.111267
siesta: Eso     =        -0.004258
siesta: Edftu   =         0.000000
siesta: DEna    =        47.457143
siesta: DUscf   =        14.377882
siesta: DUext   =         0.000000
siesta: Exc     =     -1120.769930
siesta: eta*DQ  =         0.000000
siesta: Emadel  =         0.000000
siesta: Emeta   =         0.000000
siesta: Emolmec =         0.000000
siesta: Ekinion =         0.000000
siesta: Eharris =     -4146.552248
siesta: Etot    =     -4146.552248
siesta: FreeEng =     -4146.552248

siesta: Final energy (eV):
siesta:  Band Struct. =   -1137.404247
siesta:       Kinetic =    2907.715172
siesta:       Hartree =    8173.617192
siesta:       Edftu   =       0.000000
siesta:       Eso     =      -0.004258
siesta:    Ext. field =       0.000000
siesta:   Exch.-corr. =   -1120.769930
siesta:  Ion-electron =  -18937.465444
siesta:       Ion-ion =    4830.355020
siesta:       Ekinion =       0.000000
siesta:         Total =   -4146.552248
siesta:         Fermi =      -3.796110

siesta: Atomic forces (eV/Ang):
siesta:      1   -0.572050   -2.867361    0.000000
siesta:      2   -0.000697   -0.005826    0.000000
siesta:      3   -0.040674    0.012399    0.000000
siesta:      4   -0.036614   -0.036104    0.000000
siesta:      5    0.003362   -0.023506   -0.000000
siesta:      6   -0.049613   -0.008554    0.000000
siesta:      7   -0.008304   -0.004364   -0.000000
siesta:      8    0.025618    0.037423   -0.000000
siesta:      9    0.054188    0.005003    0.000000
siesta:     10    0.102705    0.032684   -0.000000
siesta:     11   -0.031053    0.030380    0.000000
siesta:     12   -0.206230    0.046672   -0.000000
siesta:     13    0.051119    0.053532    0.000000
siesta:     14    0.051759    0.079956   -0.000000
siesta:     15    0.160754    0.101660    0.000000
siesta:     16   -0.036187    0.117544    0.000000
siesta:     17   -0.058455   -0.004079   -0.000000
siesta:     18    0.005279   -0.007956   -0.000000
siesta:     19   -0.010524    0.012021    0.000000
siesta:     20   -0.013512   -0.006966    0.000000
siesta:     21    0.019025   -0.011117   -0.000000
siesta:     22    0.051476    0.012047    0.000000
siesta:     23    0.006840    0.016470    0.000000
siesta:     24    0.013469    0.049166    0.000000
siesta:     25   -0.008027   -0.057761   -0.000000
siesta:     26   -0.018622    0.153419   -0.000000
siesta:     27    0.174644    0.022624   -0.000000
siesta:     28    2.883139   -3.346672   -0.000000
siesta:     29    0.022443    0.036536    0.000000
siesta: ----------------------------------------
siesta:    Tot    2.535258   -5.560730    0.000000

siesta: Stress tensor (static) (eV/Ang**3):
siesta:     0.000065    0.000227   -0.000000
siesta:     0.000227    0.000064   -0.000000
siesta:    -0.000000   -0.000000   -0.000054

siesta: Cell volume =       5937.048918 Ang**3

siesta: Pressure (static):
siesta:                Solid            Molecule  Units
siesta:          -0.00000027         -0.00000856  Ry/Bohr**3
siesta:          -0.00002502         -0.00078596  eV/Ang**3
siesta:          -0.04009257         -1.25926728  kBar
(Free)E+ p_basis*V_orbitals  =       -4126.701831
(Free)Eharris+ p_basis*V_orbitals  =       -4126.701831
     spin moment: S , {S} =    0.00000   0.00000   0.00000   0.00000

siesta: Electric dipole (a.u.)  =    1.380234   -0.025010    0.000000
siesta: Electric dipole (Debye) =    3.508207   -0.063568    0.000000

cite: Please see "GC.bib" for an exhaustive BiBTeX file.
cite: Please clearly indicate Siesta version in published work: v4.1.5-1-g384057250
cite: This calculation has made use of the following articles
cite: which are encouraged to be cited in a published work.
        Primary SIESTA paper
          DOI: www.doi.org/10.1088/0953-8984/14/11/302
        Spin-orbit coupling (on-site approximation)
          DOI: www.doi.org/10.1088/0953-8984/19/19/489001


WARNING: alloc-realloc-dealloc name mismatch
         Name: atomlist isa
         Size:              -116. Bytes
         Node:     0
         Subsequent mismatches will not be reported
>> End of run:  22-MAY-2023  20:07:31
Job completed
