Siesta Version  : v4.1.5-1-g384057250
Architecture    : gcc
Compiler version: GNU Fortran (Debian 10.2.1-6) 10.2.1 20210110
Compiler flags  : mpifort -O2 -fPIC -ftree-vectorize -fallow-argument-mismatch
PP flags        : -DFC_HAVE_ABORT -DMPI -DSIESTA__FLOOK -DSIESTA__METIS -DSIESTA__MUMPS -DCDF -DNCDF -DNCDF_4 -DNCDF_PARALLEL -DSIESTA__MRRR -DSIESTA__ELPA
Libraries       : libncdf.a libfdict.a  -lflookall -ldl -lnetcdff -lnetcdf -lhdf5_hl -lhdf5 -lhdf5_fortran -lz -lscalapack-openmpi -lopenblas -lmetis -lzmumps -lcmumps -ldmumps -lmumps_common -lpord -lsmumps -lesmumps -lscotch -lscotcherr -fopenmp -lelpa
PARALLEL version
NetCDF support
NetCDF-4 support
NetCDF-4 MPI-IO support
METIS ordering support
Lua support

* Running on 6 nodes in parallel
>> Start of run:  22-MAY-2023   9:55:54

                           ***********************       
                           *  WELCOME TO SIESTA  *       
                           ***********************       

reinit: Reading from standard input
reinit: Dumped input in INPUT_TMP.57229
************************** Dump of input data file ****************************
SystemLabel      AT
NumberOfAtoms    30
NumberOfSpecies  4
%block ChemicalSpeciesLabel
    1    1  H
    2    7  N
    3   14  Si
    4    8  O
%endblock ChemicalSpeciesLabel
# Single point calculation
MD.TypeOfRun                CG
MD.Steps                    0
SCF.MustConverge            F # In case it does not. There can be 2 very close atoms
AtomicCoordinatesFormat NotScaledCartesianAng
%block AtomicCoordinatesAndAtomicSpecies
2.582377650    -5.776830440   0.000000000       1
1.654759240    -5.269361980   0.000000000       2
0.063128840    -6.101704590   0.000000000       3
0.119223240    -7.596849500   0.000000000       1
-1.376892050   -5.182603740   0.000000000       2
-0.824371900   -3.460866440   0.000000000       3
-1.170571480   -1.270002100   0.000000000       3
-2.706933680   -0.417515780   0.000000000       2
-2.754569660   0.634858620    0.000000000       1
-3.637675640   -0.909967860   0.000000000       1
0.218091790    -0.234193970   0.000000000       2
1.872004100    -0.697162300   0.000000000       3
2.828001130    0.461464770    0.000000000       1
2.648150080    -2.255024470   0.000000000       2
1.391921380    -3.454727220   0.000000000       3
1.883643066    5.670530572    0.000000000       2
0.556271546    6.880734872    0.000000000       3
1.196272816    8.242053112    0.000000000       1
-1.529474394   6.210203522    0.000000000       3
-3.559036994   7.340319712    0.000000000       3
-3.404801224   8.500549922    0.940305280       1
-4.544971714   6.318399092    0.512613700       1
-3.975251954   7.816545562    -1.366678340      1
-1.462978974   3.936226902    0.000000000       3
-2.502027704   2.743167402    0.000000000       4
0.194012606    3.302251712    0.000000000       2
0.175995236    2.239806882    0.000000000       1
1.817615676    3.899321922    0.000000000       3
3.012631846    2.884896722    0.000000000       4
2.883680436    6.016037672    0.000000000       1
%endblock AtomicCoordinatesAndAtomicSpecies
%include ../../../Defaults.fdf
************************** End of input data file *****************************

reinit: -----------------------------------------------------------------------
reinit: System Name: 
reinit: -----------------------------------------------------------------------
reinit: System Label: AT
reinit: -----------------------------------------------------------------------

initatom: Reading input for the pseudopotentials and atomic orbitals ----------
Species number:   1 Atomic number:    1 Label: H
Species number:   2 Atomic number:    7 Label: N
Species number:   3 Atomic number:   14 Label: Si
Species number:   4 Atomic number:    8 Label: O

Ground state valence configuration:   1s01
Reading pseudopotential information in formatted form from H.psf

Pseudopotential generated from a relativistic atomic calculation

Valence configuration for pseudopotential generation:
1s( 1.00) rc: 0.01
2p( 0.00) rc: 0.60
3d( 0.00) rc: 1.99
4f( 0.00) rc: 2.49
Ground state valence configuration:   2s02  2p03
Reading pseudopotential information in formatted form from N.psf

Pseudopotential generated from a relativistic atomic calculation

Valence configuration for pseudopotential generation:
2s( 2.00) rc: 0.94
2p( 3.00) rc: 0.59
3d( 0.00) rc: 3.46
4f( 0.00) rc: 2.47
Ground state valence configuration:   3s02  3p02
Reading pseudopotential information in formatted form from Si.psf

Pseudopotential generated from a relativistic atomic calculation

Valence configuration for pseudopotential generation:
3s( 2.00) rc: 1.67
3p( 2.00) rc: 2.04
3d( 0.00) rc: 2.89
4f( 0.00) rc: 2.49
Ground state valence configuration:   2s02  2p04
Reading pseudopotential information in formatted form from O.psf

Pseudopotential generated from a relativistic atomic calculation

Valence configuration for pseudopotential generation:
2s( 2.00) rc: 0.45
2p( 4.00) rc: 0.92
3d( 0.00) rc: 2.24
4f( 0.00) rc: 0.25
For H, standard SIESTA heuristics set lmxkb to 2
 (one more than the basis l, including polarization orbitals).
Use PS.lmax or PS.KBprojectors blocks to override.
For N, standard SIESTA heuristics set lmxkb to 3
 (one more than the basis l, including polarization orbitals).
Use PS.lmax or PS.KBprojectors blocks to override.
For Si, standard SIESTA heuristics set lmxkb to 3
 (one more than the basis l, including polarization orbitals).
Use PS.lmax or PS.KBprojectors blocks to override.
For O, standard SIESTA heuristics set lmxkb to 3
 (one more than the basis l, including polarization orbitals).
Use PS.lmax or PS.KBprojectors blocks to override.

<basis_specs>
===============================================================================
H                    Z=   1    Mass=  1.0100        Charge= 0.17977+309
Lmxo=0 Lmxkb= 2    BasisType=split      Semic=F
L=0  Nsemic=0  Cnfigmx=1
          i=1  nzeta=2  polorb=1  (1s)
            splnorm:   0.62000    
               vcte:    0.0000    
               rinn:    0.0000    
               qcoe:    0.0000    
               qyuk:    0.0000    
               qwid:   0.10000E-01
                rcs:    0.0000      0.0000    
            lambdas:    1.0000      1.0000    
-------------------------------------------------------------------------------
L=0  Nkbl=1  erefs: 0.17977+309
L=1  Nkbl=1  erefs: 0.17977+309
L=2  Nkbl=1  erefs: 0.17977+309
===============================================================================
</basis_specs>

atom: Called for H                     (Z =   1)

read_vps: Pseudopotential generation method:
read_vps: ATM4.2.7  Troullier-Martins                       
Valence charge for ps generation:    1.00000

xc_check: Exchange-correlation functional:
xc_check: GGA Perdew, Burke & Ernzerhof 1996
V l=0 = -2*Zval/r beyond r=  0.0098
V l=1 = -2*Zval/r beyond r=  0.5817
V l=2 = -2*Zval/r beyond r=  1.9372
All V_l potentials equal beyond r=  1.9372
This should be close to max(r_c) in ps generation
All pots = -2*Zval/r beyond r=  1.9372

VLOCAL1: 99.0% of the norm of Vloc inside     11.567 Ry
VLOCAL1: 99.9% of the norm of Vloc inside     26.362 Ry
atom: Maximum radius for 4*pi*r*r*local-pseudopot. charge    2.25106
atom: Maximum radius for r*vlocal+2*Zval:    1.91306
GHOST: No ghost state for L =  0
GHOST: No ghost state for L =  1
GHOST: No ghost state for L =  2

KBgen: Kleinman-Bylander projectors: 
   l= 0   rc=  2.036604   el= -0.477180   Ekb= -6.081590   kbcos= -0.277285
   l= 1   rc=  2.195416   el=  0.001076   Ekb= -0.926943   kbcos= -0.034643
   l= 2   rc=  2.251056   el=  0.002010   Ekb= -0.130941   kbcos= -0.009788

KBgen: Total number of Kleinman-Bylander projectors:    9
atom: -------------------------------------------------------------------------

atom: SANKEY-TYPE ORBITALS:
atom: Selected multiple-zeta basis: split     

SPLIT: Orbitals with angular momentum L= 0

SPLIT: Basis orbitals for state 1s

SPLIT: PAO cut-off radius determined from an
SPLIT: energy shift=  0.002000 Ry

   izeta = 1
                 lambda =    1.000000
                     rc =    6.518340
                 energy =   -0.475305
                kinetic =    0.912139
    potential(screened) =   -1.387444
       potential(ionic) =   -1.907295

   izeta = 2
                 rmatch =    2.141150
              splitnorm =    0.620000
                 energy =    0.566467
                kinetic =    3.772856
    potential(screened) =   -3.206389
       potential(ionic) =   -3.759093

POLgen: Perturbative polarization orbital with L=  1

POLgen: Polarization orbital for state 1s

   izeta = 1
                     rc =    6.518340
                 energy =    0.533861
                kinetic =    1.121086
    potential(screened) =   -0.587225
       potential(ionic) =   -1.053027
atom: Total number of Sankey-type orbitals:  5

atm_pop: Valence configuration (for local Pseudopot. screening):
 1s( 1.00)                                                            
Vna: chval, zval:    1.00000   1.00000

Vna:  Cut-off radius for the neutral-atom potential:   6.518340

atom: _________________________________________________________________________

<basis_specs>
===============================================================================
N                    Z=   7    Mass=  14.010        Charge= 0.17977+309
Lmxo=1 Lmxkb= 3    BasisType=split      Semic=F
L=0  Nsemic=0  Cnfigmx=2
          i=1  nzeta=2  polorb=0  (2s)
            splnorm:   0.28000    
               vcte:    0.0000    
               rinn:    0.0000    
               qcoe:    0.0000    
               qyuk:    0.0000    
               qwid:   0.10000E-01
                rcs:    0.0000      0.0000    
            lambdas:    1.0000      1.0000    
L=1  Nsemic=0  Cnfigmx=2
          i=1  nzeta=2  polorb=1  (2p)
            splnorm:   0.28000    
               vcte:    0.0000    
               rinn:    0.0000    
               qcoe:    0.0000    
               qyuk:    0.0000    
               qwid:   0.10000E-01
                rcs:    0.0000      0.0000    
            lambdas:    1.0000      1.0000    
-------------------------------------------------------------------------------
L=0  Nkbl=1  erefs: 0.17977+309
L=1  Nkbl=1  erefs: 0.17977+309
L=2  Nkbl=1  erefs: 0.17977+309
L=3  Nkbl=1  erefs: 0.17977+309
===============================================================================
</basis_specs>

atom: Called for N                     (Z =   7)

read_vps: Pseudopotential generation method:
read_vps: ATM4.2.7  Troullier-Martins                       
Valence charge for ps generation:    5.00000

xc_check: Exchange-correlation functional:
xc_check: GGA Perdew, Burke & Ernzerhof 1996
V l=0 = -2*Zval/r beyond r=  1.2889
V l=1 = -2*Zval/r beyond r=  1.2889
V l=2 = -2*Zval/r beyond r=  3.4178
V l=3 = -2*Zval/r beyond r=  2.4084
All V_l potentials equal beyond r=  3.3753
This should be close to max(r_c) in ps generation
All pots = -2*Zval/r beyond r=  3.4178

VLOCAL1: 99.0% of the norm of Vloc inside      3.810 Ry
VLOCAL1: 99.9% of the norm of Vloc inside      8.683 Ry
atom: Maximum radius for 4*pi*r*r*local-pseudopot. charge    4.02088
atom: Maximum radius for r*vlocal+2*Zval:    3.54838
GHOST: No ghost state for L =  0
GHOST: No ghost state for L =  1
GHOST: No ghost state for L =  2
GHOST: No ghost state for L =  3

KBgen: Kleinman-Bylander projectors: 
   l= 0   rc=  3.417763   el= -1.365098   Ekb= -4.433130   kbcos= -0.707855
   l= 1   rc=  3.375302   el= -0.521201   Ekb=-13.264039   kbcos= -0.535594
   l= 2   rc=  3.872880   el=  0.001991   Ekb= -0.641094   kbcos= -0.062456
   l= 3   rc=  3.970931   el=  0.003093   Ekb= -0.474517   kbcos= -0.018236

KBgen: Total number of Kleinman-Bylander projectors:   16
atom: -------------------------------------------------------------------------

atom: SANKEY-TYPE ORBITALS:
atom: Selected multiple-zeta basis: split     

SPLIT: Orbitals with angular momentum L= 0

SPLIT: Basis orbitals for state 2s

SPLIT: PAO cut-off radius determined from an
SPLIT: energy shift=  0.002000 Ry

   izeta = 1
                 lambda =    1.000000
                     rc =    4.730425
                 energy =   -1.363399
                kinetic =    1.245246
    potential(screened) =   -2.608645
       potential(ionic) =   -8.121105

   izeta = 2
                 rmatch =    2.531849
              splitnorm =    0.280000
                 energy =   -0.959908
                kinetic =    2.409435
    potential(screened) =   -3.369343
       potential(ionic) =   -9.427975

SPLIT: Orbitals with angular momentum L= 1

SPLIT: Basis orbitals for state 2p

SPLIT: PAO cut-off radius determined from an
SPLIT: energy shift=  0.002000 Ry

   izeta = 1
                 lambda =    1.000000
                     rc =    5.924108
                 energy =   -0.519262
                kinetic =    3.672940
    potential(screened) =   -4.192202
       potential(ionic) =   -9.518354

   izeta = 2
                 rmatch =    2.531849
              splitnorm =    0.280000
                 energy =   -0.104258
                kinetic =    6.807538
    potential(screened) =   -6.911796
       potential(ionic) =  -13.149920

POLgen: Perturbative polarization orbital with L=  2

POLgen: Polarization orbital for state 2p

   izeta = 1
                     rc =    5.924108
                 energy =    1.427508
                kinetic =    2.872379
    potential(screened) =   -1.444871
       potential(ionic) =   -5.563644
atom: Total number of Sankey-type orbitals: 13

atm_pop: Valence configuration (for local Pseudopot. screening):
 2s( 2.00)                                                            
 2p( 3.00)                                                            
Vna: chval, zval:    5.00000   5.00000

Vna:  Cut-off radius for the neutral-atom potential:   5.924108

atom: _________________________________________________________________________

<basis_specs>
===============================================================================
Si                   Z=  14    Mass=  28.090        Charge= 0.17977+309
Lmxo=1 Lmxkb= 3    BasisType=split      Semic=F
L=0  Nsemic=0  Cnfigmx=3
          i=1  nzeta=2  polorb=0  (3s)
            splnorm:   0.28000    
               vcte:    0.0000    
               rinn:    0.0000    
               qcoe:    0.0000    
               qyuk:    0.0000    
               qwid:   0.10000E-01
                rcs:    0.0000      0.0000    
            lambdas:    1.0000      1.0000    
L=1  Nsemic=0  Cnfigmx=3
          i=1  nzeta=2  polorb=1  (3p)
            splnorm:   0.28000    
               vcte:    0.0000    
               rinn:    0.0000    
               qcoe:    0.0000    
               qyuk:    0.0000    
               qwid:   0.10000E-01
                rcs:    0.0000      0.0000    
            lambdas:    1.0000      1.0000    
-------------------------------------------------------------------------------
L=0  Nkbl=1  erefs: 0.17977+309
L=1  Nkbl=1  erefs: 0.17977+309
L=2  Nkbl=1  erefs: 0.17977+309
L=3  Nkbl=1  erefs: 0.17977+309
===============================================================================
</basis_specs>

atom: Called for Si                    (Z =  14)

read_vps: Pseudopotential generation method:
read_vps: ATM4.2.7  Troullier-Martins                       
Valence charge for ps generation:    4.00000

xc_check: Exchange-correlation functional:
xc_check: GGA Perdew, Burke & Ernzerhof 1996
V l=0 = -2*Zval/r beyond r=  2.7826
V l=1 = -2*Zval/r beyond r=  2.7826
V l=2 = -2*Zval/r beyond r=  2.9253
V l=3 = -2*Zval/r beyond r=  2.7826
All V_l potentials equal beyond r=  2.8530
This should be close to max(r_c) in ps generation
All pots = -2*Zval/r beyond r=  2.9253

VLOCAL1: 99.0% of the norm of Vloc inside      5.333 Ry
VLOCAL1: 99.9% of the norm of Vloc inside     12.154 Ry
atom: Maximum radius for 4*pi*r*r*local-pseudopot. charge    3.39869
atom: Maximum radius for r*vlocal+2*Zval:    2.96205
GHOST: No ghost state for L =  0
GHOST: No ghost state for L =  1
GHOST: No ghost state for L =  2
GHOST: No ghost state for L =  3

KBgen: Kleinman-Bylander projectors: 
   l= 0   rc=  3.075247   el= -0.794092   Ekb=  5.879390   kbcos=  0.167461
   l= 1   rc=  3.153101   el= -0.300068   Ekb=  2.642817   kbcos=  0.058301
   l= 2   rc=  3.273594   el=  0.001958   Ekb= -1.185135   kbcos= -0.104411
   l= 3   rc=  3.232927   el=  0.003046   Ekb= -0.497174   kbcos= -0.015889

KBgen: Total number of Kleinman-Bylander projectors:   16
atom: -------------------------------------------------------------------------

atom: SANKEY-TYPE ORBITALS:
atom: Selected multiple-zeta basis: split     

SPLIT: Orbitals with angular momentum L= 0

SPLIT: Basis orbitals for state 3s

SPLIT: PAO cut-off radius determined from an
SPLIT: energy shift=  0.002000 Ry

   izeta = 1
                 lambda =    1.000000
                     rc =    6.429618
                 energy =   -0.792283
                kinetic =    0.525293
    potential(screened) =   -1.317576
       potential(ionic) =   -3.744923

   izeta = 2
                 rmatch =    3.998416
              splitnorm =    0.280000
                 energy =   -0.583081
                kinetic =    1.069570
    potential(screened) =   -1.652651
       potential(ionic) =   -4.235185

SPLIT: Orbitals with angular momentum L= 1

SPLIT: Basis orbitals for state 3p

SPLIT: PAO cut-off radius determined from an
SPLIT: energy shift=  0.002000 Ry

   izeta = 1
                 lambda =    1.000000
                     rc =    8.464845
                 energy =   -0.298236
                kinetic =    0.785360
    potential(screened) =   -1.083596
       potential(ionic) =   -3.273779

   izeta = 2
                 rmatch =    4.587816
              splitnorm =    0.280000
                 energy =   -0.131871
                kinetic =    1.403687
    potential(screened) =   -1.535557
       potential(ionic) =   -4.015310

POLgen: Perturbative polarization orbital with L=  2

POLgen: Polarization orbital for state 3p

   izeta = 1
                     rc =    8.464845
                 energy =    0.321949
                kinetic =    1.055677
    potential(screened) =   -0.733728
       potential(ionic) =   -2.672950
atom: Total number of Sankey-type orbitals: 13

atm_pop: Valence configuration (for local Pseudopot. screening):
 3s( 2.00)                                                            
 3p( 2.00)                                                            
Vna: chval, zval:    4.00000   4.00000

Vna:  Cut-off radius for the neutral-atom potential:   8.464845

atom: _________________________________________________________________________

<basis_specs>
===============================================================================
O                    Z=   8    Mass=  16.000        Charge= 0.17977+309
Lmxo=1 Lmxkb= 3    BasisType=split      Semic=F
L=0  Nsemic=0  Cnfigmx=2
          i=1  nzeta=2  polorb=0  (2s)
            splnorm:   0.28000    
               vcte:    0.0000    
               rinn:    0.0000    
               qcoe:    0.0000    
               qyuk:    0.0000    
               qwid:   0.10000E-01
                rcs:    0.0000      0.0000    
            lambdas:    1.0000      1.0000    
L=1  Nsemic=0  Cnfigmx=2
          i=1  nzeta=2  polorb=1  (2p)
            splnorm:   0.28000    
               vcte:    0.0000    
               rinn:    0.0000    
               qcoe:    0.0000    
               qyuk:    0.0000    
               qwid:   0.10000E-01
                rcs:    0.0000      0.0000    
            lambdas:    1.0000      1.0000    
-------------------------------------------------------------------------------
L=0  Nkbl=1  erefs: 0.17977+309
L=1  Nkbl=1  erefs: 0.17977+309
L=2  Nkbl=1  erefs: 0.17977+309
L=3  Nkbl=1  erefs: 0.17977+309
===============================================================================
</basis_specs>

atom: Called for O                     (Z =   8)

read_vps: Pseudopotential generation method:
read_vps: ATM4.2.7  Troullier-Martins                       
Valence charge for ps generation:    6.00000

xc_check: Exchange-correlation functional:
xc_check: GGA Perdew, Burke & Ernzerhof 1996
V l=0 = -2*Zval/r beyond r=  1.1000
V l=1 = -2*Zval/r beyond r=  1.1000
V l=2 = -2*Zval/r beyond r=  2.2154
V l=3 = -2*Zval/r beyond r=  1.1000
All V_l potentials equal beyond r=  2.2154
This should be close to max(r_c) in ps generation
All pots = -2*Zval/r beyond r=  2.2154

VLOCAL1: 99.0% of the norm of Vloc inside      8.845 Ry
VLOCAL1: 99.9% of the norm of Vloc inside     20.157 Ry
atom: Maximum radius for 4*pi*r*r*local-pseudopot. charge    2.67231
atom: Maximum radius for r*vlocal+2*Zval:    2.32897
GHOST: No ghost state for L =  0
GHOST: No ghost state for L =  1
GHOST: No ghost state for L =  2
GHOST: No ghost state for L =  3

KBgen: Kleinman-Bylander projectors: 
   l= 0   rc=  2.243238   el= -1.759686   Ekb=**********   kbcos= -0.171774
   l= 1   rc=  2.328968   el= -0.663873   Ekb=-14.506792   kbcos= -0.519897
   l= 2   rc=  2.573941   el=  0.002031   Ekb= -1.137373   kbcos= -0.019581
   l= 3   rc=  2.606321   el=  0.003153   Ekb= -1.013546   kbcos= -0.003122

KBgen: Total number of Kleinman-Bylander projectors:   16
atom: -------------------------------------------------------------------------

atom: SANKEY-TYPE ORBITALS:
atom: Selected multiple-zeta basis: split     

SPLIT: Orbitals with angular momentum L= 0

SPLIT: Basis orbitals for state 2s

SPLIT: PAO cut-off radius determined from an
SPLIT: energy shift=  0.002000 Ry

   izeta = 1
                 lambda =    1.000000
                     rc =    4.243912
                 energy =   -1.758270
                kinetic =    3.286084
    potential(screened) =   -5.044353
       potential(ionic) =  -12.921184

   izeta = 2
                 rmatch =    2.187845
              splitnorm =    0.280000
                 energy =   -0.885018
                kinetic =    8.134434
    potential(screened) =   -9.019452
       potential(ionic) =  -17.710645

SPLIT: Orbitals with angular momentum L= 1

SPLIT: Basis orbitals for state 2p

SPLIT: PAO cut-off radius determined from an
SPLIT: energy shift=  0.002000 Ry

   izeta = 1
                 lambda =    1.000000
                     rc =    5.314825
                 energy =   -0.661986
                kinetic =    4.917472
    potential(screened) =   -5.579458
       potential(ionic) =  -13.236259

   izeta = 2
                 rmatch =    2.160663
              splitnorm =    0.280000
                 energy =   -0.068760
                kinetic =    9.183374
    potential(screened) =   -9.252135
       potential(ionic) =  -18.274251

POLgen: Perturbative polarization orbital with L=  2

POLgen: Polarization orbital for state 2p

   izeta = 1
                     rc =    5.314825
                 energy =    1.970580
                kinetic =    3.886128
    potential(screened) =   -1.915547
       potential(ionic) =   -7.749584
atom: Total number of Sankey-type orbitals: 13

atm_pop: Valence configuration (for local Pseudopot. screening):
 2s( 2.00)                                                            
 2p( 4.00)                                                            
Vna: chval, zval:    6.00000   6.00000

Vna:  Cut-off radius for the neutral-atom potential:   5.314825

atom: _________________________________________________________________________

prinput: Basis input ----------------------------------------------------------

PAO.BasisType split     

%block ChemicalSpeciesLabel
    1    1 H                       # Species index, atomic number, species label
    2    7 N                       # Species index, atomic number, species label
    3   14 Si                      # Species index, atomic number, species label
    4    8 O                       # Species index, atomic number, species label
%endblock ChemicalSpeciesLabel

%block PAO.Basis                 # Define Basis set
H                     1                    # Species label, number of l-shells
 n=1   0   2 P   1                   # n, l, Nzeta, Polarization, NzetaPol
   6.518      2.141   
   1.000      1.000   
N                     2                    # Species label, number of l-shells
 n=2   0   2                         # n, l, Nzeta 
   4.730      2.532   
   1.000      1.000   
 n=2   1   2 P   1                   # n, l, Nzeta, Polarization, NzetaPol
   5.924      2.532   
   1.000      1.000   
Si                    2                    # Species label, number of l-shells
 n=3   0   2                         # n, l, Nzeta 
   6.430      3.998   
   1.000      1.000   
 n=3   1   2 P   1                   # n, l, Nzeta, Polarization, NzetaPol
   8.465      4.588   
   1.000      1.000   
O                     2                    # Species label, number of l-shells
 n=2   0   2                         # n, l, Nzeta 
   4.244      2.188   
   1.000      1.000   
 n=2   1   2 P   1                   # n, l, Nzeta, Polarization, NzetaPol
   5.315      2.161   
   1.000      1.000   
%endblock PAO.Basis

prinput: ----------------------------------------------------------------------

Dumping basis to NetCDF file H.ion.nc
Dumping basis to NetCDF file N.ion.nc
Dumping basis to NetCDF file Si.ion.nc
Dumping basis to NetCDF file O.ion.nc
coor:   Atomic-coordinates input format  =     Cartesian coordinates
coor:                                          (in Angstroms)

siesta: Atomic coordinates (Bohr) and species
siesta:      4.87999 -10.91663   0.00000  1        1
siesta:      3.12704  -9.95765   0.00000  2        2
siesta:      0.11930 -11.53056   0.00000  3        3
siesta:      0.22530 -14.35597   0.00000  1        4
siesta:     -2.60195  -9.79371   0.00000  2        5
siesta:     -1.55784  -6.54009   0.00000  3        6
siesta:     -2.21206  -2.39996   0.00000  3        7
siesta:     -5.11537  -0.78899   0.00000  2        8
siesta:     -5.20538   1.19971   0.00000  1        9
siesta:     -6.87421  -1.71959   0.00000  1       10
siesta:      0.41213  -0.44256   0.00000  2       11
siesta:      3.53758  -1.31745   0.00000  3       12
siesta:      5.34415   0.87204   0.00000  1       13
siesta:      5.00428  -4.26138   0.00000  2       14
siesta:      2.63035  -6.52849   0.00000  3       15
siesta:      3.55957  10.71575   0.00000  2       16
siesta:      1.05120  13.00271   0.00000  3       17
siesta:      2.26063  15.57523   0.00000  1       18
siesta:     -2.89029  11.73559   0.00000  3       19
siesta:     -6.72561  13.87120   0.00000  3       20
siesta:     -6.43414  16.06372   1.77692  1       21
siesta:     -8.58876  11.94005   0.96870  1       22
siesta:     -7.51214  14.77114  -2.58265  1       23
siesta:     -2.76463   7.43839   0.00000  3       24
siesta:     -4.72815   5.18384   0.00000  4       25
siesta:      0.36663   6.24035   0.00000  2       26
siesta:      0.33258   4.23262   0.00000  1       27
siesta:      3.43480   7.36865   0.00000  3       28
siesta:      5.69305   5.45167   0.00000  4       29
siesta:      5.44937  11.36867   0.00000  1       30

siesta: Automatic unit cell vectors (Ang):
siesta:   15.828829    0.000000    0.000000
siesta:    0.000000   25.295722    0.000000
siesta:    0.000000    0.000000   10.224979

siesta: System type = molecule  

initatomlists: Number of atoms, orbitals, and projectors:     30   302   403

siesta: ******************** Simulation parameters ****************************
siesta:
siesta: The following are some of the parameters of the simulation.
siesta: A complete list of the parameters used, including default values,
siesta: can be found in file out.fdf
siesta:
redata: Spin configuration                          = spin-orbit
redata: Number of spin components                   = 8
redata: Time-Reversal Symmetry                      = F
redata: Spin spiral                                 = F
############################################################
This spin-orbit implementation uses a local approximation.
From 4.2 and onwards the full non-local approximation is implemented
You are strongly advised to use >=4.2 versions!
############################################################
redata: Long output                                 =   F
redata: Number of Atomic Species                    =        4
redata: Charge density info will appear in .RHO file
redata: Write Mulliken Pop.                         = Atomic and Orbital charges
redata: Matel table size (NRTAB)                    =     1024
redata: Mesh Cutoff                                 =   340.0000 Ry
redata: Net charge of the system                    =     0.0000 |e|
redata: Min. number of SCF Iter                     =        1
redata: Max. number of SCF Iter                     =      200
redata: SCF mix quantity                            = Hamiltonian
redata: Mix DM or H after convergence               =   F
redata: Recompute H after scf cycle                 =   F
redata: Mix DM in first SCF step                    =   T
redata: Write Pulay info on disk                    =   F
redata: New DM Occupancy tolerance                  = 0.000000000001
redata: No kicks to SCF
redata: DM Mixing Weight for Kicks                  =     0.5000
redata: Require Harris convergence for SCF          =   F
redata: Harris energy tolerance for SCF             =     0.000100 eV
redata: Require DM convergence for SCF              =   T
redata: DM tolerance for SCF                        =     0.000008
redata: Require EDM convergence for SCF             =   F
redata: EDM tolerance for SCF                       =     0.001000 eV
redata: Require H convergence for SCF               =   T
redata: Hamiltonian tolerance for SCF               =     0.000001 eV
redata: Require (free) Energy convergence for SCF   =   F
redata: (free) Energy tolerance for SCF             =     0.000100 eV
redata: Using Saved Data (generic)                  =   F
redata: Use continuation files for DM               =   F
redata: Neglect nonoverlap interactions             =   F
redata: Method of Calculation                       = Diagonalization
redata: Electronic Temperature                      =   299.9978 K
redata: Fix the spin of the system                  =   F
redata: Dynamics option                             = Single-point calculation
mix.SCF: Pulay mixing                            = Pulay
mix.SCF:    Variant                              = stable
mix.SCF:    History steps                        = 6
mix.SCF:    Linear mixing weight                 =     0.250000
mix.SCF:    Mixing weight                        =     0.250000
mix.SCF:    SVD condition                        = 0.1000E-07
mix.SCF:    Restart steps                        = 24
mix.SCF:    Restart save steps                   = 3
mix.SCF: Spin-component mixing                   all
redata: Save all siesta data in one NC              =   F
redata: ***********************************************************************

%block SCF.Mixers
  Pulay
%endblock SCF.Mixers

%block SCF.Mixer.Pulay
  # Mixing method
  method pulay
  variant stable

  # Mixing options
  weight 0.2500
  weight.linear 0.2500
  history 6
  restart 24
  restart.save 3
%endblock SCF.Mixer.Pulay

DM_history_depth set to one: no extrapolation allowed by default for geometry relaxation
Size of DM history Fstack: 1
Total number of electrons:    98.000000
Total ionic charge:    98.000000

* ProcessorY, Blocksize:    2  24


* Orbital distribution balance (max,min):    62    48


Time-reversal symmetry not used.

siesta: k-grid: Number of k-points =     1
siesta: k-grid: Cutoff (effective) =     5.112 Ang
siesta: k-grid: Supercell and displacements
siesta: k-grid:    1   0   0      0.000
siesta: k-grid:    0   1   0      0.000
siesta: k-grid:    0   0   1      0.000

diag: Algorithm                                     = ELPA-1stage
diag: Parallel over k                               =   F
diag: Use parallel 2D distribution                  =   T
diag: Parallel block-size                           = 24
diag: Parallel distribution                         =     2 x     3
diag: Used triangular part                          = Lower
diag: Absolute tolerance                            =  0.100E-15
diag: Orthogonalization factor                      =  0.100E-05
diag: Memory factor                                 =  1.0000


ts: **************************************************************
ts: Save H and S matrices                           =    F
ts: Save DM and EDM matrices                        =    F
ts: Only save the overlap matrix S                  =    F
ts: **************************************************************

************************ Begin: TS CHECKS AND WARNINGS ************************
************************ End: TS CHECKS AND WARNINGS **************************


                     ====================================
                        Single-point calculation
                     ====================================

outcoor: Atomic coordinates (Ang):                          
    2.58237765   -5.77683044    0.00000000   1       1  H
    1.65475924   -5.26936198    0.00000000   2       2  N
    0.06312884   -6.10170459    0.00000000   3       3  Si
    0.11922324   -7.59684950    0.00000000   1       4  H
   -1.37689205   -5.18260374    0.00000000   2       5  N
   -0.82437190   -3.46086644    0.00000000   3       6  Si
   -1.17057148   -1.27000210    0.00000000   3       7  Si
   -2.70693368   -0.41751578    0.00000000   2       8  N
   -2.75456966    0.63485862    0.00000000   1       9  H
   -3.63767564   -0.90996786    0.00000000   1      10  H
    0.21809179   -0.23419397    0.00000000   2      11  N
    1.87200410   -0.69716230    0.00000000   3      12  Si
    2.82800113    0.46146477    0.00000000   1      13  H
    2.64815008   -2.25502447    0.00000000   2      14  N
    1.39192138   -3.45472722    0.00000000   3      15  Si
    1.88364307    5.67053057    0.00000000   2      16  N
    0.55627155    6.88073487    0.00000000   3      17  Si
    1.19627282    8.24205311    0.00000000   1      18  H
   -1.52947439    6.21020352    0.00000000   3      19  Si
   -3.55903699    7.34031971    0.00000000   3      20  Si
   -3.40480122    8.50054992    0.94030528   1      21  H
   -4.54497171    6.31839909    0.51261370   1      22  H
   -3.97525195    7.81654556   -1.36667834   1      23  H
   -1.46297897    3.93622690    0.00000000   3      24  Si
   -2.50202770    2.74316740    0.00000000   4      25  O
    0.19401261    3.30225171    0.00000000   2      26  N
    0.17599524    2.23980688    0.00000000   1      27  H
    1.81761568    3.89932192    0.00000000   3      28  Si
    3.01263185    2.88489672    0.00000000   4      29  O
    2.88368044    6.01603767    0.00000000   1      30  H

outcell: Unit cell vectors (Ang):
       15.828829    0.000000    0.000000
        0.000000   25.295722    0.000000
        0.000000    0.000000   10.224979

outcell: Cell vector modules (Ang)   :   15.828829   25.295722   10.224979
outcell: Cell angles (23,13,12) (deg):     90.0000     90.0000     90.0000
outcell: Cell volume (Ang**3)        :   4094.0985
<dSpData1D:S at geom step 0
  <sparsity:sparsity for geom step 0
    nrows_g=302 nrows=62 sparsity=.1355 nnzs=12357, refcount: 8>
  <dData1D:(new from dSpData1D) n=12357, refcount: 1>
refcount: 1>
new_DM -- step:     1
Initializing Density Matrix...
DM filled with atomic data:
<dSpData2D:DM initialized from atoms
  <sparsity:sparsity for geom step 0
    nrows_g=302 nrows=62 sparsity=.1355 nnzs=12357, refcount: 9>
  <dData2D:DM n=12357 m=8, refcount: 1>
refcount: 1>
     spin moment: S , {S} =   56.00000   0.00000   0.00000  56.00000
No. of atoms with KB's overlaping orbs in proc 0. Max # of overlaps:      24     185

Initializing spin-orbit part of the Hamiltonian
  Adding spin-orbit effects for H 
  Adding spin-orbit effects for N 
  Adding spin-orbit effects for Si
  Adding spin-orbit effects for O 


New grid distribution:   1
           1       1:   90    1:   72    1:   20
           2       1:   90    1:   72   21:   40
           3       1:   90    1:   72   41:   60
           4       1:   90   73:  144    1:   20
           5       1:   90   73:  144   21:   40
           6       1:   90   73:  144   41:   60

InitMesh: MESH =   180 x   288 x   120 =     6220800
InitMesh: (bp) =    90 x   144 x    60 =      777600
InitMesh: Mesh cutoff (required, used) =   340.000   357.396 Ry
ExtMesh (bp) on 0 =   194 x   176 x   128 =     4370432
New grid distribution:   2
           1      14:   90    1:   22    1:   60
           2       1:   12   43:  144    1:   60
           3       1:   13    1:   42    1:   60
           4      13:   90   43:  122    1:   60
           5      13:   90  123:  144    1:   60
           6      14:   90   23:   42    1:   60
New grid distribution:   3
           1       1:   18   54:  144    1:   60
           2      23:   90   30:   53    1:   60
           3       1:   22    1:   53    1:   60
           4      19:   90   54:  117    1:   60
           5      23:   90    1:   29    1:   60
           6      19:   90  118:  144    1:   60
Setting up quadratic distribution...
ExtMesh (bp) on 0 =   181 x   126 x   168 =     3831408
PhiOnMesh: Number of (b)points on node 0 =               101640
PhiOnMesh: nlist on node 0 =              1602499

stepf: Fermi-Dirac step function

siesta: Program's energy decomposition (eV):
siesta: Ebs     =      -617.789056
siesta: Eions   =      3553.971015
siesta: Ena     =       377.652029
siesta: Ekin    =      3178.526433
siesta: Enl     =     -2994.053837
siesta: Eso     =        -0.003936
siesta: Edftu   =         0.000000
siesta: DEna    =       130.347772
siesta: DUscf   =        74.896370
siesta: DUext   =         0.000000
siesta: Exc     =     -1170.508170
siesta: eta*DQ  =         0.000000
siesta: Emadel  =         0.000000
siesta: Emeta   =         0.000000
siesta: Emolmec =         0.000000
siesta: Ekinion =         0.000000
siesta: Eharris =     -3886.662640
siesta: Etot    =     -3957.114352
siesta: FreeEng =     -3957.118576

        iscf     Eharris(eV)        E_KS(eV)     FreeEng(eV)     dDmax    Ef(eV) dHmax(eV)
   scf:    1    -3886.662640    -3957.114352    -3957.118576  0.970701 -4.941826 20.959143
     spin moment: S , {S} =    2.03195   0.00003   0.00001   2.03195
timer: Routine,Calls,Time,% = IterSCF        1       5.559  21.12
   scf:    2    -4000.332162    -3990.825015    -3990.825017  0.455728 -4.354464 10.116726
     spin moment: S , {S} =    2.00010  -0.00001   0.00004   2.00010
   scf:    3    -3993.405293    -3995.951837    -3995.968286  0.417563 -4.238352  7.467301
     spin moment: S , {S} =    0.19186   0.00001  -0.00000   0.19186
   scf:    4    -3999.549726    -3997.961103    -3997.961103  0.035033 -3.928878  5.334871
     spin moment: S , {S} =    0.00009   0.00001  -0.00000   0.00009
   scf:    5    -3999.531132    -3998.773790    -3998.773792  0.033082 -3.852158  2.791861
     spin moment: S , {S} =    0.00005   0.00000  -0.00000   0.00005
   scf:    6    -3999.436856    -3999.103616    -3999.103633  0.029374 -3.885618  1.001734
     spin moment: S , {S} =    0.00008   0.00000  -0.00000   0.00008
   scf:    7    -3999.312259    -3999.203565    -3999.203733  0.017308 -3.933760  0.374582
     spin moment: S , {S} =    0.00004   0.00000  -0.00000  -0.00004
   scf:    8    -3999.264984    -3999.233153    -3999.233669  0.009059 -3.958192  0.168034
     spin moment: S , {S} =    0.00129   0.00000   0.00000  -0.00129
   scf:    9    -3999.264470    -3999.247880    -3999.248687  0.006888 -3.967118  0.086292
     spin moment: S , {S} =    0.00223   0.00000   0.00000  -0.00223
   scf:   10    -3999.263224    -3999.255042    -3999.255787  0.005826 -3.967744  0.070654
     spin moment: S , {S} =    0.00128   0.00000   0.00000  -0.00128
   scf:   11    -3999.266799    -3999.260079    -3999.260901  0.007718 -3.967678  0.040811
     spin moment: S , {S} =    0.00071   0.00000   0.00000  -0.00071
   scf:   12    -3999.262303    -3999.261072    -3999.261830  0.003586 -3.966477  0.027299
     spin moment: S , {S} =    0.00016   0.00000   0.00000  -0.00016
   scf:   13    -3999.261912    -3999.261435    -3999.262194  0.002736 -3.966253  0.017375
     spin moment: S , {S} =    0.00006   0.00000   0.00000  -0.00006
   scf:   14    -3999.261686    -3999.261550    -3999.262298  0.001404 -3.965854  0.012417
     spin moment: S , {S} =    0.00003   0.00000   0.00000  -0.00003
   scf:   15    -3999.261730    -3999.261626    -3999.262369  0.001675 -3.965493  0.006257
     spin moment: S , {S} =    0.00003   0.00000   0.00000  -0.00003
   scf:   16    -3999.261666    -3999.261644    -3999.262385  0.000668 -3.965447  0.004033
     spin moment: S , {S} =    0.00002   0.00000   0.00000  -0.00002
   scf:   17    -3999.261659    -3999.261650    -3999.262392  0.000565 -3.965509  0.002078
     spin moment: S , {S} =    0.00001   0.00000   0.00000  -0.00001
   scf:   18    -3999.261653    -3999.261652    -3999.262394  0.000259 -3.965580  0.000989
     spin moment: S , {S} =    0.00001   0.00000   0.00000  -0.00001
   scf:   19    -3999.261652    -3999.261651    -3999.262394  0.000157 -3.965611  0.000617
     spin moment: S , {S} =    0.00000   0.00000   0.00000  -0.00000
   scf:   20    -3999.261651    -3999.261651    -3999.262394  0.000045 -3.965608  0.000456
     spin moment: S , {S} =    0.00000   0.00000   0.00000  -0.00000
   scf:   21    -3999.261651    -3999.261651    -3999.262395  0.000044 -3.965596  0.000290
     spin moment: S , {S} =    0.00000   0.00000   0.00000  -0.00000
   scf:   22    -3999.261651    -3999.261651    -3999.262395  0.000023 -3.965590  0.000197
     spin moment: S , {S} =    0.00000   0.00000   0.00000  -0.00000
   scf:   23    -3999.261652    -3999.261651    -3999.262395  0.000016 -3.965591  0.000108
     spin moment: S , {S} =    0.00000   0.00000   0.00000  -0.00000
   scf:   24    -3999.261651    -3999.261651    -3999.262395  0.000010 -3.965592  0.000057
     spin moment: S , {S} =    0.00000   0.00000   0.00000  -0.00000
mix: Pulay -- resetting history
   scf:   25    -3999.261651    -3999.261651    -3999.262395  0.000005 -3.965593  0.000040
     spin moment: S , {S} =    0.00000  -0.00000   0.00000  -0.00000
   scf:   26    -3999.261651    -3999.261651    -3999.262395  0.000004 -3.965594  0.000022
     spin moment: S , {S} =    0.00000  -0.00000   0.00000  -0.00000
   scf:   27    -3999.261651    -3999.261651    -3999.262395  0.000003 -3.965594  0.000007
     spin moment: S , {S} =    0.00000  -0.00000   0.00000  -0.00000
   scf:   28    -3999.261651    -3999.261651    -3999.262395  0.000000 -3.965593  0.000004
     spin moment: S , {S} =    0.00000   0.00000   0.00000  -0.00000
   scf:   29    -3999.261651    -3999.261651    -3999.262395  0.000001 -3.965593  0.000002
     spin moment: S , {S} =    0.00000   0.00000  -0.00000  -0.00000
   scf:   30    -3999.261651    -3999.261651    -3999.262395  0.000000 -3.965593  0.000001
     spin moment: S , {S} =    0.00000   0.00000   0.00000  -0.00000
   scf:   31    -3999.261651    -3999.261651    -3999.262395  0.000000 -3.965593  0.000001
     spin moment: S , {S} =    0.00000   0.00000   0.00000  -0.00000

SCF Convergence by DM+H criterion
max |DM_out - DM_in|         :     0.0000000908
max |H_out - H_in|      (eV) :     0.0000007376
SCF cycle converged after 31 iterations

Using DM_out to compute the final energy and forces
No. of atoms with KB's overlaping orbs in proc 0. Max # of overlaps:      24     185

siesta: E_KS(eV) =            -3999.2617

siesta: E_KS - E_eggbox =     -3999.2617
     spin moment: S , {S} =    0.00000   0.00000   0.00000  -0.00000

siesta: Atomic forces (eV/Ang):
     1   -0.034560   -0.012030    0.000003
     2   -0.045905   -0.067810   -0.000007
     3    0.013957    0.047070   -0.000010
     4   -0.022871   -0.013177    0.000009
     5   -0.004100   -0.039324   -0.000018
     6    0.100684    0.001710    0.000059
     7   -0.546298    0.197249    0.000040
     8    0.194610   -0.351840   -0.000222
     9    0.067131    0.401168    0.000351
    10    0.108983    0.015417    0.000031
    11    0.020601    0.216372   -0.000083
    12    0.362943    0.100270   -0.000036
    13   -0.142614   -0.134939   -0.000012
    14   -0.085761   -0.094722    0.000038
    15    0.008093    0.042669   -0.000021
    16    0.033883    0.088373    0.007978
    17    0.041567   -0.080762   -0.039791
    18   -0.068783    0.090178    0.008344
    19   -0.074517    0.008278   -0.041559
    20    0.041092   -0.038393    0.023526
    21   -0.164136    0.192915    0.068312
    22   -0.086910    0.070380    0.026048
    23    0.139143    0.036129   -0.035570
    24    0.354454   -0.083885   -0.026386
    25   -0.315206   -4.373780    0.002973
    26   -0.094993    0.339512    0.006711
    27   -0.008521   -0.560724    0.002865
    28   -0.204024   -0.145059   -0.000825
    29   -1.713419    2.764258   -0.001127
    30    0.066924    0.167899    0.008112
----------------------------------------
   Tot   -2.058553   -1.216600    0.009732
----------------------------------------
   Max    4.373780
   Res    0.592226    sqrt( Sum f_i^2 / 3N )
----------------------------------------
   Max    4.373780    constrained

Stress tensor Voigt[x,y,z,yz,xz,xy] (kbar):       -1.71       -0.50       -0.23       -0.05        0.05        0.27
(Free)E + p*V (eV/cell)    -3997.1831
Target enthalpy (eV/cell)    -3999.2624

mulliken: Atomic and Orbital Populations:

Species: H                   

Atom      Orb        Charge      Spin       Svec
----------------------------------------------------------------
    1  1 1s         0.50988   0.00000     -0.000  -0.000  -0.000
    1  2 1s         0.18786   0.00000      0.000   0.000  -0.000
    1  3 2Ppy       0.02812   0.00000     -0.000  -0.000  -0.000
    1  4 2Ppz       0.04016   0.00000     -0.000  -0.000  -0.000
    1  5 2Ppx       0.02515   0.00000     -0.000  -0.000  -0.000
    1     Total     0.79118   0.00000     -0.000  -0.000  -0.000

    4  1 1s         1.02472   0.00000     -0.000  -0.000  -0.000
    4  2 1s         0.09497   0.00000      0.000   0.000   0.000
    4  3 2Ppy       0.03894   0.00000     -0.000   0.000   0.000
    4  4 2Ppz       0.02007   0.00000      0.000   0.000   0.000
    4  5 2Ppx       0.01358   0.00000     -0.000   0.000  -0.000
    4     Total     1.19228   0.00000     -0.000   0.000  -0.000

    9  1 1s         0.45817   0.00000      0.000  -0.000  -0.000
    9  2 1s         0.19506   0.00000     -0.000   0.000  -0.000
    9  3 2Ppy       0.05379   0.00000     -0.000  -0.000   0.000
    9  4 2Ppz       0.04563   0.00000     -0.000   0.000  -0.000
    9  5 2Ppx       0.01274   0.00000      0.000   0.000   0.000
    9     Total     0.76538   0.00000      0.000  -0.000  -0.000

   10  1 1s         0.49227   0.00000      0.000   0.000  -0.000
   10  2 1s         0.19439   0.00000     -0.000  -0.000  -0.000
   10  3 2Ppy       0.00797   0.00000      0.000  -0.000   0.000
   10  4 2Ppz       0.05357   0.00000     -0.000  -0.000  -0.000
   10  5 2Ppx       0.03029   0.00000      0.000  -0.000  -0.000
   10     Total     0.77848   0.00000      0.000  -0.000  -0.000

   13  1 1s         0.95739   0.00000     -0.000  -0.000  -0.000
   13  2 1s         0.10680   0.00000      0.000  -0.000   0.000
   13  3 2Ppy       0.03821   0.00000     -0.000   0.000  -0.000
   13  4 2Ppz       0.01431   0.00000     -0.000   0.000   0.000
   13  5 2Ppx       0.01949   0.00000     -0.000   0.000  -0.000
   13     Total     1.13620   0.00000     -0.000   0.000  -0.000

   18  1 1s         1.04884   0.00000     -0.000  -0.000   0.000
   18  2 1s         0.08389   0.00000      0.000   0.000  -0.000
   18  3 2Ppy       0.02796   0.00000     -0.000  -0.000   0.000
   18  4 2Ppz       0.01892   0.00000     -0.000   0.000  -0.000
   18  5 2Ppx       0.01756   0.00000      0.000  -0.000   0.000
   18     Total     1.19717   0.00000     -0.000  -0.000   0.000

   21  1 1s         1.06626   0.00000     -0.000  -0.000  -0.000
   21  2 1s         0.08260   0.00000      0.000  -0.000   0.000
   21  3 2Ppy       0.02233   0.00000     -0.000  -0.000  -0.000
   21  4 2Ppz       0.02109   0.00000     -0.000   0.000  -0.000
   21  5 2Ppx       0.01156   0.00000      0.000  -0.000  -0.000
   21     Total     1.20385   0.00000     -0.000  -0.000  -0.000

   22  1 1s         1.05297   0.00000     -0.000  -0.000  -0.000
   22  2 1s         0.08337   0.00000      0.000   0.000   0.000
   22  3 2Ppy       0.02004   0.00000      0.000  -0.000   0.000
   22  4 2Ppz       0.01771   0.00000     -0.000  -0.000  -0.000
   22  5 2Ppx       0.01712   0.00000      0.000   0.000  -0.000
   22     Total     1.19121   0.00000     -0.000  -0.000  -0.000

   23  1 1s         1.06443   0.00000      0.000   0.000  -0.000
   23  2 1s         0.08233   0.00000     -0.000  -0.000  -0.000
   23  3 2Ppy       0.01685   0.00000     -0.000  -0.000  -0.000
   23  4 2Ppz       0.02464   0.00000     -0.000   0.000   0.000
   23  5 2Ppx       0.01346   0.00000      0.000  -0.000  -0.000
   23     Total     1.20171   0.00000      0.000   0.000  -0.000

   27  1 1s         0.45163   0.00000     -0.000   0.000  -0.000
   27  2 1s         0.18946   0.00000     -0.000  -0.000  -0.000
   27  3 2Ppy       0.04404   0.00000     -0.000  -0.000   0.000
   27  4 2Ppz       0.02255   0.00000      0.000  -0.000  -0.000
   27  5 2Ppx       0.02876   0.00000      0.000   0.000  -0.000
   27     Total     0.73643   0.00000     -0.000  -0.000  -0.000

   30  1 1s         0.48604   0.00000     -0.000  -0.000  -0.000
   30  2 1s         0.18886   0.00000     -0.000   0.000  -0.000
   30  3 2Ppy       0.02759   0.00000      0.000   0.000  -0.000
   30  4 2Ppz       0.03447   0.00000      0.000  -0.000  -0.000
   30  5 2Ppx       0.02389   0.00000     -0.000   0.000  -0.000
   30     Total     0.76085   0.00000     -0.000   0.000  -0.000

----------------------------------------------------------------
Total              10.95473   0.00000     -0.000  -0.000  -0.000


Species: N                   

Atom      Orb        Charge      Spin       Svec
----------------------------------------------------------------
    2  1 2s         1.38018   0.00000      0.000   0.000  -0.000
    2  2 2s         0.12712   0.00000     -0.000  -0.000   0.000
    2  3 2py        1.06907   0.00000     -0.000   0.000  -0.000
    2  4 2pz        1.49468   0.00000      0.000  -0.000  -0.000
    2  5 2px        1.01634   0.00000      0.000  -0.000  -0.000
    2  6 2py        0.19586   0.00000     -0.000  -0.000   0.000
    2  7 2pz        0.01446   0.00000     -0.000  -0.000   0.000
    2  8 2px        0.21036   0.00000     -0.000   0.000   0.000
    2  9 3Pdxy      0.00681   0.00000     -0.000   0.000   0.000
    2 10 3Pdyz      0.00609   0.00000      0.000   0.000   0.000
    2 11 3Pdz2      0.00155   0.00000      0.000  -0.000   0.000
    2 12 3Pdxz      0.00304   0.00000     -0.000  -0.000  -0.000
    2 13 3Pdx2-y2   0.00298   0.00000      0.000   0.000  -0.000
    2     Total     5.52853   0.00000      0.000  -0.000  -0.000

    5  1 2s         1.55760   0.00000     -0.000  -0.000  -0.000
    5  2 2s         0.08147   0.00000      0.000   0.000  -0.000
    5  3 2py        0.90405   0.00000     -0.000   0.000  -0.000
    5  4 2pz        1.22286   0.00000      0.000  -0.000   0.000
    5  5 2px        1.14308   0.00000     -0.000   0.000  -0.000
    5  6 2py        0.22973   0.00000      0.000  -0.000  -0.000
    5  7 2pz        0.05521   0.00000     -0.000  -0.000  -0.000
    5  8 2px        0.14609   0.00000     -0.000  -0.000  -0.000
    5  9 3Pdxy      0.00854   0.00000     -0.000  -0.000  -0.000
    5 10 3Pdyz      0.00707   0.00000     -0.000  -0.000  -0.000
    5 11 3Pdz2      0.00190   0.00000     -0.000   0.000  -0.000
    5 12 3Pdxz      0.01128   0.00000      0.000   0.000   0.000
    5 13 3Pdx2-y2   0.00919   0.00000      0.000  -0.000   0.000
    5     Total     5.37807   0.00000     -0.000  -0.000  -0.000

    8  1 2s         1.27781   0.00000     -0.000   0.000  -0.000
    8  2 2s         0.17431   0.00000      0.000  -0.000   0.000
    8  3 2py        1.08437   0.00000     -0.000   0.000  -0.000
    8  4 2pz        1.55102   0.00000      0.000   0.000  -0.000
    8  5 2px        0.99202   0.00000     -0.000  -0.000  -0.000
    8  6 2py        0.19420   0.00000      0.000   0.000   0.000
    8  7 2pz        0.02788   0.00000     -0.000  -0.000  -0.000
    8  8 2px        0.23097   0.00000      0.000   0.000   0.000
    8  9 3Pdxy      0.00291   0.00000     -0.000   0.000  -0.000
    8 10 3Pdyz      0.00097   0.00000      0.000   0.000   0.000
    8 11 3Pdz2      0.00254   0.00000      0.000  -0.000   0.000
    8 12 3Pdxz      0.00238   0.00000      0.000   0.000  -0.000
    8 13 3Pdx2-y2   0.00412   0.00000      0.000  -0.000  -0.000
    8     Total     5.54550   0.00000     -0.000   0.000  -0.000

   11  1 2s         1.45819   0.00000     -0.000   0.000  -0.000
   11  2 2s         0.11152   0.00000      0.000  -0.000   0.000
   11  3 2py        1.24762   0.00000      0.000  -0.000  -0.000
   11  4 2pz        1.30969   0.00000      0.000  -0.000  -0.000
   11  5 2px        0.81230   0.00000     -0.000  -0.000  -0.000
   11  6 2py        0.09951   0.00000     -0.000  -0.000   0.000
   11  7 2pz        0.04037   0.00000      0.000   0.000   0.000
   11  8 2px        0.31422   0.00000      0.000   0.000   0.000
   11  9 3Pdxy      0.00713   0.00000      0.000   0.000   0.000
   11 10 3Pdyz      0.00552   0.00000      0.000   0.000   0.000
   11 11 3Pdz2      0.00036   0.00000     -0.000   0.000   0.000
   11 12 3Pdxz      0.00501   0.00000     -0.000  -0.000   0.000
   11 13 3Pdx2-y2   0.00498   0.00000     -0.000   0.000   0.000
   11     Total     5.41641   0.00000      0.000  -0.000  -0.000

   14  1 2s         1.50169   0.00000     -0.000  -0.000  -0.000
   14  2 2s         0.10474   0.00000      0.000   0.000  -0.000
   14  3 2py        0.84582   0.00000      0.000   0.000  -0.000
   14  4 2pz        1.23745   0.00000      0.000  -0.000  -0.000
   14  5 2px        1.16748   0.00000     -0.000  -0.000  -0.000
   14  6 2py        0.27759   0.00000     -0.000  -0.000   0.000
   14  7 2pz        0.05480   0.00000      0.000  -0.000   0.000
   14  8 2px        0.13501   0.00000      0.000  -0.000   0.000
   14  9 3Pdxy      0.00939   0.00000     -0.000   0.000  -0.000
   14 10 3Pdyz      0.00479   0.00000     -0.000  -0.000   0.000
   14 11 3Pdz2      0.00149   0.00000     -0.000   0.000   0.000
   14 12 3Pdxz      0.01067   0.00000     -0.000  -0.000   0.000
   14 13 3Pdx2-y2   0.00809   0.00000      0.000  -0.000   0.000
   14     Total     5.35899   0.00000      0.000  -0.000  -0.000

   16  1 2s         1.36832   0.00000     -0.000   0.000  -0.000
   16  2 2s         0.13127   0.00000      0.000  -0.000   0.000
   16  3 2py        0.99079   0.00000     -0.000  -0.000   0.000
   16  4 2pz        1.54581   0.00000     -0.000  -0.000  -0.000
   16  5 2px        1.07911   0.00000      0.000   0.000   0.000
   16  6 2py        0.24012   0.00000      0.000   0.000  -0.000
   16  7 2pz        0.00356   0.00000      0.000  -0.000  -0.000
   16  8 2px        0.18107   0.00000      0.000  -0.000  -0.000
   16  9 3Pdxy      0.00170   0.00000     -0.000  -0.000   0.000
   16 10 3Pdyz      0.00474   0.00000     -0.000  -0.000  -0.000
   16 11 3Pdz2      0.00100   0.00000     -0.000  -0.000   0.000
   16 12 3Pdxz      0.00235   0.00000      0.000  -0.000  -0.000
   16 13 3Pdx2-y2   0.00605   0.00000     -0.000   0.000  -0.000
   16     Total     5.55590   0.00000     -0.000  -0.000   0.000

   26  1 2s         1.35686   0.00000      0.000  -0.000  -0.000
   26  2 2s         0.13310   0.00000     -0.000   0.000   0.000
   26  3 2py        1.12115   0.00000     -0.000  -0.000  -0.000
   26  4 2pz        1.51836   0.00000      0.000  -0.000   0.000
   26  5 2px        0.92163   0.00000     -0.000  -0.000  -0.000
   26  6 2py        0.17425   0.00000      0.000  -0.000   0.000
   26  7 2pz        0.00567   0.00000     -0.000   0.000  -0.000
   26  8 2px        0.27596   0.00000      0.000  -0.000   0.000
   26  9 3Pdxy      0.00080   0.00000     -0.000   0.000  -0.000
   26 10 3Pdyz      0.00097   0.00000     -0.000   0.000  -0.000
   26 11 3Pdz2     -0.00134   0.00000     -0.000   0.000  -0.000
   26 12 3Pdxz      0.00450   0.00000     -0.000  -0.000  -0.000
   26 13 3Pdx2-y2   0.00234   0.00000     -0.000  -0.000  -0.000
   26     Total     5.51427   0.00000     -0.000  -0.000   0.000

----------------------------------------------------------------
Total              49.25239   0.00000     -0.000  -0.000  -0.000


Species: Si                  

Atom      Orb        Charge      Spin       Svec
----------------------------------------------------------------
    3  1 3s         0.55043   0.00000      0.000   0.000   0.000
    3  2 3s         0.38737   0.00000     -0.000  -0.000  -0.000
    3  3 3py        0.08319   0.00000     -0.000  -0.000   0.000
    3  4 3pz        0.53955   0.00000      0.000   0.000   0.000
    3  5 3px        0.36983   0.00000     -0.000  -0.000   0.000
    3  6 3py        0.49739   0.00000     -0.000   0.000   0.000
    3  7 3pz        0.17514   0.00000     -0.000  -0.000   0.000
    3  8 3px        0.23667   0.00000      0.000   0.000   0.000
    3  9 3Pdxy      0.10874   0.00000     -0.000  -0.000   0.000
    3 10 3Pdyz      0.05245   0.00000      0.000  -0.000   0.000
    3 11 3Pdz2      0.01020   0.00000      0.000   0.000   0.000
    3 12 3Pdxz      0.13336   0.00000     -0.000  -0.000   0.000
    3 13 3Pdx2-y2   0.32465   0.00000      0.000  -0.000   0.000
    3     Total     3.46896   0.00000      0.000   0.000   0.000

    6  1 3s         0.65917   0.00000      0.000  -0.000  -0.000
    6  2 3s         0.37069   0.00000     -0.000   0.000  -0.000
    6  3 3py        0.12548   0.00000     -0.000  -0.000  -0.000
    6  4 3pz        0.69732   0.00000     -0.000   0.000  -0.000
    6  5 3px        0.49037   0.00000     -0.000  -0.000  -0.000
    6  6 3py        0.46935   0.00000      0.000  -0.000   0.000
    6  7 3pz        0.24285   0.00000      0.000   0.000  -0.000
    6  8 3px        0.24591   0.00000      0.000   0.000  -0.000
    6  9 3Pdxy      0.18350   0.00000      0.000  -0.000  -0.000
    6 10 3Pdyz      0.14644   0.00000     -0.000   0.000  -0.000
    6 11 3Pdz2      0.01143   0.00000     -0.000   0.000   0.000
    6 12 3Pdxz      0.03682   0.00000      0.000  -0.000   0.000
    6 13 3Pdx2-y2   0.18699   0.00000     -0.000   0.000   0.000
    6     Total     3.86632   0.00000     -0.000  -0.000  -0.000

    7  1 3s         0.63016   0.00000     -0.000   0.000   0.000
    7  2 3s         0.36783   0.00000      0.000  -0.000   0.000
    7  3 3py        0.37118   0.00000      0.000   0.000  -0.000
    7  4 3pz        0.49565   0.00000      0.000   0.000   0.000
    7  5 3px        0.07829   0.00000     -0.000   0.000   0.000
    7  6 3py        0.30310   0.00000     -0.000  -0.000   0.000
    7  7 3pz        0.20700   0.00000     -0.000  -0.000   0.000
    7  8 3px        0.42390   0.00000      0.000  -0.000   0.000
    7  9 3Pdxy      0.20383   0.00000     -0.000  -0.000   0.000
    7 10 3Pdyz      0.14307   0.00000      0.000  -0.000  -0.000
    7 11 3Pdz2      0.01022   0.00000      0.000   0.000  -0.000
    7 12 3Pdxz      0.15395   0.00000      0.000   0.000   0.000
    7 13 3Pdx2-y2   0.23670   0.00000      0.000   0.000   0.000
    7     Total     3.62487   0.00000      0.000  -0.000   0.000

   12  1 3s         0.54898   0.00000     -0.000   0.000   0.000
   12  2 3s         0.39670   0.00000      0.000   0.000  -0.000
   12  3 3py        0.20569   0.00000     -0.000  -0.000   0.000
   12  4 3pz        0.43284   0.00000     -0.000   0.000   0.000
   12  5 3px        0.30411   0.00000      0.000   0.000   0.000
   12  6 3py        0.41610   0.00000      0.000   0.000   0.000
   12  7 3pz        0.16513   0.00000     -0.000   0.000   0.000
   12  8 3px        0.33874   0.00000      0.000  -0.000   0.000
   12  9 3Pdxy      0.38585   0.00000     -0.000   0.000   0.000
   12 10 3Pdyz      0.08209   0.00000      0.000   0.000  -0.000
   12 11 3Pdz2      0.00989   0.00000     -0.000   0.000   0.000
   12 12 3Pdxz      0.09317   0.00000      0.000   0.000   0.000
   12 13 3Pdx2-y2   0.16647   0.00000     -0.000   0.000   0.000
   12     Total     3.54576   0.00000     -0.000   0.000   0.000

   15  1 3s         0.66264   0.00000      0.000  -0.000   0.000
   15  2 3s         0.36735   0.00000     -0.000   0.000   0.000
   15  3 3py       -0.02481   0.00000      0.000   0.000   0.000
   15  4 3pz        0.51224   0.00000     -0.000   0.000   0.000
   15  5 3px        0.39390   0.00000      0.000   0.000   0.000
   15  6 3py        0.47144   0.00000      0.000  -0.000   0.000
   15  7 3pz        0.19865   0.00000      0.000  -0.000   0.000
   15  8 3px        0.33887   0.00000     -0.000  -0.000   0.000
   15  9 3Pdxy      0.14174   0.00000      0.000  -0.000   0.000
   15 10 3Pdyz      0.12611   0.00000      0.000  -0.000   0.000
   15 11 3Pdz2      0.01419   0.00000     -0.000  -0.000   0.000
   15 12 3Pdxz      0.12581   0.00000     -0.000  -0.000   0.000
   15 13 3Pdx2-y2   0.30513   0.00000      0.000  -0.000   0.000
   15     Total     3.63327   0.00000      0.000  -0.000   0.000

   17  1 3s         0.73075   0.00000      0.000  -0.000  -0.000
   17  2 3s         0.35651   0.00000     -0.000   0.000  -0.000
   17  3 3py        0.09687   0.00000      0.000   0.000  -0.000
   17  4 3pz        0.62422   0.00000      0.000  -0.000  -0.000
   17  5 3px        0.35798   0.00000     -0.000   0.000  -0.000
   17  6 3py        0.45375   0.00000     -0.000  -0.000   0.000
   17  7 3pz        0.15228   0.00000     -0.000   0.000  -0.000
   17  8 3px        0.33347   0.00000      0.000  -0.000  -0.000
   17  9 3Pdxy      0.15077   0.00000      0.000  -0.000  -0.000
   17 10 3Pdyz      0.02344   0.00000     -0.000  -0.000  -0.000
   17 11 3Pdz2      0.00897   0.00000     -0.000   0.000   0.000
   17 12 3Pdxz      0.12880   0.00000      0.000   0.000  -0.000
   17 13 3Pdx2-y2   0.12723   0.00000     -0.000   0.000  -0.000
   17     Total     3.54504   0.00000      0.000  -0.000  -0.000

   19  1 3s         0.86122   0.00000     -0.000   0.000   0.000
   19  2 3s         0.31405   0.00000      0.000  -0.000   0.000
   19  3 3py        0.43012   0.00000      0.000   0.000   0.000
   19  4 3pz        0.65941   0.00000     -0.000   0.000   0.000
   19  5 3px        0.35178   0.00000     -0.000  -0.000   0.000
   19  6 3py        0.32965   0.00000     -0.000  -0.000  -0.000
   19  7 3pz        0.26999   0.00000      0.000   0.000   0.000
   19  8 3px        0.35810   0.00000      0.000   0.000   0.000
   19  9 3Pdxy      0.09330   0.00000     -0.000   0.000   0.000
   19 10 3Pdyz      0.02904   0.00000      0.000   0.000  -0.000
   19 11 3Pdz2      0.01440   0.00000     -0.000   0.000  -0.000
   19 12 3Pdxz      0.05662   0.00000      0.000  -0.000  -0.000
   19 13 3Pdx2-y2   0.13159   0.00000      0.000   0.000   0.000
   19     Total     3.89927   0.00000      0.000   0.000   0.000

   20  1 3s         0.54080   0.00000     -0.000   0.000   0.000
   20  2 3s         0.44389   0.00000      0.000  -0.000   0.000
   20  3 3py        0.31020   0.00000      0.000   0.000   0.000
   20  4 3pz        0.25474   0.00000     -0.000  -0.000   0.000
   20  5 3px        0.45469   0.00000     -0.000  -0.000  -0.000
   20  6 3py        0.38761   0.00000     -0.000  -0.000   0.000
   20  7 3pz        0.42346   0.00000      0.000   0.000   0.000
   20  8 3px        0.27761   0.00000      0.000  -0.000  -0.000
   20  9 3Pdxy      0.07004   0.00000      0.000   0.000  -0.000
   20 10 3Pdyz      0.08420   0.00000     -0.000  -0.000   0.000
   20 11 3Pdz2      0.05099   0.00000     -0.000  -0.000  -0.000
   20 12 3Pdxz      0.07232   0.00000      0.000   0.000   0.000
   20 13 3Pdx2-y2   0.04584   0.00000      0.000  -0.000   0.000
   20     Total     3.41638   0.00000     -0.000  -0.000   0.000

   24  1 3s         0.60141   0.00000     -0.000  -0.000  -0.000
   24  2 3s         0.37269   0.00000      0.000   0.000   0.000
   24  3 3py        0.27327   0.00000     -0.000  -0.000  -0.000
   24  4 3pz        0.40084   0.00000      0.000  -0.000  -0.000
   24  5 3px        0.17729   0.00000      0.000   0.000   0.000
   24  6 3py        0.38874   0.00000      0.000   0.000  -0.000
   24  7 3pz        0.19489   0.00000     -0.000  -0.000  -0.000
   24  8 3px        0.35666   0.00000     -0.000  -0.000  -0.000
   24  9 3Pdxy      0.14191   0.00000      0.000   0.000   0.000
   24 10 3Pdyz      0.14077   0.00000     -0.000  -0.000   0.000
   24 11 3Pdz2      0.01256   0.00000     -0.000  -0.000   0.000
   24 12 3Pdxz      0.12255   0.00000      0.000   0.000  -0.000
   24 13 3Pdx2-y2   0.34127   0.00000      0.000   0.000  -0.000
   24     Total     3.52484   0.00000     -0.000   0.000  -0.000

   28  1 3s         0.43316   0.00000      0.000   0.000  -0.000
   28  2 3s         0.37734   0.00000     -0.000  -0.000  -0.000
   28  3 3py        0.13341   0.00000     -0.000   0.000  -0.000
   28  4 3pz        0.39603   0.00000      0.000  -0.000  -0.000
   28  5 3px        0.17861   0.00000      0.000   0.000  -0.000
   28  6 3py        0.38373   0.00000      0.000  -0.000   0.000
   28  7 3pz        0.20524   0.00000      0.000   0.000  -0.000
   28  8 3px        0.38010   0.00000      0.000  -0.000  -0.000
   28  9 3Pdxy      0.14425   0.00000     -0.000  -0.000  -0.000
   28 10 3Pdyz      0.12328   0.00000     -0.000   0.000  -0.000
   28 11 3Pdz2      0.01377   0.00000      0.000  -0.000  -0.000
   28 12 3Pdxz      0.15732   0.00000     -0.000  -0.000  -0.000
   28 13 3Pdx2-y2   0.35311   0.00000      0.000   0.000  -0.000
   28     Total     3.27936   0.00000      0.000  -0.000  -0.000

----------------------------------------------------------------
Total              85.05647   0.00000      0.000  -0.000  -0.000


Species: O                   

Atom      Orb        Charge      Spin       Svec
----------------------------------------------------------------
   25  1 2s         1.74890   0.00000     -0.000   0.000   0.000
   25  2 2s         0.05980   0.00000      0.000  -0.000   0.000
   25  3 2py        1.45175   0.00000      0.000  -0.000   0.000
   25  4 2pz        1.53580   0.00000      0.000   0.000   0.000
   25  5 2px        1.59325   0.00000     -0.000   0.000   0.000
   25  6 2py        0.04312   0.00000     -0.000   0.000  -0.000
   25  7 2pz       -0.00494   0.00000      0.000  -0.000   0.000
   25  8 2px        0.02627   0.00000     -0.000  -0.000   0.000
   25  9 3Pdxy      0.00654   0.00000     -0.000  -0.000  -0.000
   25 10 3Pdyz      0.00560   0.00000      0.000   0.000  -0.000
   25 11 3Pdz2      0.00117   0.00000     -0.000   0.000  -0.000
   25 12 3Pdxz      0.00417   0.00000     -0.000  -0.000  -0.000
   25 13 3Pdx2-y2   0.00731   0.00000     -0.000   0.000   0.000
   25     Total     6.47875   0.00000      0.000   0.000   0.000

   29  1 2s         1.74738   0.00000     -0.000   0.000   0.000
   29  2 2s         0.06493   0.00000      0.000  -0.000   0.000
   29  3 2py        1.47631   0.00000     -0.000   0.000   0.000
   29  4 2pz        1.53600   0.00000     -0.000  -0.000   0.000
   29  5 2px        1.52348   0.00000      0.000  -0.000   0.000
   29  6 2py        0.04374   0.00000      0.000   0.000   0.000
   29  7 2pz        0.00348   0.00000     -0.000   0.000   0.000
   29  8 2px        0.04082   0.00000     -0.000  -0.000   0.000
   29  9 3Pdxy      0.00794   0.00000     -0.000  -0.000   0.000
   29 10 3Pdyz      0.00463   0.00000      0.000  -0.000  -0.000
   29 11 3Pdz2      0.00141   0.00000     -0.000  -0.000   0.000
   29 12 3Pdxz      0.00622   0.00000      0.000  -0.000  -0.000
   29 13 3Pdx2-y2   0.00844   0.00000     -0.000   0.000  -0.000
   29     Total     6.46478   0.00000     -0.000  -0.000   0.000

----------------------------------------------------------------
Total              98.00000   0.00000      0.000   0.000  -0.000


siesta: Eigenvalues (eV):
ik =     1
  -23.0011  -23.0011  -22.7319  -22.7319  -22.0244  -22.0244  -21.1916  -21.1916  -20.9519  -20.9519
  -20.3928  -20.3928  -19.3629  -19.3629  -19.1826  -19.1826  -18.5984  -18.5984  -15.3681  -15.3681
  -14.4214  -14.4214  -13.6675  -13.6675  -13.5356  -13.5356  -13.3420  -13.3420  -12.8461  -12.8461
  -12.3786  -12.3786  -12.0552  -12.0552  -11.7640  -11.7640  -11.4389  -11.4389  -11.3056  -11.3056
  -10.7893  -10.7893  -10.7631  -10.7631  -10.1156  -10.1156   -9.9036   -9.9036   -9.6160   -9.6160
   -9.4373   -9.4373   -9.2000   -9.2000   -9.0337   -9.0337   -8.8261   -8.8261   -8.7575   -8.7575
   -8.5536   -8.5536   -8.1866   -8.1866   -8.1581   -8.1581   -8.0756   -8.0756   -7.9849   -7.9849
   -7.8255   -7.8255   -7.4203   -7.4203   -7.2866   -7.2866   -7.2584   -7.2584   -6.8685   -6.8685
   -6.7453   -6.7453   -6.6197   -6.6197   -6.5535   -6.5535   -6.2653   -6.2653   -6.1545   -6.1545
   -6.0113   -6.0113   -5.6521   -5.6521   -5.5264   -5.5264   -4.1470   -4.1470   -3.7842   -3.7842
   -2.9216   -2.9216   -2.5579   -2.5578   -2.2480   -2.2480   -2.1543   -2.1543   -2.0662   -2.0662
   -1.9452   -1.9452   -1.6626   -1.6626   -1.5754   -1.5754   -1.4912   -1.4912   -1.2465   -1.2465
   -1.1171   -1.1171   -0.5069   -0.5069   -0.4370   -0.4370   -0.2501   -0.2501   -0.1531   -0.1531
   -0.1311   -0.1311   -0.0403   -0.0403    0.2071    0.2071    0.3444    0.3444    0.6502    0.6502
    0.7226    0.7226    0.7981    0.7981    1.0203    1.0203    1.3176    1.3176    1.3807    1.3807
    1.5394    1.5394    1.8134    1.8134    2.0340    2.0340    2.1960    2.1960    2.3711    2.3711
    2.5419    2.5419    2.7241    2.7241    2.9018    2.9018    2.9492    2.9492    3.0271    3.0271
    3.0955    3.0955    3.1211    3.1211    3.2153    3.2153    3.6729    3.6729    3.8827    3.8827
    4.0482    4.0482    4.2323    4.2323    4.3190    4.3190    4.3961    4.3961    4.4861    4.4861
    4.5172    4.5172    4.6755    4.6755    4.7754    4.7754    5.0432    5.0432    5.1682    5.1682
    5.3046    5.3046    5.5120    5.5120    5.5678    5.5678    5.9027    5.9027    5.9577    5.9577
    6.1286    6.1286    6.2090    6.2090    6.2231    6.2231    6.4774    6.4774    6.6547    6.6547
    6.8224    6.8224    6.8572    6.8572    6.8787    6.8787    7.1619    7.1619    7.4642    7.4642
    7.5215    7.5215    7.6251    7.6251    7.7358    7.7358    7.9383    7.9383    8.1026    8.1026
    8.3492    8.3492    8.4190    8.4190    8.4865    8.4865    8.6426    8.6426    8.7304    8.7304
    8.9634    8.9634    9.1853    9.1853    9.2108    9.2108    9.5036    9.5036    9.6953    9.6953
    9.8129    9.8129    9.9105    9.9105   10.0296   10.0296   10.1000   10.1000   10.1154   10.1154
   10.4584   10.4584   10.7355   10.7355   10.8479   10.8479   11.1806   11.1806   11.2538   11.2538
   11.5749   11.5749   11.7041   11.7041   11.8048   11.8048   11.9430   11.9430   11.9537   11.9537
   12.2757   12.2757   12.5942   12.5942   12.6902   12.6902   12.8568   12.8568   12.8767   12.8767
   13.1112   13.1112   13.3291   13.3291   13.4714   13.4714   13.7204   13.7204   13.8681   13.8681
   14.0689   14.0689   14.1698   14.1698   14.7017   14.7017   14.8403   14.8403   15.0790   15.0790
   15.4120   15.4120   15.6141   15.6141   16.0381   16.0381   16.2482   16.2482   16.4591   16.4591
   16.7445   16.7445   17.0194   17.0194   17.1446   17.1446   17.5179   17.5179   17.8614   17.8614
   18.1260   18.1260   18.1865   18.1865   18.7178   18.7178   18.7233   18.7233   19.0882   19.0882
   19.1595   19.1595   19.8023   19.8023   19.9985   19.9985   20.3781   20.3781   20.9534   20.9534
   21.0816   21.0816   21.4543   21.4543   21.9683   21.9683   22.4497   22.4497   22.6127   22.6127
   22.9967   22.9967   23.1977   23.1977   23.3097   23.3097   23.4361   23.4361   23.8174   23.8174
   24.8407   24.8407   25.2325   25.2325   25.3338   25.3338   25.7455   25.7455   26.2866   26.2866
   26.5872   26.5872   26.9676   26.9676   27.4340   27.4340   28.1374   28.1374   28.3216   28.3216
   28.7120   28.7120   29.1300   29.1300   30.0803   30.0803   30.8613   30.8613   30.9125   30.9125
   31.0956   31.0956   31.3603   31.3603   31.5346   31.5346   31.8759   31.8759   32.2378   32.2378
   32.5368   32.5368   33.5086   33.5086   33.8145   33.8145   33.8907   33.8907   34.7954   34.7954
   34.9015   34.9015   35.1462   35.1462   35.2230   35.2230   36.1478   36.1478   36.2716   36.2716
   36.7583   36.7583   37.3140   37.3140   38.1183   38.1183   38.4757   38.4757   38.7962   38.7962
   39.3683   39.3683   39.5043   39.5043   40.0208   40.0208   40.8138   40.8138   41.0774   41.0774
   41.6413   41.6413   41.6941   41.6941   41.9328   41.9328   42.3478   42.3478   43.0581   43.0581
   43.3270   43.3270   43.5510   43.5510   44.1516   44.1516   44.4884   44.4884   44.8252   44.8252
   45.0706   45.0706   45.4564   45.4564   45.9249   45.9249   46.2476   46.2476   46.7626   46.7626
   46.9157   46.9157   47.2243   47.2243   47.6790   47.6790   48.0392   48.0392   48.4507   48.4507
   49.1040   49.1040   49.4375   49.4375   49.5447   49.5447   49.6833   49.6833   50.3601   50.3601
   50.6712   50.6712   50.9166   50.9166   51.3938   51.3938   52.4086   52.4086   52.7783   52.7783
   53.8473   53.8473   54.2771   54.2771   55.1301   55.1301   55.8314   55.8314   55.8616   55.8616
   57.1736   57.1736   57.3494   57.3494   57.7052   57.7052   58.1716   58.1716   59.0901   59.0901
   59.7079   59.7079   59.9831   59.9831   61.0661   61.0661   61.5423   61.5423   61.9551   61.9551
   62.7927   62.7927   63.0056   63.0056   63.4983   63.4983   65.7767   65.7767   65.8510   65.8510
   66.5254   66.5254   67.5268   67.5268   67.9237   67.9237   68.1003   68.1003   70.2143   70.2143
   70.7020   70.7020   71.6962   71.6962   76.1197   76.1197   84.8441   84.8441   92.5323   92.5323
   93.2772   93.2772   94.6473   94.6473   96.5699   96.5699   99.5836   99.5836  100.8041  100.8041
  103.0432  103.0432  103.3751  103.3751  116.0022  116.0022  122.7168  122.7168  124.1320  124.1320
  140.3019  140.3019  145.5954  145.5954
siesta: Fermi energy =      -3.965593 eV

siesta: Program's energy decomposition (eV):
siesta: Ebs     =     -1114.591837
siesta: Eions   =      3553.971015
siesta: Ena     =       377.652029
siesta: Ekin    =      2752.418269
siesta: Enl     =     -2533.174835
siesta: Eso     =        -0.004733
siesta: Edftu   =         0.000000
siesta: DEna    =        37.426869
siesta: DUscf   =        13.918969
siesta: DUext   =         0.000000
siesta: Exc     =     -1093.527205
siesta: eta*DQ  =         0.000000
siesta: Emadel  =         0.000000
siesta: Emeta   =         0.000000
siesta: Emolmec =         0.000000
siesta: Ekinion =         0.000000
siesta: Eharris =     -3999.261651
siesta: Etot    =     -3999.261651
siesta: FreeEng =     -3999.262395

siesta: Final energy (eV):
siesta:  Band Struct. =   -1114.591837
siesta:       Kinetic =    2752.418269
siesta:       Hartree =    7827.078084
siesta:       Edftu   =       0.000000
siesta:       Eso     =      -0.004733
siesta:    Ext. field =       0.000000
siesta:   Exch.-corr. =   -1093.527205
siesta:  Ion-electron =  -18101.903223
siesta:       Ion-ion =    4616.677156
siesta:       Ekinion =       0.000000
siesta:         Total =   -3999.261651
siesta:         Fermi =      -3.965593

siesta: Atomic forces (eV/Ang):
siesta:      1   -0.034560   -0.012030    0.000003
siesta:      2   -0.045905   -0.067810   -0.000007
siesta:      3    0.013957    0.047070   -0.000010
siesta:      4   -0.022871   -0.013177    0.000009
siesta:      5   -0.004100   -0.039324   -0.000018
siesta:      6    0.100684    0.001710    0.000059
siesta:      7   -0.546298    0.197249    0.000040
siesta:      8    0.194610   -0.351840   -0.000222
siesta:      9    0.067131    0.401168    0.000351
siesta:     10    0.108983    0.015417    0.000031
siesta:     11    0.020601    0.216372   -0.000083
siesta:     12    0.362943    0.100270   -0.000036
siesta:     13   -0.142614   -0.134939   -0.000012
siesta:     14   -0.085761   -0.094722    0.000038
siesta:     15    0.008093    0.042669   -0.000021
siesta:     16    0.033883    0.088373    0.007978
siesta:     17    0.041567   -0.080762   -0.039791
siesta:     18   -0.068783    0.090178    0.008344
siesta:     19   -0.074517    0.008278   -0.041559
siesta:     20    0.041092   -0.038393    0.023526
siesta:     21   -0.164136    0.192915    0.068312
siesta:     22   -0.086910    0.070380    0.026048
siesta:     23    0.139143    0.036129   -0.035570
siesta:     24    0.354454   -0.083885   -0.026386
siesta:     25   -0.315206   -4.373780    0.002973
siesta:     26   -0.094993    0.339512    0.006711
siesta:     27   -0.008521   -0.560724    0.002865
siesta:     28   -0.204024   -0.145059   -0.000825
siesta:     29   -1.713419    2.764258   -0.001127
siesta:     30    0.066924    0.167899    0.008112
siesta: ----------------------------------------
siesta:    Tot   -2.058553   -1.216600    0.009732

siesta: Stress tensor (static) (eV/Ang**3):
siesta:    -0.001066    0.000167    0.000033
siesta:     0.000167   -0.000315   -0.000029
siesta:     0.000033   -0.000029   -0.000142

siesta: Cell volume =       4094.098523 Ang**3

siesta: Pressure (static):
siesta:                Solid            Molecule  Units
siesta:           0.00000553          0.00000990  Ry/Bohr**3
siesta:           0.00050788          0.00090937  eV/Ang**3
siesta:           0.81372159          1.45698080  kBar
(Free)E+ p_basis*V_orbitals  =       -3978.134310
(Free)Eharris+ p_basis*V_orbitals  =       -3978.134310
     spin moment: S , {S} =    0.00000   0.00000   0.00000  -0.00000

siesta: Electric dipole (a.u.)  =   -0.199406    2.846383   -0.012899
siesta: Electric dipole (Debye) =   -0.506839    7.234789   -0.032786

cite: Please see "AT.bib" for an exhaustive BiBTeX file.
cite: Please clearly indicate Siesta version in published work: v4.1.5-1-g384057250
cite: This calculation has made use of the following articles
cite: which are encouraged to be cited in a published work.
        Primary SIESTA paper
          DOI: www.doi.org/10.1088/0953-8984/14/11/302
        Spin-orbit coupling (on-site approximation)
          DOI: www.doi.org/10.1088/0953-8984/19/19/489001


WARNING: alloc-realloc-dealloc name mismatch
         Name: atomlist isa
         Size:              -120. Bytes
         Node:     0
         Subsequent mismatches will not be reported
>> End of run:  22-MAY-2023   9:57:52
Job completed
