Siesta Version  : v4.1.5-1-g384057250
Architecture    : gcc
Compiler version: GNU Fortran (Ubuntu 11.4.0-1ubuntu1~22.04) 11.4.0
Compiler flags  : mpifort -O2 -fPIC -ftree-vectorize -fallow-argument-mismatch
PP flags        : -DFC_HAVE_ABORT -DMPI -DSIESTA__FLOOK -DSIESTA__METIS -DSIESTA__MUMPS -DCDF -DNCDF -DNCDF_4 -DNCDF_PARALLEL -DSIESTA__MRRR -DSIESTA__ELPA
Libraries       : libncdf.a libfdict.a  -lflookall -ldl -lnetcdff -lnetcdf -lhdf5_hl -lhdf5 -lhdf5_fortran -lz -lscalapack-openmpi -lopenblas -lmetis -lzmumps -lcmumps -ldmumps -lmumps_common -lpord -lsmumps -lesmumps -lscotch -lscotcherr -fopenmp -lelpa
PARALLEL version
NetCDF support
NetCDF-4 support
NetCDF-4 MPI-IO support
METIS ordering support
Lua support

* Running on 8 nodes in parallel
>> Start of run:   1-FEB-2024  21:47:59

                           ***********************       
                           *  WELCOME TO SIESTA  *       
                           ***********************       

reinit: Reading from standard input
reinit: Dumped input in INPUT_TMP.49974
************************** Dump of input data file ****************************
# mpirun -np 4 siesta-4.1.5 < GC.fdf > GC.out &
SystemLabel      GC
NumberOfAtoms    29
NumberOfSpecies  4
%block ChemicalSpeciesLabel
    1    1  H
    2    7  N
    3   14  Si
    4    8  O
%endblock ChemicalSpeciesLabel
############################################
# This overrides Defaults.fdf configuration
############################################
MD.TypeOfRun                Verlet # CG, Verlet
MD.Steps                    0
MaxSCFIterations            200
SCF.MustConverge            F
AtomicCoordinatesFormat NotScaledCartesianAng
%block AtomicCoordinatesAndAtomicSpecies
    0.5647227753138508 4.296514608232298 0.0  1  1  H
    -0.14176395468614916 3.506478428232298 0.0  2  2  N
    -1.8720508646861491 3.947842338232298 0.0  3  3  Si
    -2.0278305446861493 5.437834598232298 0.0  1  4  H
    -3.3953724846861495 2.388934818232298 0.0  3  5  Si
    -4.87856011468615 2.631765178232298 0.0  1  6  H
    -2.196981624686149 0.47565865823229764 0.0  3  7  Si
    -2.9630070846861494 -1.0570580817677024 0.0  2  8  N
    -2.372760534686149 -2.0142711117677026 0.0  1  9  H
    -4.014629404686149 -1.1375183117677024 0.0  1  10  H
    -0.4807815646861492 0.5308329682322976 0.0  2  11  N
    0.5942410553138509 1.8611718082322977 0.0  3  12  Si
    2.2029143753138505 1.8423615482322977 0.0  4  13  O
    5.6164483 -7.44953905 0.0  1  14  H
    4.58206954 -7.2320376 0.0  2  15  N
    3.29666389 -8.492636 0.0  3  16  Si
    3.80117524 -9.90371886 -0.0  1  17  H
    1.65934232 -8.01362137 0.0  2  18  N
    1.68097912 -6.20463398 -0.0  3  19  Si
    0.54543521 -4.28636135 0.0  3  20  Si
    -1.03431493 -3.94450034 0.0  4  21  O
    1.73226934 -2.87719605 0.0  2  22  N
    1.20957366 -1.92961761 -0.0  1  23  H
    3.50853448 -2.77677601 0.0  3  24  Si
    4.13684451 -1.17938608 0.0  2  25  N
    3.54296161 -0.26248101 0.0  1  26  H
    5.18364407 -1.05231197 -0.0  1  27  H
    4.63288658 -4.07521596 -0.0  2  28  N
    3.79410501 -5.58634043 0.0  3  29  Si
%endblock AtomicCoordinatesAndAtomicSpecies
#############
# Unit Cell
#############
LatticeConstant 1.0 Ang
%block LatticeVectors
    30.00000    0.000000    0.000000
    0.000000    45.00000    0.000000
    0.000000    0.000000    10.00000
%endblock LatticeVectors
%include ../../../../Defaults.fdf
************************** End of input data file *****************************

reinit: -----------------------------------------------------------------------
reinit: System Name: 
reinit: -----------------------------------------------------------------------
reinit: System Label: GC
reinit: -----------------------------------------------------------------------

initatom: Reading input for the pseudopotentials and atomic orbitals ----------
Species number:   1 Atomic number:    1 Label: H
Species number:   2 Atomic number:    7 Label: N
Species number:   3 Atomic number:   14 Label: Si
Species number:   4 Atomic number:    8 Label: O

Ground state valence configuration:   1s01
Reading pseudopotential information in formatted form from H.psf

Pseudopotential generated from a relativistic atomic calculation

Valence configuration for pseudopotential generation:
1s( 1.00) rc: 0.01
2p( 0.00) rc: 0.60
3d( 0.00) rc: 1.99
4f( 0.00) rc: 2.49
Ground state valence configuration:   2s02  2p03
Reading pseudopotential information in formatted form from N.psf

Pseudopotential generated from a relativistic atomic calculation

Valence configuration for pseudopotential generation:
2s( 2.00) rc: 0.94
2p( 3.00) rc: 0.59
3d( 0.00) rc: 3.46
4f( 0.00) rc: 2.47
Ground state valence configuration:   3s02  3p02
Reading pseudopotential information in formatted form from Si.psf

Pseudopotential generated from a relativistic atomic calculation

Valence configuration for pseudopotential generation:
3s( 2.00) rc: 1.67
3p( 2.00) rc: 2.04
3d( 0.00) rc: 2.89
4f( 0.00) rc: 2.49
Ground state valence configuration:   2s02  2p04
Reading pseudopotential information in formatted form from O.psf

Pseudopotential generated from a relativistic atomic calculation

Valence configuration for pseudopotential generation:
2s( 2.00) rc: 0.45
2p( 4.00) rc: 0.92
3d( 0.00) rc: 2.24
4f( 0.00) rc: 0.25
For H, standard SIESTA heuristics set lmxkb to 2
 (one more than the basis l, including polarization orbitals).
Use PS.lmax or PS.KBprojectors blocks to override.
For N, standard SIESTA heuristics set lmxkb to 3
 (one more than the basis l, including polarization orbitals).
Use PS.lmax or PS.KBprojectors blocks to override.
For Si, standard SIESTA heuristics set lmxkb to 3
 (one more than the basis l, including polarization orbitals).
Use PS.lmax or PS.KBprojectors blocks to override.
For O, standard SIESTA heuristics set lmxkb to 3
 (one more than the basis l, including polarization orbitals).
Use PS.lmax or PS.KBprojectors blocks to override.

<basis_specs>
===============================================================================
H                    Z=   1    Mass=  1.0100        Charge= 0.17977+309
Lmxo=0 Lmxkb= 2    BasisType=split      Semic=F
L=0  Nsemic=0  Cnfigmx=1
          i=1  nzeta=2  polorb=1  (1s)
            splnorm:   0.62000    
               vcte:    0.0000    
               rinn:    0.0000    
               qcoe:    0.0000    
               qyuk:    0.0000    
               qwid:   0.10000E-01
                rcs:    0.0000      0.0000    
            lambdas:    1.0000      1.0000    
-------------------------------------------------------------------------------
L=0  Nkbl=1  erefs: 0.17977+309
L=1  Nkbl=1  erefs: 0.17977+309
L=2  Nkbl=1  erefs: 0.17977+309
===============================================================================
</basis_specs>

atom: Called for H                     (Z =   1)

read_vps: Pseudopotential generation method:
read_vps: ATM4.2.7  Troullier-Martins                       
Valence charge for ps generation:    1.00000

xc_check: Exchange-correlation functional:
xc_check: GGA Perdew, Burke & Ernzerhof 1996
V l=0 = -2*Zval/r beyond r=  0.0098
V l=1 = -2*Zval/r beyond r=  0.5817
V l=2 = -2*Zval/r beyond r=  1.9372
All V_l potentials equal beyond r=  1.9372
This should be close to max(r_c) in ps generation
All pots = -2*Zval/r beyond r=  1.9372

VLOCAL1: 99.0% of the norm of Vloc inside     11.567 Ry
VLOCAL1: 99.9% of the norm of Vloc inside     26.362 Ry
atom: Maximum radius for 4*pi*r*r*local-pseudopot. charge    2.25106
atom: Maximum radius for r*vlocal+2*Zval:    1.91306
GHOST: No ghost state for L =  0
GHOST: No ghost state for L =  1
GHOST: No ghost state for L =  2

KBgen: Kleinman-Bylander projectors: 
   l= 0   rc=  2.036604   el= -0.477180   Ekb= -6.081590   kbcos= -0.277285
   l= 1   rc=  2.195416   el=  0.001076   Ekb= -0.926943   kbcos= -0.034643
   l= 2   rc=  2.251056   el=  0.002010   Ekb= -0.130941   kbcos= -0.009788

KBgen: Total number of Kleinman-Bylander projectors:    9
atom: -------------------------------------------------------------------------

atom: SANKEY-TYPE ORBITALS:
atom: Selected multiple-zeta basis: split     

SPLIT: Orbitals with angular momentum L= 0

SPLIT: Basis orbitals for state 1s

SPLIT: PAO cut-off radius determined from an
SPLIT: energy shift=  0.002000 Ry

   izeta = 1
                 lambda =    1.000000
                     rc =    6.518340
                 energy =   -0.475305
                kinetic =    0.912139
    potential(screened) =   -1.387444
       potential(ionic) =   -1.907295

   izeta = 2
                 rmatch =    2.141150
              splitnorm =    0.620000
                 energy =    0.566467
                kinetic =    3.772856
    potential(screened) =   -3.206389
       potential(ionic) =   -3.759093

POLgen: Perturbative polarization orbital with L=  1

POLgen: Polarization orbital for state 1s

   izeta = 1
                     rc =    6.518340
                 energy =    0.533861
                kinetic =    1.121086
    potential(screened) =   -0.587225
       potential(ionic) =   -1.053027
atom: Total number of Sankey-type orbitals:  5

atm_pop: Valence configuration (for local Pseudopot. screening):
 1s( 1.00)                                                            
Vna: chval, zval:    1.00000   1.00000

Vna:  Cut-off radius for the neutral-atom potential:   6.518340

atom: _________________________________________________________________________

<basis_specs>
===============================================================================
N                    Z=   7    Mass=  14.010        Charge= 0.17977+309
Lmxo=1 Lmxkb= 3    BasisType=split      Semic=F
L=0  Nsemic=0  Cnfigmx=2
          i=1  nzeta=2  polorb=0  (2s)
            splnorm:   0.28000    
               vcte:    0.0000    
               rinn:    0.0000    
               qcoe:    0.0000    
               qyuk:    0.0000    
               qwid:   0.10000E-01
                rcs:    0.0000      0.0000    
            lambdas:    1.0000      1.0000    
L=1  Nsemic=0  Cnfigmx=2
          i=1  nzeta=2  polorb=1  (2p)
            splnorm:   0.28000    
               vcte:    0.0000    
               rinn:    0.0000    
               qcoe:    0.0000    
               qyuk:    0.0000    
               qwid:   0.10000E-01
                rcs:    0.0000      0.0000    
            lambdas:    1.0000      1.0000    
-------------------------------------------------------------------------------
L=0  Nkbl=1  erefs: 0.17977+309
L=1  Nkbl=1  erefs: 0.17977+309
L=2  Nkbl=1  erefs: 0.17977+309
L=3  Nkbl=1  erefs: 0.17977+309
===============================================================================
</basis_specs>

atom: Called for N                     (Z =   7)

read_vps: Pseudopotential generation method:
read_vps: ATM4.2.7  Troullier-Martins                       
Valence charge for ps generation:    5.00000

xc_check: Exchange-correlation functional:
xc_check: GGA Perdew, Burke & Ernzerhof 1996
V l=0 = -2*Zval/r beyond r=  1.2889
V l=1 = -2*Zval/r beyond r=  1.2889
V l=2 = -2*Zval/r beyond r=  3.4178
V l=3 = -2*Zval/r beyond r=  2.4084
All V_l potentials equal beyond r=  3.3753
This should be close to max(r_c) in ps generation
All pots = -2*Zval/r beyond r=  3.4178

VLOCAL1: 99.0% of the norm of Vloc inside      3.810 Ry
VLOCAL1: 99.9% of the norm of Vloc inside      8.683 Ry
atom: Maximum radius for 4*pi*r*r*local-pseudopot. charge    4.02088
atom: Maximum radius for r*vlocal+2*Zval:    3.54838
GHOST: No ghost state for L =  0
GHOST: No ghost state for L =  1
GHOST: No ghost state for L =  2
GHOST: No ghost state for L =  3

KBgen: Kleinman-Bylander projectors: 
   l= 0   rc=  3.417763   el= -1.365098   Ekb= -4.433130   kbcos= -0.707855
   l= 1   rc=  3.375302   el= -0.521201   Ekb=-13.264039   kbcos= -0.535594
   l= 2   rc=  3.872880   el=  0.001991   Ekb= -0.641094   kbcos= -0.062456
   l= 3   rc=  3.970931   el=  0.003093   Ekb= -0.474517   kbcos= -0.018236

KBgen: Total number of Kleinman-Bylander projectors:   16
atom: -------------------------------------------------------------------------

atom: SANKEY-TYPE ORBITALS:
atom: Selected multiple-zeta basis: split     

SPLIT: Orbitals with angular momentum L= 0

SPLIT: Basis orbitals for state 2s

SPLIT: PAO cut-off radius determined from an
SPLIT: energy shift=  0.002000 Ry

   izeta = 1
                 lambda =    1.000000
                     rc =    4.730425
                 energy =   -1.363399
                kinetic =    1.245246
    potential(screened) =   -2.608645
       potential(ionic) =   -8.121105

   izeta = 2
                 rmatch =    2.531849
              splitnorm =    0.280000
                 energy =   -0.959908
                kinetic =    2.409435
    potential(screened) =   -3.369343
       potential(ionic) =   -9.427975

SPLIT: Orbitals with angular momentum L= 1

SPLIT: Basis orbitals for state 2p

SPLIT: PAO cut-off radius determined from an
SPLIT: energy shift=  0.002000 Ry

   izeta = 1
                 lambda =    1.000000
                     rc =    5.924108
                 energy =   -0.519262
                kinetic =    3.672940
    potential(screened) =   -4.192202
       potential(ionic) =   -9.518354

   izeta = 2
                 rmatch =    2.531849
              splitnorm =    0.280000
                 energy =   -0.104258
                kinetic =    6.807538
    potential(screened) =   -6.911796
       potential(ionic) =  -13.149920

POLgen: Perturbative polarization orbital with L=  2

POLgen: Polarization orbital for state 2p

   izeta = 1
                     rc =    5.924108
                 energy =    1.427508
                kinetic =    2.872379
    potential(screened) =   -1.444871
       potential(ionic) =   -5.563644
atom: Total number of Sankey-type orbitals: 13

atm_pop: Valence configuration (for local Pseudopot. screening):
 2s( 2.00)                                                            
 2p( 3.00)                                                            
Vna: chval, zval:    5.00000   5.00000

Vna:  Cut-off radius for the neutral-atom potential:   5.924108

atom: _________________________________________________________________________

<basis_specs>
===============================================================================
Si                   Z=  14    Mass=  28.090        Charge= 0.17977+309
Lmxo=1 Lmxkb= 3    BasisType=split      Semic=F
L=0  Nsemic=0  Cnfigmx=3
          i=1  nzeta=2  polorb=0  (3s)
            splnorm:   0.28000    
               vcte:    0.0000    
               rinn:    0.0000    
               qcoe:    0.0000    
               qyuk:    0.0000    
               qwid:   0.10000E-01
                rcs:    0.0000      0.0000    
            lambdas:    1.0000      1.0000    
L=1  Nsemic=0  Cnfigmx=3
          i=1  nzeta=2  polorb=1  (3p)
            splnorm:   0.28000    
               vcte:    0.0000    
               rinn:    0.0000    
               qcoe:    0.0000    
               qyuk:    0.0000    
               qwid:   0.10000E-01
                rcs:    0.0000      0.0000    
            lambdas:    1.0000      1.0000    
-------------------------------------------------------------------------------
L=0  Nkbl=1  erefs: 0.17977+309
L=1  Nkbl=1  erefs: 0.17977+309
L=2  Nkbl=1  erefs: 0.17977+309
L=3  Nkbl=1  erefs: 0.17977+309
===============================================================================
</basis_specs>

atom: Called for Si                    (Z =  14)

read_vps: Pseudopotential generation method:
read_vps: ATM4.2.7  Troullier-Martins                       
Valence charge for ps generation:    4.00000

xc_check: Exchange-correlation functional:
xc_check: GGA Perdew, Burke & Ernzerhof 1996
V l=0 = -2*Zval/r beyond r=  2.7826
V l=1 = -2*Zval/r beyond r=  2.7826
V l=2 = -2*Zval/r beyond r=  2.9253
V l=3 = -2*Zval/r beyond r=  2.7826
All V_l potentials equal beyond r=  2.8530
This should be close to max(r_c) in ps generation
All pots = -2*Zval/r beyond r=  2.9253

VLOCAL1: 99.0% of the norm of Vloc inside      5.333 Ry
VLOCAL1: 99.9% of the norm of Vloc inside     12.154 Ry
atom: Maximum radius for 4*pi*r*r*local-pseudopot. charge    3.39869
atom: Maximum radius for r*vlocal+2*Zval:    2.96205
GHOST: No ghost state for L =  0
GHOST: No ghost state for L =  1
GHOST: No ghost state for L =  2
GHOST: No ghost state for L =  3

KBgen: Kleinman-Bylander projectors: 
   l= 0   rc=  3.075247   el= -0.794092   Ekb=  5.879390   kbcos=  0.167461
   l= 1   rc=  3.153101   el= -0.300068   Ekb=  2.642817   kbcos=  0.058301
   l= 2   rc=  3.273594   el=  0.001958   Ekb= -1.185135   kbcos= -0.104411
   l= 3   rc=  3.232927   el=  0.003046   Ekb= -0.497174   kbcos= -0.015889

KBgen: Total number of Kleinman-Bylander projectors:   16
atom: -------------------------------------------------------------------------

atom: SANKEY-TYPE ORBITALS:
atom: Selected multiple-zeta basis: split     

SPLIT: Orbitals with angular momentum L= 0

SPLIT: Basis orbitals for state 3s

SPLIT: PAO cut-off radius determined from an
SPLIT: energy shift=  0.002000 Ry

   izeta = 1
                 lambda =    1.000000
                     rc =    6.429618
                 energy =   -0.792283
                kinetic =    0.525293
    potential(screened) =   -1.317576
       potential(ionic) =   -3.744923

   izeta = 2
                 rmatch =    3.998416
              splitnorm =    0.280000
                 energy =   -0.583081
                kinetic =    1.069570
    potential(screened) =   -1.652651
       potential(ionic) =   -4.235185

SPLIT: Orbitals with angular momentum L= 1

SPLIT: Basis orbitals for state 3p

SPLIT: PAO cut-off radius determined from an
SPLIT: energy shift=  0.002000 Ry

   izeta = 1
                 lambda =    1.000000
                     rc =    8.464845
                 energy =   -0.298236
                kinetic =    0.785360
    potential(screened) =   -1.083596
       potential(ionic) =   -3.273779

   izeta = 2
                 rmatch =    4.587816
              splitnorm =    0.280000
                 energy =   -0.131871
                kinetic =    1.403687
    potential(screened) =   -1.535557
       potential(ionic) =   -4.015310

POLgen: Perturbative polarization orbital with L=  2

POLgen: Polarization orbital for state 3p

   izeta = 1
                     rc =    8.464845
                 energy =    0.321949
                kinetic =    1.055677
    potential(screened) =   -0.733728
       potential(ionic) =   -2.672950
atom: Total number of Sankey-type orbitals: 13

atm_pop: Valence configuration (for local Pseudopot. screening):
 3s( 2.00)                                                            
 3p( 2.00)                                                            
Vna: chval, zval:    4.00000   4.00000

Vna:  Cut-off radius for the neutral-atom potential:   8.464845

atom: _________________________________________________________________________

<basis_specs>
===============================================================================
O                    Z=   8    Mass=  16.000        Charge= 0.17977+309
Lmxo=1 Lmxkb= 3    BasisType=split      Semic=F
L=0  Nsemic=0  Cnfigmx=2
          i=1  nzeta=2  polorb=0  (2s)
            splnorm:   0.28000    
               vcte:    0.0000    
               rinn:    0.0000    
               qcoe:    0.0000    
               qyuk:    0.0000    
               qwid:   0.10000E-01
                rcs:    0.0000      0.0000    
            lambdas:    1.0000      1.0000    
L=1  Nsemic=0  Cnfigmx=2
          i=1  nzeta=2  polorb=1  (2p)
            splnorm:   0.28000    
               vcte:    0.0000    
               rinn:    0.0000    
               qcoe:    0.0000    
               qyuk:    0.0000    
               qwid:   0.10000E-01
                rcs:    0.0000      0.0000    
            lambdas:    1.0000      1.0000    
-------------------------------------------------------------------------------
L=0  Nkbl=1  erefs: 0.17977+309
L=1  Nkbl=1  erefs: 0.17977+309
L=2  Nkbl=1  erefs: 0.17977+309
L=3  Nkbl=1  erefs: 0.17977+309
===============================================================================
</basis_specs>

atom: Called for O                     (Z =   8)

read_vps: Pseudopotential generation method:
read_vps: ATM4.2.7  Troullier-Martins                       
Valence charge for ps generation:    6.00000

xc_check: Exchange-correlation functional:
xc_check: GGA Perdew, Burke & Ernzerhof 1996
V l=0 = -2*Zval/r beyond r=  1.1000
V l=1 = -2*Zval/r beyond r=  1.1000
V l=2 = -2*Zval/r beyond r=  2.2154
V l=3 = -2*Zval/r beyond r=  1.1000
All V_l potentials equal beyond r=  2.2154
This should be close to max(r_c) in ps generation
All pots = -2*Zval/r beyond r=  2.2154

VLOCAL1: 99.0% of the norm of Vloc inside      8.845 Ry
VLOCAL1: 99.9% of the norm of Vloc inside     20.157 Ry
atom: Maximum radius for 4*pi*r*r*local-pseudopot. charge    2.67231
atom: Maximum radius for r*vlocal+2*Zval:    2.32897
GHOST: No ghost state for L =  0
GHOST: No ghost state for L =  1
GHOST: No ghost state for L =  2
GHOST: No ghost state for L =  3

KBgen: Kleinman-Bylander projectors: 
   l= 0   rc=  2.243238   el= -1.759686   Ekb=**********   kbcos= -0.171774
   l= 1   rc=  2.328968   el= -0.663873   Ekb=-14.506792   kbcos= -0.519897
   l= 2   rc=  2.573941   el=  0.002031   Ekb= -1.137373   kbcos= -0.019581
   l= 3   rc=  2.606321   el=  0.003153   Ekb= -1.013546   kbcos= -0.003122

KBgen: Total number of Kleinman-Bylander projectors:   16
atom: -------------------------------------------------------------------------

atom: SANKEY-TYPE ORBITALS:
atom: Selected multiple-zeta basis: split     

SPLIT: Orbitals with angular momentum L= 0

SPLIT: Basis orbitals for state 2s

SPLIT: PAO cut-off radius determined from an
SPLIT: energy shift=  0.002000 Ry

   izeta = 1
                 lambda =    1.000000
                     rc =    4.243912
                 energy =   -1.758270
                kinetic =    3.286084
    potential(screened) =   -5.044353
       potential(ionic) =  -12.921184

   izeta = 2
                 rmatch =    2.187845
              splitnorm =    0.280000
                 energy =   -0.885018
                kinetic =    8.134434
    potential(screened) =   -9.019452
       potential(ionic) =  -17.710645

SPLIT: Orbitals with angular momentum L= 1

SPLIT: Basis orbitals for state 2p

SPLIT: PAO cut-off radius determined from an
SPLIT: energy shift=  0.002000 Ry

   izeta = 1
                 lambda =    1.000000
                     rc =    5.314825
                 energy =   -0.661986
                kinetic =    4.917472
    potential(screened) =   -5.579458
       potential(ionic) =  -13.236259

   izeta = 2
                 rmatch =    2.160663
              splitnorm =    0.280000
                 energy =   -0.068760
                kinetic =    9.183374
    potential(screened) =   -9.252135
       potential(ionic) =  -18.274251

POLgen: Perturbative polarization orbital with L=  2

POLgen: Polarization orbital for state 2p

   izeta = 1
                     rc =    5.314825
                 energy =    1.970580
                kinetic =    3.886128
    potential(screened) =   -1.915547
       potential(ionic) =   -7.749584
atom: Total number of Sankey-type orbitals: 13

atm_pop: Valence configuration (for local Pseudopot. screening):
 2s( 2.00)                                                            
 2p( 4.00)                                                            
Vna: chval, zval:    6.00000   6.00000

Vna:  Cut-off radius for the neutral-atom potential:   5.314825

atom: _________________________________________________________________________

prinput: Basis input ----------------------------------------------------------

PAO.BasisType split     

%block ChemicalSpeciesLabel
    1    1 H                       # Species index, atomic number, species label
    2    7 N                       # Species index, atomic number, species label
    3   14 Si                      # Species index, atomic number, species label
    4    8 O                       # Species index, atomic number, species label
%endblock ChemicalSpeciesLabel

%block PAO.Basis                 # Define Basis set
H                     1                    # Species label, number of l-shells
 n=1   0   2 P   1                   # n, l, Nzeta, Polarization, NzetaPol
   6.518      2.141   
   1.000      1.000   
N                     2                    # Species label, number of l-shells
 n=2   0   2                         # n, l, Nzeta 
   4.730      2.532   
   1.000      1.000   
 n=2   1   2 P   1                   # n, l, Nzeta, Polarization, NzetaPol
   5.924      2.532   
   1.000      1.000   
Si                    2                    # Species label, number of l-shells
 n=3   0   2                         # n, l, Nzeta 
   6.430      3.998   
   1.000      1.000   
 n=3   1   2 P   1                   # n, l, Nzeta, Polarization, NzetaPol
   8.465      4.588   
   1.000      1.000   
O                     2                    # Species label, number of l-shells
 n=2   0   2                         # n, l, Nzeta 
   4.244      2.188   
   1.000      1.000   
 n=2   1   2 P   1                   # n, l, Nzeta, Polarization, NzetaPol
   5.315      2.161   
   1.000      1.000   
%endblock PAO.Basis

prinput: ----------------------------------------------------------------------

Dumping basis to NetCDF file H.ion.nc
Dumping basis to NetCDF file N.ion.nc
Dumping basis to NetCDF file Si.ion.nc
Dumping basis to NetCDF file O.ion.nc
coor:   Atomic-coordinates input format  =     Cartesian coordinates
coor:                                          (in Angstroms)

siesta: Atomic coordinates (Bohr) and species
siesta:      1.06717   8.11924   0.00000  1        1
siesta:     -0.26790   6.62629   0.00000  2        2
siesta:     -3.53766   7.46034   0.00000  3        3
siesta:     -3.83205  10.27602   0.00000  1        4
siesta:     -6.41633   4.51443   0.00000  3        5
siesta:     -9.21915   4.97332   0.00000  1        6
siesta:     -4.15170   0.89886   0.00000  3        7
siesta:     -5.59927  -1.99755   0.00000  2        8
siesta:     -4.48387  -3.80642   0.00000  1        9
siesta:     -7.58655  -2.14960   0.00000  1       10
siesta:     -0.90855   1.00313   0.00000  2       11
siesta:      1.12295   3.51711   0.00000  3       12
siesta:      4.16291   3.48156   0.00000  4       13
siesta:     10.61355 -14.07759   0.00000  1       14
siesta:      8.65886 -13.66658   0.00000  2       15
siesta:      6.22979 -16.04876   0.00000  3       16
siesta:      7.18318 -18.71532  -0.00000  1       17
siesta:      3.13570 -15.14356   0.00000  2       18
siesta:      3.17659 -11.72506  -0.00000  3       19
siesta:      1.03072  -8.10005   0.00000  3       20
siesta:     -1.95457  -7.45403   0.00000  4       21
siesta:      3.27352  -5.43711   0.00000  2       22
siesta:      2.28576  -3.64645  -0.00000  1       23
siesta:      6.63017  -5.24735   0.00000  3       24
siesta:      7.81751  -2.22872   0.00000  2       25
siesta:      6.69523  -0.49602   0.00000  1       26
siesta:      9.79567  -1.98858  -0.00000  1       27
siesta:      8.75489  -7.70105  -0.00000  2       28
siesta:      7.16982 -10.55666   0.00000  3       29

siesta: System type = molecule  

initatomlists: Number of atoms, orbitals, and projectors:     29   297   394

siesta: ******************** Simulation parameters ****************************
siesta:
siesta: The following are some of the parameters of the simulation.
siesta: A complete list of the parameters used, including default values,
siesta: can be found in file out.fdf
siesta:
redata: Spin configuration                          = spin-orbit
redata: Number of spin components                   = 8
redata: Time-Reversal Symmetry                      = F
redata: Spin spiral                                 = F
############################################################
This spin-orbit implementation uses a local approximation.
From 4.2 and onwards the full non-local approximation is implemented
You are strongly advised to use >=4.2 versions!
############################################################
redata: Long output                                 =   F
redata: Number of Atomic Species                    =        4
redata: Charge density info will appear in .RHO file
redata: Write Mulliken Pop.                         = NO
redata: Matel table size (NRTAB)                    =     1024
redata: Mesh Cutoff                                 =   340.0000 Ry
redata: Net charge of the system                    =     0.0000 |e|
redata: Min. number of SCF Iter                     =        1
redata: Max. number of SCF Iter                     =      200
redata: SCF mix quantity                            = Hamiltonian
redata: Mix DM or H after convergence               =   F
redata: Recompute H after scf cycle                 =   F
redata: Mix DM in first SCF step                    =   T
redata: Write Pulay info on disk                    =   F
redata: New DM Occupancy tolerance                  = 0.000000000001
redata: No kicks to SCF
redata: DM Mixing Weight for Kicks                  =     0.5000
redata: Require Harris convergence for SCF          =   F
redata: Harris energy tolerance for SCF             =     0.000100 eV
redata: Require DM convergence for SCF              =   T
redata: DM tolerance for SCF                        =     0.000008
redata: Require EDM convergence for SCF             =   F
redata: EDM tolerance for SCF                       =     0.001000 eV
redata: Require H convergence for SCF               =   T
redata: Hamiltonian tolerance for SCF               =     0.000001 eV
redata: Require (free) Energy convergence for SCF   =   F
redata: (free) Energy tolerance for SCF             =     0.000100 eV
redata: Using Saved Data (generic)                  =   F
redata: Use continuation files for DM               =   T
redata: Neglect nonoverlap interactions             =   F
redata: Method of Calculation                       = Diagonalization
redata: Electronic Temperature                      =   299.9978 K
redata: Fix the spin of the system                  =   F
redata: Dynamics option                             = Verlet MD run
redata: Initial MD time step                        =        1
redata:   Final MD time step                        =        1
redata: Length of MD time step                      =     0.5000 fs
redata: Initial Temperature of MD run               =     0.0000 K
redata: Perform a MD quench                         =   F
mix.SCF: Pulay mixing                            = Pulay
mix.SCF:    Variant                              = stable
mix.SCF:    History steps                        = 6
mix.SCF:    Linear mixing weight                 =     0.250000
mix.SCF:    Mixing weight                        =     0.250000
mix.SCF:    SVD condition                        = 0.1000E-07
mix.SCF:    Restart steps                        = 24
mix.SCF:    Restart save steps                   = 3
mix.SCF: Spin-component mixing                   all
redata: Save all siesta data in one NC              =   F
redata: ***********************************************************************

%block SCF.Mixers
  Pulay
%endblock SCF.Mixers

%block SCF.Mixer.Pulay
  # Mixing method
  method pulay
  variant stable

  # Mixing options
  weight 0.2500
  weight.linear 0.2500
  history 6
  restart 24
  restart.save 3
%endblock SCF.Mixer.Pulay

Size of DM history Fstack: 3
Total number of electrons:    98.000000
Total ionic charge:    98.000000

* ProcessorY, Blocksize:    2  24


* Orbital distribution balance (max,min):    48    24


Time-reversal symmetry not used.

siesta: k-grid: Number of k-points =     1
siesta: k-grid: Cutoff (effective) =     5.000 Ang
siesta: k-grid: Supercell and displacements
siesta: k-grid:    1   0   0      0.000
siesta: k-grid:    0   1   0      0.000
siesta: k-grid:    0   0   1      0.000

diag: Algorithm                                     = ELPA-1stage
diag: Parallel over k                               =   F
diag: Use parallel 2D distribution                  =   T
diag: Parallel block-size                           = 24
diag: Parallel distribution                         =     2 x     4
diag: Used triangular part                          = Lower
diag: Absolute tolerance                            =  0.100E-15
diag: Orthogonalization factor                      =  0.100E-05
diag: Memory factor                                 =  1.0000


ts: **************************************************************
ts: Save H and S matrices                           =    F
ts: Save DM and EDM matrices                        =    F
ts: Only save the overlap matrix S                  =    F
ts: **************************************************************

************************ Begin: TS CHECKS AND WARNINGS ************************
************************ End: TS CHECKS AND WARNINGS **************************


                     ====================================
                        Begin MD step =      1
                     ====================================

outcoor: Atomic coordinates (Ang):                          
    0.56472278    4.29651461    0.00000000   1       1  H
   -0.14176395    3.50647843    0.00000000   2       2  N
   -1.87205086    3.94784234    0.00000000   3       3  Si
   -2.02783054    5.43783460    0.00000000   1       4  H
   -3.39537248    2.38893482    0.00000000   3       5  Si
   -4.87856011    2.63176518    0.00000000   1       6  H
   -2.19698162    0.47565866    0.00000000   3       7  Si
   -2.96300708   -1.05705808    0.00000000   2       8  N
   -2.37276053   -2.01427111    0.00000000   1       9  H
   -4.01462940   -1.13751831    0.00000000   1      10  H
   -0.48078156    0.53083297    0.00000000   2      11  N
    0.59424106    1.86117181    0.00000000   3      12  Si
    2.20291438    1.84236155    0.00000000   4      13  O
    5.61644830   -7.44953905    0.00000000   1      14  H
    4.58206954   -7.23203760    0.00000000   2      15  N
    3.29666389   -8.49263600    0.00000000   3      16  Si
    3.80117524   -9.90371886    0.00000000   1      17  H
    1.65934232   -8.01362137    0.00000000   2      18  N
    1.68097912   -6.20463398    0.00000000   3      19  Si
    0.54543521   -4.28636135    0.00000000   3      20  Si
   -1.03431493   -3.94450034    0.00000000   4      21  O
    1.73226934   -2.87719605    0.00000000   2      22  N
    1.20957366   -1.92961761    0.00000000   1      23  H
    3.50853448   -2.77677601    0.00000000   3      24  Si
    4.13684451   -1.17938608    0.00000000   2      25  N
    3.54296161   -0.26248101    0.00000000   1      26  H
    5.18364407   -1.05231197    0.00000000   1      27  H
    4.63288658   -4.07521596    0.00000000   2      28  N
    3.79410501   -5.58634043    0.00000000   3      29  Si

outcell: Unit cell vectors (Ang):
       30.000000    0.000000    0.000000
        0.000000   45.000000    0.000000
        0.000000    0.000000   10.000000

outcell: Cell vector modules (Ang)   :   30.000000   45.000000   10.000000
outcell: Cell angles (23,13,12) (deg):     90.0000     90.0000     90.0000
outcell: Cell volume (Ang**3)        :  13500.0000
<dSpData1D:S at geom step 1
  <sparsity:sparsity for geom step 1
    nrows_g=297 nrows=48 sparsity=.1219 nnzs=10757, refcount: 8>
  <dData1D:(new from dSpData1D) n=10757, refcount: 1>
refcount: 1>
new_DM -- step:     1
Initializing Density Matrix...

Attempting to read DM from file... Failed...
DM filled with atomic data:
<dSpData2D:DM initialized from atoms
  <sparsity:sparsity for geom step 1
    nrows_g=297 nrows=48 sparsity=.1219 nnzs=10757, refcount: 9>
  <dData2D:DM n=10757 m=8, refcount: 1>
refcount: 1>
     spin moment: S , {S} =   56.00000   0.00000   0.00000  56.00000
No. of atoms with KB's overlaping orbs in proc 0. Max # of overlaps:      27     189

Initializing spin-orbit part of the Hamiltonian
  Adding spin-orbit effects for H 
  Adding spin-orbit effects for N 
  Adding spin-orbit effects for Si
  Adding spin-orbit effects for O 


New grid distribution:   1
           1       1:  180    1:  125    1:   15
           2       1:  180    1:  125   16:   30
           3       1:  180    1:  125   31:   45
           4       1:  180    1:  125   46:   60
           5       1:  180  126:  250    1:   15
           6       1:  180  126:  250   16:   30
           7       1:  180  126:  250   31:   45
           8       1:  180  126:  250   46:   60

InitMesh: MESH =   360 x   500 x   120 =    21600000
InitMesh: (bp) =   180 x   250 x    60 =     2700000
InitMesh: Mesh cutoff (required, used) =   340.000   341.206 Ry
ExtMesh (bp) on 0 =   288 x   225 x   123 =     7970400
New grid distribution:   2
           1      36:  180   16:  214    1:   60
           2      23:  180  235:  250    1:   60
           3      36:  180    1:   15    1:   60
           4       1:   22  215:  231    1:   60
           5       1:   35    1:  196    1:   60
           6      23:  180  215:  234    1:   60
           7       1:   35  197:  214    1:   60
           8       1:   22  232:  250    1:   60
New grid distribution:   3
           1       1:  127   31:  200    1:   60
           2       1:  127    1:   30    1:   60
           3     128:  180    1:   20    1:   60
           4       1:   34  201:  224    1:   60
           5     128:  180   21:  200    1:   60
           6      35:  180  201:  231    1:   60
           7      35:  180  232:  250    1:   60
           8       1:   34  225:  250    1:   60
Setting up quadratic distribution...
ExtMesh (bp) on 0 =   253 x   299 x   168 =    12708696
PhiOnMesh: Number of (b)points on node 0 =              1731300
PhiOnMesh: nlist on node 0 =              1638226

stepf: Fermi-Dirac step function

siesta: Program's energy decomposition (eV):
siesta: Ebs     =      -589.714435
siesta: Eions   =      3585.165840
siesta: Ena     =       381.741239
siesta: Ekin    =      3362.702253
siesta: Enl     =     -3291.868573
siesta: Eso     =        -0.003427
siesta: Edftu   =         0.000000
siesta: DEna    =       153.148989
siesta: DUscf   =        79.278725
siesta: DUext   =         0.000000
siesta: Exc     =     -1202.663156
siesta: eta*DQ  =         0.000000
siesta: Emadel  =         0.000000
siesta: Emeta   =         0.000000
siesta: Emolmec =         0.000000
siesta: Ekinion =         0.000000
siesta: Eharris =     -4027.444006
siesta: Etot    =     -4102.829790
siesta: FreeEng =     -4102.830803

        iscf     Eharris(eV)        E_KS(eV)     FreeEng(eV)     dDmax    Ef(eV) dHmax(eV)
   scf:    1    -4027.444006    -4102.829790    -4102.830803  0.961819 -4.904432 21.464520
     spin moment: S , {S} =    2.00569   0.00000  -0.00000   2.00569
timer: Routine,Calls,Time,% = IterSCF        1      10.624  29.71
   scf:    2    -4147.680605    -4137.192881    -4137.193930  0.461729 -4.135422 11.727690
     spin moment: S , {S} =    1.99477   0.00000   0.00000   1.99477
   scf:    3    -4107.498810    -4134.223070    -4134.238502  0.433648 -4.292388 12.416064
     spin moment: S , {S} =    2.00500   0.00000   0.00000   2.00500
   scf:    4    -4150.747149    -4145.815839    -4145.815839  0.315102 -3.818455  6.183350
     spin moment: S , {S} =    0.00009   0.00000  -0.00000   0.00009
   scf:    5    -4147.011588    -4146.506357    -4146.506357  0.037661 -3.587938  4.275956
     spin moment: S , {S} =    0.00006  -0.00000   0.00000   0.00006
   scf:    6    -4147.241056    -4146.879053    -4146.879053  0.023872 -3.582267  2.168742
     spin moment: S , {S} =    0.00003   0.00000  -0.00000   0.00003
   scf:    7    -4147.228479    -4147.050977    -4147.050977  0.021400 -3.581617  0.938245
     spin moment: S , {S} =    0.00001   0.00000  -0.00000   0.00001
   scf:    8    -4147.173925    -4147.110634    -4147.110634  0.012488 -3.595256  0.529124
     spin moment: S , {S} =    0.00000   0.00000  -0.00000   0.00000
   scf:    9    -4147.150971    -4147.130166    -4147.130166  0.006947 -3.649134  0.380702
     spin moment: S , {S} =    0.00000  -0.00000  -0.00000   0.00000
   scf:   10    -4147.183095    -4147.151319    -4147.151319  0.020281 -3.677069  0.186564
     spin moment: S , {S} =    0.00000  -0.00000  -0.00000  -0.00000
   scf:   11    -4147.154307    -4147.152797    -4147.152797  0.004894 -3.667497  0.054728
     spin moment: S , {S} =    0.00000  -0.00000  -0.00000  -0.00000
   scf:   12    -4147.153665    -4147.153243    -4147.153243  0.001263 -3.661591  0.025228
     spin moment: S , {S} =    0.00000  -0.00000  -0.00000   0.00000
   scf:   13    -4147.153611    -4147.153421    -4147.153421  0.001433 -3.659773  0.018363
     spin moment: S , {S} =    0.00000  -0.00000  -0.00000   0.00000
   scf:   14    -4147.153667    -4147.153536    -4147.153536  0.001400 -3.658638  0.014624
     spin moment: S , {S} =    0.00000  -0.00000  -0.00000   0.00000
   scf:   15    -4147.153697    -4147.153609    -4147.153609  0.001394 -3.658227  0.010297
     spin moment: S , {S} =    0.00000  -0.00000  -0.00000   0.00000
   scf:   16    -4147.153715    -4147.153653    -4147.153653  0.001405 -3.658491  0.006001
     spin moment: S , {S} =    0.00000  -0.00000  -0.00000   0.00000
   scf:   17    -4147.153682    -4147.153666    -4147.153666  0.000726 -3.658481  0.003957
     spin moment: S , {S} =    0.00000  -0.00000  -0.00000   0.00000
   scf:   18    -4147.153677    -4147.153670    -4147.153670  0.000491 -3.658555  0.001811
     spin moment: S , {S} =    0.00000  -0.00000  -0.00000   0.00000
   scf:   19    -4147.153674    -4147.153672    -4147.153672  0.000267 -3.658604  0.000840
     spin moment: S , {S} =    0.00000  -0.00000  -0.00000   0.00000
   scf:   20    -4147.153672    -4147.153672    -4147.153672  0.000093 -3.658597  0.000474
     spin moment: S , {S} =    0.00000  -0.00000  -0.00000   0.00000
   scf:   21    -4147.153672    -4147.153672    -4147.153672  0.000075 -3.658605  0.000215
     spin moment: S , {S} =    0.00000  -0.00000  -0.00000   0.00000
   scf:   22    -4147.153672    -4147.153672    -4147.153672  0.000020 -3.658600  0.000085
     spin moment: S , {S} =    0.00000  -0.00000  -0.00000   0.00000
   scf:   23    -4147.153672    -4147.153672    -4147.153672  0.000004 -3.658602  0.000057
     spin moment: S , {S} =    0.00000  -0.00000  -0.00000   0.00000
   scf:   24    -4147.153672    -4147.153672    -4147.153672  0.000003 -3.658602  0.000057
     spin moment: S , {S} =    0.00000  -0.00000  -0.00000  -0.00000
mix: Pulay -- resetting history
   scf:   25    -4147.153672    -4147.153672    -4147.153672  0.000002 -3.658602  0.000045
     spin moment: S , {S} =    0.00000  -0.00000  -0.00000  -0.00000
   scf:   26    -4147.153672    -4147.153672    -4147.153672  0.000003 -3.658601  0.000030
     spin moment: S , {S} =    0.00000  -0.00000  -0.00000  -0.00000
   scf:   27    -4147.153672    -4147.153672    -4147.153672  0.000004 -3.658599  0.000014
     spin moment: S , {S} =    0.00000  -0.00000  -0.00000  -0.00000
   scf:   28    -4147.153672    -4147.153672    -4147.153672  0.000001 -3.658599  0.000008
     spin moment: S , {S} =    0.00000  -0.00000  -0.00000  -0.00000
   scf:   29    -4147.153672    -4147.153672    -4147.153672  0.000001 -3.658599  0.000005
     spin moment: S , {S} =    0.00000  -0.00000  -0.00000   0.00000
   scf:   30    -4147.153672    -4147.153672    -4147.153672  0.000001 -3.658599  0.000002
     spin moment: S , {S} =    0.00000  -0.00000  -0.00000   0.00000
   scf:   31    -4147.153672    -4147.153672    -4147.153672  0.000000 -3.658599  0.000001
     spin moment: S , {S} =    0.00000  -0.00000  -0.00000   0.00000

SCF Convergence by DM+H criterion
max |DM_out - DM_in|         :     0.0000003549
max |H_out - H_in|      (eV) :     0.0000009812
SCF cycle converged after 31 iterations

Using DM_out to compute the final energy and forces
No. of atoms with KB's overlaping orbs in proc 0. Max # of overlaps:      27     189

siesta: E_KS(eV) =            -4147.1537

siesta: E_KS - E_eggbox =     -4147.1537
     spin moment: S , {S} =    0.00000  -0.00000  -0.00000   0.00000

siesta: Atomic forces (eV/Ang):
     1    0.074033    0.041924   -0.000000
     2   -0.283179    0.190264   -0.000000
     3    0.259753   -0.037641    0.000000
     4   -0.043209    0.096317    0.000000
     5   -0.132880   -0.129479   -0.000000
     6    0.015427    0.018522    0.000000
     7    0.796695    0.556548   -0.000000
     8    0.794476   -1.845278   -0.000000
     9   -0.909631    1.258623    0.000000
    10    0.150079   -0.272165    0.000000
    11   -0.537911   -0.222554   -0.000000
    12    0.694217   -0.198650   -0.000000
    13   -1.451696   -1.155072    0.000000
    14   -0.017475   -0.019392    0.000000
    15    0.065684    0.023292    0.000000
    16    0.002824   -0.015777    0.000000
    17   -0.004899    0.044774    0.000000
    18   -0.039761    0.026691   -0.000000
    19    0.160805    0.011880    0.000000
    20   -0.856722   -0.058057    0.000000
    21    0.798469   -3.524109    0.000000
    22    0.127511    0.530281   -0.000000
    23    0.192107   -0.417032   -0.000000
    24   -0.232730   -0.523867   -0.000000
    25   -0.479546    1.240515    0.000000
    26    0.561620   -0.798741   -0.000000
    27   -0.142030    0.052666   -0.000000
    28    0.022803    0.433232    0.000000
    29   -0.193119   -0.242263   -0.000000
----------------------------------------
   Tot   -0.608285   -4.934548   -0.000000
----------------------------------------
   Max    3.524109
   Res    0.584533    sqrt( Sum f_i^2 / 3N )
----------------------------------------
   Max    3.524109    constrained

Stress tensor Voigt[x,y,z,yz,xz,xy] (kbar):        0.58        0.43       -0.03        0.00       -0.00       -0.50
(Free)E + p*V (eV/cell)    -4149.8911
Target enthalpy (eV/cell)    -4147.1537

siesta: Stress tensor (static) (eV/Ang**3):
         0.000360   -0.000314   -0.000000
        -0.000314    0.000268    0.000000
        -0.000000    0.000000   -0.000020

siesta: Pressure (static):         -0.32487862  kBar

siesta: Stress tensor (total) (eV/Ang**3):
         0.000360   -0.000314   -0.000000
        -0.000314    0.000268    0.000000
        -0.000000    0.000000   -0.000020

siesta: Pressure (total):         -0.32487862  kBar

siesta: Temp_ion =       0.000 K

siesta: Eigenvalues (eV):
ik =     1
  -22.0700  -22.0700  -21.6775  -21.6775  -21.2725  -21.2725  -21.1748  -21.1748  -21.1183  -21.1183
  -21.0568  -21.0568  -20.4760  -20.4760  -19.5319  -19.5319  -19.4027  -19.4027  -19.1956  -19.1956
  -14.7060  -14.7060  -13.6739  -13.6739  -13.2031  -13.2031  -12.9109  -12.9109  -12.7850  -12.7850
  -12.7490  -12.7490  -12.4660  -12.4660  -12.1137  -12.1137  -11.9873  -11.9873  -11.8801  -11.8801
  -11.0693  -11.0693  -10.7417  -10.7417  -10.5388  -10.5388  -10.4432  -10.4432  -10.0663  -10.0663
   -9.5378   -9.5378   -9.0086   -9.0086   -8.6936   -8.6936   -8.6402   -8.6402   -8.5445   -8.5445
   -8.4229   -8.4229   -8.3390   -8.3390   -7.9378   -7.9378   -7.9238   -7.9238   -7.6226   -7.6226
   -7.5444   -7.5444   -7.2082   -7.2082   -7.0282   -7.0282   -6.8042   -6.8042   -6.5881   -6.5881
   -6.5359   -6.5359   -6.3105   -6.3105   -6.1641   -6.1641   -6.1286   -6.1286   -6.0575   -6.0575
   -5.9951   -5.9951   -5.6772   -5.6772   -5.4705   -5.4705   -4.1466   -4.1466   -3.1705   -3.1705
   -2.2463   -2.2463   -2.1651   -2.1651   -2.0911   -2.0911   -1.7911   -1.7911   -1.7521   -1.7521
   -1.6799   -1.6799   -1.6354   -1.6354   -1.5421   -1.5421   -1.2364   -1.2364   -1.0321   -1.0321
   -0.7890   -0.7890   -0.5507   -0.5507   -0.2235   -0.2235   -0.2085   -0.2085    0.3387    0.3387
    0.5901    0.5901    0.6722    0.6722    0.7230    0.7230    1.0209    1.0209    1.2061    1.2061
    1.3311    1.3311    1.4127    1.4127    1.4787    1.4787    1.5629    1.5629    1.8746    1.8746
    2.0087    2.0087    2.0513    2.0513    2.5451    2.5451    2.6244    2.6244    2.8663    2.8663
    2.8951    2.8951    2.9349    2.9349    3.0272    3.0272    3.4741    3.4741    3.5761    3.5761
    3.8188    3.8188    4.0675    4.0675    4.1214    4.1214    4.1847    4.1847    4.3626    4.3626
    4.5980    4.5980    4.7056    4.7056    4.7992    4.7992    4.8232    4.8232    4.9849    4.9849
    5.1487    5.1487    5.1623    5.1623    5.4292    5.4292    5.6439    5.6439    5.7839    5.7839
    6.0506    6.0506    6.0556    6.0556    6.1267    6.1267    6.4224    6.4224    6.4409    6.4409
    6.5786    6.5786    6.6577    6.6577    6.7506    6.7506    6.8047    6.8047    7.1308    7.1308
    7.1734    7.1734    7.3767    7.3767    7.6930    7.6930    7.8632    7.8632    7.9815    7.9815
    8.1365    8.1365    8.1486    8.1486    8.2010    8.2010    8.5101    8.5101    8.7831    8.7831
    8.8888    8.8888    9.0006    9.0006    9.0133    9.0133    9.1246    9.1246    9.3999    9.3999
    9.4916    9.4916    9.7757    9.7757    9.9213    9.9213   10.0351   10.0351   10.1855   10.1855
   10.3549   10.3549   10.4546   10.4546   10.7149   10.7149   11.1040   11.1040   11.2447   11.2447
   11.2661   11.2661   11.4364   11.4364   11.8961   11.8961   12.0171   12.0171   12.0657   12.0657
   12.2820   12.2820   12.3116   12.3116   12.5782   12.5782   12.6973   12.6973   12.9930   12.9930
   13.0146   13.0146   13.1700   13.1700   13.5856   13.5856   13.6220   13.6220   13.8855   13.8855
   14.0992   14.0992   14.2564   14.2564   14.6484   14.6484   14.9293   14.9293   14.9614   14.9614
   15.3949   15.3949   15.5591   15.5591   16.2522   16.2522   16.7566   16.7566   16.8123   16.8123
   17.1376   17.1376   17.5377   17.5377   17.6371   17.6371   18.7557   18.7557   18.7727   18.7727
   19.2598   19.2598   19.3696   19.3696   20.2133   20.2133   20.3159   20.3159   20.3273   20.3273
   21.2434   21.2434   21.8621   21.8621   22.3238   22.3238   22.3597   22.3597   22.9358   22.9358
   23.1377   23.1377   23.8202   23.8202   23.9941   23.9941   24.1580   24.1580   24.6674   24.6674
   25.2556   25.2556   25.6897   25.6897   26.3160   26.3160   27.2448   27.2448   28.0624   28.0624
   29.1480   29.1480   29.3367   29.3367   29.5317   29.5317   29.8896   29.8896   30.3060   30.3060
   30.3110   30.3110   30.5373   30.5373   30.9085   30.9085   31.0442   31.0442   31.2978   31.2978
   31.5138   31.5138   31.6592   31.6592   31.8793   31.8793   32.7524   32.7524   33.1962   33.1962
   34.1232   34.1232   34.2670   34.2670   34.5396   34.5396   34.6531   34.6531   34.8506   34.8506
   35.5726   35.5726   35.6649   35.6649   35.8355   35.8355   36.9221   36.9221   37.1747   37.1747
   37.3565   37.3565   38.2223   38.2223   38.2921   38.2921   38.5290   38.5290   38.8842   38.8842
   39.3035   39.3035   39.4866   39.4866   40.5408   40.5408   40.7368   40.7368   40.7397   40.7397
   40.9312   40.9312   41.0760   41.0760   41.1136   41.1136   41.5151   41.5151   41.7258   41.7258
   43.1476   43.1476   43.2801   43.2801   43.3859   43.3859   43.6325   43.6325   44.0373   44.0373
   44.2252   44.2252   44.8089   44.8089   44.8370   44.8370   44.9465   44.9465   45.2365   45.2365
   45.6253   45.6253   46.3304   46.3304   46.8155   46.8155   47.1720   47.1720   47.7107   47.7107
   47.8618   47.8618   48.9186   48.9186   49.6292   49.6292   50.0592   50.0592   50.4707   50.4707
   50.6317   50.6317   50.7084   50.7084   51.0497   51.0497   51.4110   51.4110   51.6608   51.6608
   51.8515   51.8515   52.7583   52.7583   53.6287   53.6287   55.1170   55.1170   55.2053   55.2053
   55.4319   55.4319   55.6963   55.6963   55.9930   55.9930   56.4677   56.4677   56.9800   56.9800
   57.3464   57.3464   57.7285   57.7285   58.2069   58.2069   59.4729   59.4729   60.6472   60.6472
   61.1385   61.1385   61.2594   61.2594   61.4831   61.4831   61.5364   61.5364   62.9303   62.9303
   63.8677   63.8677   64.1638   64.1638   64.8780   64.8780   65.2371   65.2371   67.0270   67.0270
   67.4169   67.4169   68.2050   68.2050   68.6520   68.6520   70.8883   70.8883   71.2505   71.2505
   74.5498   74.5498   84.8655   84.8655   91.9586   91.9586   92.4076   92.4076   93.7864   93.7864
   98.7242   98.7242   99.3932   99.3932  101.8381  101.8381  103.6382  103.6382  104.8013  104.8013
  112.2422  112.2422  114.7434  114.7434  124.6029  124.6029  127.0886  127.0886  132.1661  132.1661
  138.5168  138.5168  140.8750  140.8750
siesta: Fermi energy =      -3.658599 eV

siesta: Program's energy decomposition (eV):
siesta: Ebs     =     -1121.280500
siesta: Eions   =      3585.165840
siesta: Ena     =       381.741239
siesta: Ekin    =      2902.728706
siesta: Enl     =     -2787.977224
siesta: Eso     =        -0.004284
siesta: Edftu   =         0.000000
siesta: DEna    =        47.312111
siesta: DUscf   =        13.969794
siesta: DUext   =         0.000000
siesta: Exc     =     -1119.758174
siesta: eta*DQ  =         0.000000
siesta: Emadel  =         0.000000
siesta: Emeta   =         0.000000
siesta: Emolmec =         0.000000
siesta: Ekinion =         0.000000
siesta: Eharris =     -4147.153672
siesta: Etot    =     -4147.153672
siesta: FreeEng =     -4147.153672

siesta: Final energy (eV):
siesta:  Band Struct. =   -1121.280500
siesta:       Kinetic =    2902.728706
siesta:       Hartree =   15175.746086
siesta:       Edftu   =       0.000000
siesta:       Eso     =      -0.004284
siesta:    Ext. field =       0.000000
siesta:   Exch.-corr. =   -1119.758174
siesta:  Ion-electron =  -32921.910234
siesta:       Ion-ion =   11816.044228
siesta:       Ekinion =       0.000000
siesta:         Total =   -4147.153672
siesta:         Fermi =      -3.658599

siesta: Atomic forces (eV/Ang):
siesta:      1    0.074033    0.041924   -0.000000
siesta:      2   -0.283179    0.190264   -0.000000
siesta:      3    0.259753   -0.037641    0.000000
siesta:      4   -0.043209    0.096317    0.000000
siesta:      5   -0.132880   -0.129479   -0.000000
siesta:      6    0.015427    0.018522    0.000000
siesta:      7    0.796695    0.556548   -0.000000
siesta:      8    0.794476   -1.845278   -0.000000
siesta:      9   -0.909631    1.258623    0.000000
siesta:     10    0.150079   -0.272165    0.000000
siesta:     11   -0.537911   -0.222554   -0.000000
siesta:     12    0.694217   -0.198650   -0.000000
siesta:     13   -1.451696   -1.155072    0.000000
siesta:     14   -0.017475   -0.019392    0.000000
siesta:     15    0.065684    0.023292    0.000000
siesta:     16    0.002824   -0.015777    0.000000
siesta:     17   -0.004899    0.044774    0.000000
siesta:     18   -0.039761    0.026691   -0.000000
siesta:     19    0.160805    0.011880    0.000000
siesta:     20   -0.856722   -0.058057    0.000000
siesta:     21    0.798469   -3.524109    0.000000
siesta:     22    0.127511    0.530281   -0.000000
siesta:     23    0.192107   -0.417032   -0.000000
siesta:     24   -0.232730   -0.523867   -0.000000
siesta:     25   -0.479546    1.240515    0.000000
siesta:     26    0.561620   -0.798741   -0.000000
siesta:     27   -0.142030    0.052666   -0.000000
siesta:     28    0.022803    0.433232    0.000000
siesta:     29   -0.193119   -0.242263   -0.000000
siesta: ----------------------------------------
siesta:    Tot   -0.608285   -4.934548   -0.000000

siesta: Stress tensor (static) (eV/Ang**3):
siesta:     0.000360   -0.000314   -0.000000
siesta:    -0.000314    0.000268    0.000000
siesta:    -0.000000    0.000000   -0.000020

siesta: Cell volume =      13500.000000 Ang**3

siesta: Pressure (static):
siesta:                Solid            Molecule  Units
siesta:          -0.00000221         -0.00000083  Ry/Bohr**3
siesta:          -0.00020277         -0.00007602  eV/Ang**3
siesta:          -0.32487862         -0.12179891  kBar
(Free)E+ p_basis*V_orbitals  =       -4127.303255
(Free)Eharris+ p_basis*V_orbitals  =       -4127.303255
     spin moment: S , {S} =    0.00000  -0.00000  -0.00000   0.00000

siesta: Electric dipole (a.u.)  =   -0.035967    1.509561    0.000000
siesta: Electric dipole (Debye) =   -0.091419    3.836925    0.000000

cite: Please see "GC.bib" for an exhaustive BiBTeX file.
cite: Please clearly indicate Siesta version in published work: v4.1.5-1-g384057250
cite: This calculation has made use of the following articles
cite: which are encouraged to be cited in a published work.
        Primary SIESTA paper
          DOI: www.doi.org/10.1088/0953-8984/14/11/302
        Spin-orbit coupling (on-site approximation)
          DOI: www.doi.org/10.1088/0953-8984/19/19/489001


WARNING: alloc-realloc-dealloc name mismatch
         Name: atomlist isa
         Size:              -116. Bytes
         Node:     0
         Subsequent mismatches will not be reported
>> End of run:   1-FEB-2024  21:51:29
Job completed
