<?xml version="1.0" encoding="UTF-8" ?>
<psml version="1.1" energy_unit="hartree" length_unit="bohr"
 uuid="bc221390-3e8f-11ef-7dd8-a158ffbf217a"
 xmlns="http://esl.cecam.org/PSML/ns/1.1">
<provenance creator="ATM4.2.7" date="10-JUL-24">
<annotation action="semilocal-pseudopotential-generation" />
<input-file name="INP">
<![CDATA[   pg  Hydrogen
        tm2    2.000
   H    vwr 00000000
       0.0
    0    1
    1    0     0.500     0.500
   0.04054   0.00000   1.00000   1.00000   1.00000   0.00000
]]>
</input-file>
</provenance>
<pseudo-atom-spec atomic-label="H" atomic-number="1" z-pseudo="1"
 flavor="Troullier-Martins" relativity="dirac" spin-dft="no"
 core-corrections="no">
<annotation pseudo-energy="-0.481798504534" />
<exchange-correlation>
<annotation atom-xc-code="vw" siesta-xc-type="VDW" siesta-xc-authors="DRSLL" />
<libxc-info number-of-functionals="2">
<functional name="XC_GGA_X_OPTB88_VDW" type="XC_EXCHANGE" id="139" />
<functional name="XC_NOT_IMPL" type="XC_EXCHANGE_CORRELATION" id="-1" />
</libxc-info>
</exchange-correlation>
<valence-configuration total-valence-charge="1">
<shell n="1" l="s" occupation="1" />
</valence-configuration>
</pseudo-atom-spec>
<grid npts="376">
<annotation type="sampled-log-atom"
 recipe="r(i:1..N) = a*(exp(b*(i-1))-1); resampled"
 recipe-cont="a: scale; b: step" scale="0.247875217667E-02"
 step="0.125000000000E-01" delta="0.500000000000E-02" rmax="20" />
<grid-data>
  0.000000000000E+00  5.061497378559E-03  1.010939006577E-02  1.516276895795E-02
  2.017340934922E-02  2.518866038934E-02  3.047994836604E-02  3.581379470968E-02
  4.091238809158E-02  4.607906909334E-02  5.118593973606E-02  5.682990465277E-02
  6.225322253433E-02  6.729481741978E-02  7.272907264199E-02  7.858657021787E-02
  8.381483432270E-02  8.938029249206E-02  9.530469187468E-02  1.003181562586E-01
  1.055886664582E-01  1.111294014941E-01  1.169542160901E-01  1.230776753165E-01
  1.295150910112E-01  1.345588393619E-01  1.397953194098E-01  1.452318958181E-01
  1.508762146683E-01  1.567362142138E-01  1.628201360449E-01  1.691365366793E-01
  1.756942995962E-01  1.825026477306E-01  1.895711564441E-01  1.969097669919E-01
  2.019573113858E-01  2.071326349744E-01  2.124389725035E-01  2.178796406066E-01
  2.234580398784E-01  2.291776570002E-01  2.350420669188E-01  2.410549350813E-01
  2.472200197259E-01  2.535411742315E-01  2.600223495251E-01  2.666675965525E-01
  2.734810688093E-01  2.804670249375E-01  2.876298313870E-01  2.949739651451E-01
  3.025040165344E-01  3.102246920822E-01  3.181408174620E-01  3.262573405099E-01
  3.345793343170E-01  3.431120004003E-01  3.518606719539E-01  3.608308171823E-01
  3.700280427183E-01  3.794580971273E-01  3.891268745001E-01  3.990404181375E-01
  4.040909075639E-01  4.092049243269E-01  4.143832675018E-01  4.196267462155E-01
  4.249361797721E-01  4.303123977813E-01  4.357562402883E-01  4.412685579044E-01
  4.468502119406E-01  4.525020745415E-01  4.582250288223E-01  4.640199690062E-01
  4.698878005643E-01  4.758294403574E-01  4.818458167787E-01  4.879378698992E-01
  4.941065516147E-01  5.003528257943E-01  5.066776684309E-01  5.130820677941E-01
  5.195670245844E-01  5.261335520893E-01  5.327826763423E-01  5.395154362825E-01
  5.463328839174E-01  5.532360844869E-01  5.602261166303E-01  5.673040725543E-01
  5.744710582038E-01  5.817281934351E-01  5.890766121901E-01  5.965174626744E-01
  6.040519075360E-01  6.116811240471E-01  6.194063042884E-01  6.272286553349E-01
  6.351493994451E-01  6.431697742512E-01  6.512910329532E-01  6.595144445142E-01
  6.678412938590E-01  6.762728820747E-01  6.848105266143E-01  6.934555615020E-01
  7.022093375420E-01  7.110732225298E-01  7.200486014654E-01  7.291368767700E-01
  7.383394685051E-01  7.476578145943E-01  7.570933710483E-01  7.666476121919E-01
  7.763220308947E-01  7.861181388044E-01  7.960374665827E-01  8.060815641448E-01
  8.162520009013E-01  8.265503660037E-01  8.369782685925E-01  8.475373380487E-01
  8.582292242484E-01  8.690555978205E-01  8.800181504079E-01  8.911185949318E-01
  9.023586658593E-01  9.137401194742E-01  9.252647341519E-01  9.369343106368E-01
  9.487506723240E-01  9.607156655442E-01  9.728311598517E-01  9.850990483172E-01
  9.975212478233E-01  1.010099699364E+00  1.022836368348E+00  1.035733244905E+00
  1.048792344199E+00  1.062015706741E+00  1.075405398708E+00  1.088963512266E+00
  1.102692165899E+00  1.116593504736E+00  1.130669700890E+00  1.144922953795E+00
  1.159355490552E+00  1.173969566272E+00  1.188767464436E+00  1.203751497244E+00
  1.218924005984E+00  1.234287361389E+00  1.249843964015E+00  1.265596244614E+00
  1.281546664511E+00  1.297697715992E+00  1.314051922691E+00  1.330611839987E+00
  1.347380055399E+00  1.364359188997E+00  1.381551893804E+00  1.398960856215E+00
  1.416588796417E+00  1.434438468809E+00  1.452512662442E+00  1.470814201442E+00
  1.489345945465E+00  1.508110790131E+00  1.527111667487E+00  1.546351546457E+00
  1.565833433314E+00  1.585560372139E+00  1.605535445309E+00  1.625761773969E+00
  1.646242518523E+00  1.666980879131E+00  1.687980096202E+00  1.709243450908E+00
  1.730774265691E+00  1.752575904784E+00  1.774651774737E+00  1.797005324952E+00
  1.819640048214E+00  1.842559481246E+00  1.865767205256E+00  1.889266846497E+00
  1.913062076837E+00  1.937156614329E+00  1.961554223793E+00  1.986258717406E+00
  2.011273955294E+00  2.036603846140E+00  2.062252347790E+00  2.088223467875E+00
  2.114521264436E+00  2.141149846556E+00  2.168113375007E+00  2.195416062893E+00
  2.223062176316E+00  2.251056035037E+00  2.279402013153E+00  2.308104539781E+00
  2.337168099749E+00  2.366597234298E+00  2.396396541790E+00  2.426570678428E+00
  2.457124358980E+00  2.488062357523E+00  2.519389508181E+00  2.551110705886E+00
  2.583230907139E+00  2.615755130787E+00  2.648688458806E+00  2.682036037095E+00
  2.715803076282E+00  2.749994852535E+00  2.784616708389E+00  2.819674053579E+00
  2.855172365886E+00  2.891117191995E+00  2.927514148357E+00  2.964368922071E+00
  3.001687271770E+00  3.039475028522E+00  3.077738096741E+00  3.116482455110E+00
  3.155714157513E+00  3.195439333984E+00  3.235664191661E+00  3.276395015762E+00
  3.317638170560E+00  3.359400100382E+00  3.401687330614E+00  3.444506468723E+00
  3.487864205285E+00  3.531767315036E+00  3.576222657925E+00  3.621237180190E+00
  3.666817915443E+00  3.712971985764E+00  3.759706602823E+00  3.807029068998E+00
  3.854946778520E+00  3.903467218630E+00  3.952597970744E+00  4.002346711643E+00
  4.052721214668E+00  4.103729350939E+00  4.155379090579E+00  4.207678503967E+00
  4.260635762992E+00  4.314259142333E+00  4.368557020753E+00  4.423537882405E+00
  4.479210318161E+00  4.535583026953E+00  4.592664817130E+00  4.650464607839E+00
  4.708991430414E+00  4.768254429791E+00  4.828262865934E+00  4.889026115282E+00
  4.950553672218E+00  5.012855150548E+00  5.075940285003E+00  5.139818932766E+00
  5.204501075003E+00  5.269996818432E+00  5.336316396897E+00  5.403470172965E+00
  5.471468639551E+00  5.540322421553E+00  5.610042277516E+00  5.680639101309E+00
  5.752123923829E+00  5.824507914725E+00  5.897802384142E+00  5.972018784492E+00
  6.047168712236E+00  6.123263909705E+00  6.200316266928E+00  6.278337823493E+00
  6.357340770425E+00  6.437337452097E+00  6.518340368153E+00  6.600362175464E+00
  6.683415690103E+00  6.767513889351E+00  6.852669913723E+00  6.938897069020E+00
  7.026208828413E+00  7.114618834539E+00  7.204140901644E+00  7.294789017731E+00
  7.386577346754E+00  7.479520230825E+00  7.573632192460E+00  7.668927936844E+00
  7.765422354130E+00  7.863130521768E+00  7.962067706858E+00  8.062249368536E+00
  8.163691160391E+00  8.266408932909E+00  8.370418735951E+00  8.475736821260E+00
  8.582379645001E+00  8.690363870333E+00  8.799706370011E+00  8.910424229022E+00
  9.022534747257E+00  9.136055442214E+00  9.251004051730E+00  9.367398536761E+00
  9.485257084182E+00  9.604598109630E+00  9.725440260383E+00  9.847802418274E+00
  9.971703702638E+00  1.009716347330E+01  1.022420133361E+01  1.035283713350E+01
  1.048309097255E+01  1.061498320321E+01  1.074853443390E+01  1.088376553227E+01
  1.102069762846E+01  1.115935211839E+01  1.129975066710E+01  1.144191521215E+01
  1.158586796705E+01  1.173163142469E+01  1.187922836092E+01  1.202868183806E+01
  1.218001520853E+01  1.233325211846E+01  1.248841651143E+01  1.264553263220E+01
  1.280462503049E+01  1.296571856479E+01  1.312883840631E+01  1.329401004286E+01
  1.346125928283E+01  1.363061225925E+01  1.380209543389E+01  1.397573560133E+01
  1.415155989320E+01  1.432959578240E+01  1.450987108741E+01  1.469241397661E+01
  1.487725297270E+01  1.506441695714E+01  1.525393517468E+01  1.544583723795E+01
  1.564015313201E+01  1.583691321913E+01  1.603614824348E+01  1.623788933592E+01
  1.644216801892E+01  1.664901621143E+01  1.685846623391E+01  1.707055081335E+01
  1.728530308839E+01  1.750275661452E+01  1.772294536928E+01  1.794590375763E+01
  1.817166661727E+01  1.840026922409E+01  1.863174729772E+01  1.886613700709E+01
  1.910347497606E+01  1.934379828916E+01  1.958714449742E+01  1.983355162416E+01
</grid-data>
</grid>
<valence-charge total-charge="1" is-unscreening-charge="yes"
 rescaled-to-z-pseudo="no">
<radfunc>
<data>
  3.912605888107E+00  3.907887574744E+00  3.890391792528E+00  3.862142162794E+00
  3.825911214374E+00  3.785276159197E+00  3.741833505685E+00  3.699508730530E+00
  3.660011845439E+00  3.620442602525E+00  3.581750386846E+00  3.539467129641E+00
  3.499304242349E+00  3.462374314814E+00  3.423001488068E+00  3.381060088652E+00
  3.344055742719E+00  3.305107207134E+00  3.264142510806E+00  3.229871651944E+00
  3.194230099938E+00  3.157183815755E+00  3.118700166681E+00  3.078748230622E+00
  3.037299126339E+00  3.005213749111E+00  2.972261095942E+00  2.938431977976E+00
  2.903718283602E+00  2.868113084416E+00  2.831610745679E+00  2.794207041091E+00
  2.755899271612E+00  2.716686388021E+00  2.676569116799E+00  2.635550088869E+00
  2.607705310925E+00  2.579463694024E+00  2.550827596459E+00  2.521799839945E+00
  2.492383727194E+00  2.462583059393E+00  2.432402153533E+00  2.401845859511E+00
  2.370919576933E+00  2.339629271545E+00  2.307981491200E+00  2.275983381280E+00
  2.243642699464E+00  2.210967829630E+00  2.177967793517E+00  2.144652263886E+00
  2.111031577126E+00  2.077116743790E+00  2.042919457843E+00  2.008452104573E+00
  1.973727767016E+00  1.938760230776E+00  1.903563987083E+00  1.868154233979E+00
  1.832546875470E+00  1.796758518516E+00  1.760806467712E+00  1.724708717524E+00
  1.706611014579E+00  1.688483941948E+00  1.670329937917E+00  1.652151481452E+00
  1.633951091643E+00  1.615731327082E+00  1.597494785212E+00  1.579244101612E+00
  1.560981949244E+00  1.542711037641E+00  1.524434112051E+00  1.506153952523E+00
  1.487873372953E+00  1.469595219895E+00  1.451322371028E+00  1.433057734348E+00
  1.414804247848E+00  1.396564878168E+00  1.378342619342E+00  1.360140491753E+00
  1.341961540747E+00  1.323808835339E+00  1.305685466826E+00  1.287594547342E+00
  1.269539208368E+00  1.251522599183E+00  1.233547885260E+00  1.215618246605E+00
  1.197736876045E+00  1.179906977458E+00  1.162131763955E+00  1.144414455998E+00
  1.126758279479E+00  1.109166463740E+00  1.091642239542E+00  1.074188836994E+00
  1.056809483427E+00  1.039507401231E+00  1.022285805644E+00  1.005147902505E+00
  9.880968859658E-01  9.711359361650E-01  9.542682163548E-01  9.374968698680E-01
  9.208250195008E-01  9.042557658444E-01  8.877921844582E-01  8.714373250143E-01
  8.551942082811E-01  8.390658236380E-01  8.230551272102E-01  8.071650392368E-01
  7.913984418258E-01  7.757581765405E-01  7.602470419898E-01  7.448677913967E-01
  7.296231301570E-01  7.145157133847E-01  6.995481434593E-01  6.847229675753E-01
  6.700426753040E-01  6.555096961706E-01  6.411263972520E-01  6.268950808321E-01
  6.128179815390E-01  5.988972633081E-01  5.851350194543E-01  5.715332725116E-01
  5.580939717968E-01  5.448189920045E-01  5.317101317047E-01  5.187691116001E-01
  5.059975728391E-01  4.933970753491E-01  4.809690961416E-01  4.687150276556E-01
  4.566361761305E-01  4.447337600245E-01  4.330089084957E-01  4.214626599564E-01
  4.100959607084E-01  3.989096636906E-01  3.879045271588E-01  3.770812129811E-01
  3.664402867270E-01  3.559822206536E-01  3.457073934335E-01  3.356160894586E-01
  3.257084996731E-01  3.159847209440E-01  3.064447559240E-01  2.970885129391E-01
  2.879158057656E-01  2.789263535520E-01  2.701197807925E-01  2.614956174101E-01
  2.530532989634E-01  2.447921670034E-01  2.367114695369E-01  2.288103613361E-01
  2.210879056934E-01  2.135430791150E-01  2.061747732264E-01  1.989817957704E-01
  1.919628727695E-01  1.851166495965E-01  1.784416924038E-01  1.719364894458E-01
  1.655994524698E-01  1.594289181879E-01  1.534231498723E-01  1.475803390878E-01
  1.418986075967E-01  1.363760093756E-01  1.310105329298E-01  1.258001052586E-01
  1.207425968869E-01  1.158358245427E-01  1.110775536366E-01  1.064655011722E-01
  1.019973379444E-01  9.767069101072E-02  9.348314607657E-02  8.943224996889E-02
  8.551551319206E-02  8.173041261265E-02  7.807439428473E-02  7.454487637358E-02
  7.113925232877E-02  6.785489511310E-02  6.468916146131E-02  6.163939518947E-02
  5.870293025276E-02  5.587709357704E-02  5.315920774597E-02  5.054659365310E-02
  4.803657315996E-02  4.562647177802E-02  4.331362131110E-02  4.109536248405E-02
  3.896904787592E-02  3.693204444179E-02  3.498173620138E-02  3.311552751847E-02
  3.133084600426E-02  2.962514507027E-02  2.799590626648E-02  2.644064137731E-02
  2.495689447215E-02  2.354224379302E-02  2.219430348287E-02  2.091072531950E-02
  1.968920035337E-02  1.852746043628E-02  1.742327971812E-02  1.637447599460E-02
  1.537891193887E-02  1.443449627733E-02  1.353918490275E-02  1.269098169619E-02
  1.188793929097E-02  1.112815992843E-02  1.040979596307E-02  9.731050138718E-03
  9.090175833910E-03  8.485477213602E-03  7.915309304058E-03  7.378077917984E-03
  6.872239486333E-03  6.396300842000E-03  5.948818885061E-03  5.528400151533E-03
  5.133700300282E-03  4.763423544730E-03  4.416321992905E-03  4.091194910457E-03
  3.786887940127E-03  3.502292265617E-03  3.236343715315E-03  2.988021826262E-03
  2.756348871093E-03  2.540388845411E-03  2.339246430269E-03  2.152065925348E-03
  1.978030165087E-03  1.816359431380E-03  1.666310350406E-03  1.527174777122E-03
  1.398278700713E-03  1.278981155853E-03  1.168673140716E-03  1.066776496231E-03
  9.727428456243E-04  8.860525383253E-04  8.062135673270E-04  7.327604799907E-04
  6.652535641129E-04  6.032775970481E-04  5.464409218311E-04  4.943748845814E-04
  4.467327303699E-04  4.031884339802E-04  3.634358570144E-04  3.271878252534E-04
  2.941750998202E-04  2.641458761289E-04  2.368649972110E-04  2.121129273210E-04
  1.896848224523E-04  1.693897259483E-04  1.510500072121E-04  1.345006297587E-04
  1.195883127122E-04  1.061708252820E-04  9.411639155844E-05  8.330304871086E-05
  7.361806092207E-05  6.495737774269E-05  5.722504408821E-05  5.033271592442E-05
  4.419922729517E-05  3.875008218473E-05  3.391701743192E-05  2.963763348731E-05
  2.585496320608E-05  2.251709589908E-05  1.957683972757E-05  1.699135522550E-05
  1.472183887311E-05  1.273321553750E-05  1.099383601024E-05  9.475205701705E-06
  8.151719137904E-06  7.000414340858E-06  6.000742123481E-06  5.134349287598E-06
  4.384878087693E-06  3.737778694025E-06  3.180136303421E-06  2.700511055830E-06
  2.288790727679E-06  1.936055521100E-06  1.634454060573E-06  1.377089907721E-06
  1.157918195231E-06  9.716517700959E-07  8.136761655350E-07  6.799727902986E-07
  5.670496515213E-07  4.718790335883E-07  3.918415852511E-07  3.246763016284E-07
  2.684358967693E-07  2.214470806888E-07  1.822752938019E-07  1.496934816028E-07
  1.226545186798E-07  1.002669188381E-07  8.177349526729E-08  6.653266234608E-08
  5.400209146766E-08  4.372447981134E-08  3.531508860026E-08  2.845137921129E-08
  2.286238581828E-08  1.832427163945E-08  1.464684094959E-08  1.167615725284E-08
  9.284119618548E-09  7.363187264942E-09  5.824534964714E-09  4.595288149179E-09
  3.615812767057E-09  2.837437083558E-09  2.220541606693E-09  1.732961915568E-09
  1.348656729475E-09  1.046600199574E-09  8.098632217687E-10  6.248536477039E-10
  4.806896910571E-10  3.686846621038E-10  2.819244819793E-10  2.149222900371E-10
  1.633369182981E-10  1.237441158065E-10  9.345120727990E-11  7.034740457496E-11
  5.278329161603E-11  3.947410501689E-11  2.942236143527E-11  2.185616320835E-11
  1.618016747029E-11  1.193674948602E-11  8.775344651352E-12  6.428329635035E-12
  4.692113669677E-12  3.412366521712E-12  2.472519166261E-12  1.784844320880E-12
  1.283563260291E-12  9.195382480250E-13  6.562011198381E-13  4.664419307727E-13
  3.302403861216E-13  2.328697235776E-13  1.635400428399E-13  1.143776409891E-13
  7.966022782408E-14  5.524620914586E-14  3.815055090563E-14  2.623089481277E-14
</data>
</radfunc>
</valence-charge>
<semilocal-potentials set="scalar_relativistic">
<slps n="1" l="s" rc="0.403733746904E-01" flavor="Troullier-Martins">
<radfunc>
<data>
 -7.530720585679E+01 -8.415188210383E+01 -8.200445511961E+01 -7.430208785097E+01
 -6.006482999103E+01 -4.333480037876E+01 -3.090232182275E+01 -2.686272574642E+01
 -2.444231882519E+01 -2.170182203085E+01 -1.953661014755E+01 -1.759636496077E+01
 -1.606342124874E+01 -1.485998137813E+01 -1.374965600553E+01 -1.272481704222E+01
 -1.193105892072E+01 -1.118814559947E+01 -1.049265998115E+01 -9.968282559385E+00
 -9.470710850323E+00 -8.998516306966E+00 -8.550352165156E+00 -8.124948219075E+00
 -7.721105981303E+00 -7.431691243665E+00 -7.153313554225E+00 -6.885538145567E+00
 -6.627948393442E+00 -6.380144985625E+00 -6.141745134137E+00 -5.912381828165E+00
 -5.691703125304E+00 -5.479371478772E+00 -5.275063098555E+00 -5.078467344449E+00
 -4.951540606289E+00 -4.827823654809E+00 -4.707233470001E+00 -4.589689270312E+00
 -4.475112447814E+00 -4.363426505480E+00 -4.254556996464E+00 -4.148431465325E+00
 -4.044979391126E+00 -3.944132132325E+00 -3.845822873412E+00 -3.749986573207E+00
 -3.656559914790E+00 -3.565481256502E+00 -3.476690587019E+00 -3.390129476435E+00
 -3.305741034432E+00 -3.223469866784E+00 -3.143262033878E+00 -3.065065010451E+00
 -2.988827646537E+00 -2.914500129592E+00 -2.842033947747E+00 -2.771381854163E+00
 -2.702497832437E+00 -2.635337063036E+00 -2.569855890722E+00 -2.506011792928E+00
 -2.474690660817E+00 -2.443763349064E+00 -2.413224847392E+00 -2.383070210718E+00
 -2.353294558270E+00 -2.323893072717E+00 -2.294860999311E+00 -2.266193645037E+00
 -2.237886377781E+00 -2.209934625510E+00 -2.182333875452E+00 -2.155079673348E+00
 -2.128167622427E+00 -2.101593383082E+00 -2.075352671919E+00 -2.049441260640E+00
 -2.023854975712E+00 -1.998589697541E+00 -1.973641359705E+00 -1.949005948265E+00
 -1.924679501069E+00 -1.900658107048E+00 -1.876937905542E+00 -1.853515085627E+00
 -1.830385885450E+00 -1.807546591578E+00 -1.784993538355E+00 -1.762723107265E+00
 -1.740731726308E+00 -1.719015869379E+00 -1.697572055667E+00 -1.676396849048E+00
 -1.655486857495E+00 -1.634838732499E+00 -1.614449168489E+00 -1.594314902267E+00
 -1.574432712448E+00 -1.554799418911E+00 -1.535411882248E+00 -1.516267003244E+00
 -1.497361722320E+00 -1.478693019005E+00 -1.460257911677E+00 -1.442053456123E+00
 -1.424076747845E+00 -1.406324917062E+00 -1.388795129794E+00 -1.371484591113E+00
 -1.354390540290E+00 -1.337510252048E+00 -1.320841035820E+00 -1.304380235342E+00
 -1.288125228197E+00 -1.272073425380E+00 -1.256222270855E+00 -1.240569241128E+00
 -1.225111844827E+00 -1.209847622277E+00 -1.194774145092E+00 -1.179889015768E+00
 -1.165189867277E+00 -1.150674362677E+00 -1.136340194720E+00 -1.122185085452E+00
 -1.108206785882E+00 -1.094403075512E+00 -1.080771762198E+00 -1.067310680978E+00
 -1.054017695206E+00 -1.040890695348E+00 -1.027927597832E+00 -1.015126345994E+00
 -1.002484909128E+00 -9.900012822734E-01 -9.776734858648E-01 -9.654995654033E-01
 -9.534775911345E-01 -9.416056577295E-01 -9.298818839699E-01 -9.183044124375E-01
 -9.068714092084E-01 -8.955810635479E-01 -8.844315876177E-01 -8.734212161809E-01
 -8.625482062954E-01 -8.518108371006E-01 -8.412074093631E-01 -8.307362453502E-01
 -8.203956885864E-01 -8.101841034469E-01 -8.000998749666E-01 -7.901414085580E-01
 -7.803071297532E-01 -7.705954839454E-01 -7.610049361356E-01 -7.515339706807E-01
 -7.421810910467E-01 -7.329448195631E-01 -7.238236971852E-01 -7.148162832450E-01
 -7.059211552349E-01 -6.971369085720E-01 -6.884621563488E-01 -6.798955291239E-01
 -6.714356747010E-01 -6.630812579041E-01 -6.548309603620E-01 -6.466834802937E-01
 -6.386375322971E-01 -6.306918471405E-01 -6.228451715563E-01 -6.150962680385E-01
 -6.074439146405E-01 -5.998869047795E-01 -5.924240470407E-01 -5.850541649829E-01
 -5.777760969487E-01 -5.705886958771E-01 -5.634908291177E-01 -5.564813782476E-01
 -5.495592388913E-01 -5.427233205417E-01 -5.359725463852E-01 -5.293058531265E-01
 -5.227221908170E-01 -5.162205226877E-01 -5.097998249808E-01 -5.034590867845E-01
 -4.971973098707E-01 -4.910135085341E-01 -4.849067094337E-01 -4.788759514361E-01
 -4.729202854610E-01 -4.670387743292E-01 -4.612304926115E-01 -4.554945264795E-01
 -4.498299735598E-01 -4.442359427887E-01 -4.387115542696E-01 -4.332559391314E-01
 -4.278682393896E-01 -4.225476078081E-01 -4.172932077641E-01 -4.121042131140E-01
 -4.069798080607E-01 -4.019191870234E-01 -3.969215545083E-01 -3.919861249816E-01
 -3.871121227435E-01 -3.822987818047E-01 -3.775453457634E-01 -3.728510676846E-01
 -3.682152099807E-01 -3.636370442940E-01 -3.591158513799E-01 -3.546509209923E-01
 -3.502415517704E-01 -3.458870511264E-01 -3.415867351354E-01 -3.373399284261E-01
 -3.331459640732E-01 -3.290041834909E-01 -3.249139363283E-01 -3.208745803655E-01
 -3.168854814113E-01 -3.129460132023E-01 -3.090555573032E-01 -3.052135030084E-01
 -3.014192472446E-01 -2.976721944749E-01 -2.939717566045E-01 -2.903173528865E-01
 -2.867084098299E-01 -2.831443611086E-01 -2.796246474710E-01 -2.761487166514E-01
 -2.727160232824E-01 -2.693260288077E-01 -2.659782013972E-01 -2.626720158623E-01
 -2.594069535725E-01 -2.561825023731E-01 -2.529981565041E-01 -2.498534165196E-01
 -2.467477892091E-01 -2.436807875186E-01 -2.406519304742E-01 -2.376607431050E-01
 -2.347067563686E-01 -2.317895070761E-01 -2.289085378191E-01 -2.260633968972E-01
 -2.232536382463E-01 -2.204788213682E-01 -2.177385112604E-01 -2.150322783479E-01
 -2.123596984147E-01 -2.097203525366E-01 -2.071138270154E-01 -2.045397133131E-01
 -2.019976079871E-01 -1.994871126270E-01 -1.970078337908E-01 -1.945593829435E-01
 -1.921413763949E-01 -1.897534352397E-01 -1.873951852970E-01 -1.850662570515E-01
 -1.827662855950E-01 -1.804949105687E-01 -1.782517761065E-01 -1.760365307786E-01
 -1.738488275361E-01 -1.716883236560E-01 -1.695546806873E-01 -1.674475643976E-01
 -1.653666447203E-01 -1.633115957023E-01 -1.612820954528E-01 -1.592778260925E-01
 -1.572984737034E-01 -1.553437282792E-01 -1.534132836766E-01 -1.515068375668E-01
 -1.496240913880E-01 -1.477647502983E-01 -1.459285231290E-01 -1.441151223391E-01
 -1.423242639695E-01 -1.405556675988E-01 -1.388090562987E-01 -1.370841565903E-01
 -1.353806984015E-01 -1.336984150238E-01 -1.320370430710E-01 -1.303963224372E-01
 -1.287759962558E-01 -1.271758108595E-01 -1.255955157400E-01 -1.240348635088E-01
 -1.224936098577E-01 -1.209715135213E-01 -1.194683362381E-01 -1.179838427134E-01
 -1.165178005826E-01 -1.150699803737E-01 -1.136401554725E-01 -1.122281020855E-01
 -1.108335992060E-01 -1.094564285785E-01 -1.080963746646E-01 -1.067532246093E-01
 -1.054267682072E-01 -1.041167978697E-01 -1.028231085922E-01 -1.015454979219E-01
 -1.002837659261E-01 -9.903771516070E-02 -9.780715063897E-02 -9.659187980120E-02
 -9.539171248427E-02 -9.420646089178E-02 -9.303593956457E-02 -9.187996535158E-02
 -9.073835738104E-02 -8.961093703207E-02 -8.849752790664E-02 -8.739795580182E-02
 -8.631204868243E-02 -8.523963665406E-02 -8.418055193631E-02 -8.313462883651E-02
 -8.210170372365E-02 -8.108161500271E-02 -8.007420308930E-02 -7.907931038456E-02
 -7.809678125046E-02 -7.712646198533E-02 -7.616820079978E-02 -7.522184779282E-02
 -7.428725492836E-02 -7.336427601197E-02 -7.245276666792E-02 -7.155258431656E-02
 -7.066358815190E-02 -6.978563911956E-02 -6.891859989489E-02 -6.806233486150E-02
 -6.721671008991E-02 -6.638159331658E-02 -6.555685392316E-02 -6.474236291597E-02
 -6.393799290579E-02 -6.314361808788E-02 -6.235911422225E-02 -6.158435861413E-02
 -6.081923009480E-02 -6.006360900251E-02 -5.931737716379E-02 -5.858041787486E-02
 -5.785261588335E-02 -5.713385737025E-02 -5.642402993201E-02 -5.572302256300E-02
 -5.503072563800E-02 -5.434703089512E-02 -5.367183141874E-02 -5.300502162283E-02
 -5.234649723432E-02 -5.169615527682E-02 -5.105389405443E-02 -5.041961313584E-02
</data>
</radfunc>
</slps>
</semilocal-potentials>
<pseudo-wave-functions set="scalar_relativistic">
<pswf n="1" l="s" energy_level="-0.251619252762">
<radfunc>
<data>
  1.978004170825E+00  1.976837724182E+00  1.972407588296E+00  1.965233343578E+00
  1.955993650682E+00  1.945578606911E+00  1.934381934569E+00  1.923410694156E+00
  1.913115735324E+00  1.902746062032E+00  1.892551284140E+00  1.881347152415E+00
  1.870642729711E+00  1.860745629034E+00  1.850135527583E+00  1.838765910097E+00
  1.828675949174E+00  1.817995377427E+00  1.806693802729E+00  1.797184364101E+00
  1.787240914693E+00  1.776846589759E+00  1.765984188777E+00  1.754636207160E+00
  1.742784873616E+00  1.733555230976E+00  1.724024676748E+00  1.714185511670E+00
  1.704030009826E+00  1.693550434895E+00  1.682739057941E+00  1.671588176809E+00
  1.660090137215E+00  1.648237355598E+00  1.636022343814E+00  1.623437735737E+00
  1.614839095408E+00  1.606070884905E+00  1.597131049713E+00  1.588017579758E+00
  1.578728514040E+00  1.569261945443E+00  1.559616025733E+00  1.549788970753E+00
  1.539779065793E+00  1.529584671153E+00  1.519204227890E+00  1.508636263741E+00
  1.497879399222E+00  1.486932353851E+00  1.475793952069E+00  1.464463130119E+00
  1.452938943267E+00  1.441220572870E+00  1.429307333590E+00  1.417198680750E+00
  1.404894217831E+00  1.392393704089E+00  1.379697062264E+00  1.366804386385E+00
  1.353715949620E+00  1.340432212170E+00  1.326953829165E+00  1.313281658542E+00
  1.306373228360E+00  1.299416768862E+00  1.292412447799E+00  1.285360447040E+00
  1.278260962816E+00  1.271114205944E+00  1.263920402057E+00  1.256679791828E+00
  1.249392631190E+00  1.242059191553E+00  1.234679760011E+00  1.227254639553E+00
  1.219784149259E+00  1.212268624429E+00  1.204708416571E+00  1.197103893705E+00
  1.189455440893E+00  1.181763460358E+00  1.174028371658E+00  1.166250611967E+00
  1.158430636228E+00  1.150568917357E+00  1.142665946425E+00  1.134722232829E+00
  1.126738304464E+00  1.118714707869E+00  1.110652008381E+00  1.102550790261E+00
  1.094411656821E+00  1.086235230527E+00  1.078022153100E+00  1.069773085591E+00
  1.061488708453E+00  1.053169721589E+00  1.044816844385E+00  1.036430815731E+00
  1.028012394024E+00  1.019562357144E+00  1.011081502427E+00  1.002570646611E+00
  9.940306257551E-01  9.854622951542E-01  9.768665289547E-01  9.682442196761E-01
  9.595962789629E-01  9.509236378242E-01  9.422272462713E-01  9.335080739879E-01
  9.247671098691E-01  9.160053618184E-01  9.072238568729E-01  8.984236409024E-01
  8.896057785037E-01  8.807713527853E-01  8.719214651339E-01  8.630572349459E-01
  8.541797993258E-01  8.452903127489E-01  8.363899466902E-01  8.274798892193E-01
  8.185613445629E-01  8.096355326319E-01  8.007036885153E-01  7.917670619583E-01
  7.828269164562E-01  7.738845281542E-01  7.649411866810E-01  7.559981958683E-01
  7.470568729748E-01  7.381185485296E-01  7.291845660737E-01  7.202562816883E-01
  7.113350635010E-01  7.024222911405E-01  6.935193550998E-01  6.846276560483E-01
  6.757486040790E-01  6.668836178989E-01  6.580341239677E-01  6.492015555888E-01
  6.403873519542E-01  6.315929571620E-01  6.228198190615E-01  6.140693876500E-01
  6.053431147746E-01  5.966424562010E-01  5.879688710561E-01  5.793238208163E-01
  5.707087695038E-01  5.621251825597E-01  5.535745260178E-01  5.450582655815E-01
  5.365778654701E-01  5.281347872523E-01  5.197304885738E-01  5.113664218319E-01
  5.030440328008E-01  4.947647592365E-01  4.865300294137E-01  4.783412603212E-01
  4.701998571756E-01  4.621072160378E-01  4.540647236132E-01  4.460737559845E-01
  4.381356785073E-01  4.302518444025E-01  4.224235935910E-01  4.146522512511E-01
  4.069391262762E-01  3.992855096487E-01  3.916926727708E-01  3.841618657807E-01
  3.766943158997E-01  3.692912257447E-01  3.619537718659E-01  3.546831054595E-01
  3.474803547370E-01  3.403466241719E-01  3.332829933860E-01  3.262905165905E-01
  3.193702208880E-01  3.125231048372E-01  3.057501367514E-01  2.990522529866E-01
  2.924303562216E-01  2.858853138249E-01  2.794179563540E-01  2.730290761475E-01
  2.667194263195E-01  2.604897217926E-01  2.543406406904E-01  2.482728241954E-01
  2.422868760296E-01  2.363833615537E-01  2.305628066001E-01  2.248256962479E-01
  2.191724736347E-01  2.136035388661E-01  2.081192479040E-01  2.027199115035E-01
  1.974057950283E-01  1.921771174608E-01  1.870340510016E-01  1.819767225501E-01
  1.770052147108E-01  1.721195662898E-01  1.673197725762E-01  1.626057852746E-01
  1.579775126358E-01  1.534348194461E-01  1.489775268534E-01  1.446054125648E-01
  1.403182111344E-01  1.361156143062E-01  1.319972717100E-01  1.279627915235E-01
  1.240117412099E-01  1.201436485859E-01  1.163580032492E-01  1.126542574109E-01
  1.090318270360E-01  1.054900940540E-01  1.020284076983E-01  9.864608533743E-02
  9.534241368309E-02  9.211665010169E-02  8.896802411982E-02  8.589573871331E-02
  8.289897162733E-02  7.997687698313E-02  7.712858675287E-02  7.435321217303E-02
  7.164984514079E-02  6.901755974149E-02  6.645541362739E-02  6.396244927692E-02
  6.153769533184E-02  5.918016789302E-02  5.688887168123E-02  5.466280116997E-02
  5.250094166998E-02  5.040227028840E-02  4.836575684067E-02  4.639036461976E-02
  4.447505108500E-02  4.261876857725E-02  4.082046488976E-02  3.907908366755E-02
  3.739356500340E-02  3.576284606392E-02  3.418586174511E-02  3.266154464480E-02