Siesta Version  : v4.1.5-1-g384057250
Architecture    : gcc
Compiler version: GNU Fortran (Ubuntu 11.3.0-1ubuntu1~22.04) 11.3.0
Compiler flags  : mpifort -O2 -fPIC -ftree-vectorize -fallow-argument-mismatch
PP flags        : -DFC_HAVE_ABORT -DMPI -DSIESTA__FLOOK -DSIESTA__METIS -DSIESTA__MUMPS -DCDF -DNCDF -DNCDF_4 -DNCDF_PARALLEL -DSIESTA__MRRR -DSIESTA__ELPA
Libraries       : libncdf.a libfdict.a  -lflookall -ldl -lnetcdff -lnetcdf -lhdf5_hl -lhdf5 -lhdf5_fortran -lz -lscalapack-openmpi -lopenblas -lmetis -lzmumps -lcmumps -ldmumps -lmumps_common -lpord -lsmumps -lesmumps -lscotch -lscotcherr -fopenmp -lelpa
PARALLEL version
NetCDF support
NetCDF-4 support
NetCDF-4 MPI-IO support
METIS ordering support
Lua support

* Running on 4 nodes in parallel
>> Start of run:  28-JUN-2023  20:27:02

                           ***********************       
                           *  WELCOME TO SIESTA  *       
                           ***********************       

reinit: Reading from standard input
reinit: Dumped input in INPUT_TMP.79813
************************** Dump of input data file ****************************
SystemLabel      GC
NumberOfAtoms    29
NumberOfSpecies  4
%block ChemicalSpeciesLabel
    1    8  O
    2    7  N
    3   14  Si
    4    1  H
%endblock ChemicalSpeciesLabel
# Single point calculation
MD.TypeOfRun                CG
MD.Steps                    0
SCF.MustConverge            F # In case it does not. There can be 2 very close atoms
AtomicCoordinatesFormat NotScaledCartesianAng
%block AtomicCoordinatesAndAtomicSpecies
1.043624880    3.939228610    0.000000000       1
-3.040641290   1.071078170    0.000000000       2
2.054601450    1.213582070    0.000000000       2
0.999014100    -1.732643800   0.000000000       2
-2.132351640   -1.812968220   0.000000000       2
3.860190550    -1.112298180   0.000000000       2
-1.236183220   1.152964460    0.000000000       3
-0.532924260   -0.939006270   0.000000000       3
0.635660470    2.374516770    0.000000000       3
2.245170240    -0.549967100   0.000000000       3
-3.449816660   -0.583665030   0.000000000       3
2.963714090    1.790992630    0.000000000       4
-4.845591350   -1.123549660   0.000000000       4
4.007020910    -2.152308560   0.000000000       4
4.772194380    -0.502318160   0.000000000       4
-2.265399090   -2.864605110   0.000000000       4
7.515677370    6.661035387    0.000000000       3
9.420561340    7.867674327    0.000000000       3
8.924807200    3.894700417    0.000000000       3
11.002277490   6.363917577    0.000000000       3
7.575300040    4.943607817    0.000000000       2
5.976542310    7.414712697    0.000000000       2
10.577102460   4.624537637    0.000000000       2
9.611906140    9.359828077    0.000000000       4
12.486645470   6.582648397    0.000000000       4
5.865197030    8.463907807    0.000000000       4
5.043984600    6.789798517    0.000000000       4
8.914580370    2.286589297    0.000000000       1
11.352528340   3.897846077    0.000000000       4
%endblock AtomicCoordinatesAndAtomicSpecies
%include ../../../Defaults.fdf
************************** End of input data file *****************************

reinit: -----------------------------------------------------------------------
reinit: System Name: 
reinit: -----------------------------------------------------------------------
reinit: System Label: GC
reinit: -----------------------------------------------------------------------

initatom: Reading input for the pseudopotentials and atomic orbitals ----------
Species number:   1 Atomic number:    8 Label: O
Species number:   2 Atomic number:    7 Label: N
Species number:   3 Atomic number:   14 Label: Si
Species number:   4 Atomic number:    1 Label: H

Ground state valence configuration:   2s02  2p04
Reading pseudopotential information in formatted form from O.psf

Pseudopotential generated from a relativistic atomic calculation

Valence configuration for pseudopotential generation:
2s( 2.00) rc: 0.45
2p( 4.00) rc: 0.92
3d( 0.00) rc: 2.24
4f( 0.00) rc: 0.25
Ground state valence configuration:   2s02  2p03
Reading pseudopotential information in formatted form from N.psf

Pseudopotential generated from a relativistic atomic calculation

Valence configuration for pseudopotential generation:
2s( 2.00) rc: 0.94
2p( 3.00) rc: 0.59
3d( 0.00) rc: 3.46
4f( 0.00) rc: 2.47
Ground state valence configuration:   3s02  3p02
Reading pseudopotential information in formatted form from Si.psf

Pseudopotential generated from a relativistic atomic calculation

Valence configuration for pseudopotential generation:
3s( 2.00) rc: 1.67
3p( 2.00) rc: 2.04
3d( 0.00) rc: 2.89
4f( 0.00) rc: 2.49
Ground state valence configuration:   1s01
Reading pseudopotential information in formatted form from H.psf

Pseudopotential generated from a relativistic atomic calculation

Valence configuration for pseudopotential generation:
1s( 1.00) rc: 0.01
2p( 0.00) rc: 0.60
3d( 0.00) rc: 1.99
4f( 0.00) rc: 2.49
For O, standard SIESTA heuristics set lmxkb to 3
 (one more than the basis l, including polarization orbitals).
Use PS.lmax or PS.KBprojectors blocks to override.
For N, standard SIESTA heuristics set lmxkb to 3
 (one more than the basis l, including polarization orbitals).
Use PS.lmax or PS.KBprojectors blocks to override.
For Si, standard SIESTA heuristics set lmxkb to 3
 (one more than the basis l, including polarization orbitals).
Use PS.lmax or PS.KBprojectors blocks to override.
For H, standard SIESTA heuristics set lmxkb to 2
 (one more than the basis l, including polarization orbitals).
Use PS.lmax or PS.KBprojectors blocks to override.

<basis_specs>
===============================================================================
O                    Z=   8    Mass=  16.000        Charge= 0.17977+309
Lmxo=1 Lmxkb= 3    BasisType=split      Semic=F
L=0  Nsemic=0  Cnfigmx=2
          i=1  nzeta=2  polorb=0  (2s)
            splnorm:   0.28000    
               vcte:    0.0000    
               rinn:    0.0000    
               qcoe:    0.0000    
               qyuk:    0.0000    
               qwid:   0.10000E-01
                rcs:    0.0000      0.0000    
            lambdas:    1.0000      1.0000    
L=1  Nsemic=0  Cnfigmx=2
          i=1  nzeta=2  polorb=1  (2p)
            splnorm:   0.28000    
               vcte:    0.0000    
               rinn:    0.0000    
               qcoe:    0.0000    
               qyuk:    0.0000    
               qwid:   0.10000E-01
                rcs:    0.0000      0.0000    
            lambdas:    1.0000      1.0000    
-------------------------------------------------------------------------------
L=0  Nkbl=1  erefs: 0.17977+309
L=1  Nkbl=1  erefs: 0.17977+309
L=2  Nkbl=1  erefs: 0.17977+309
L=3  Nkbl=1  erefs: 0.17977+309
===============================================================================
</basis_specs>

atom: Called for O                     (Z =   8)

read_vps: Pseudopotential generation method:
read_vps: ATM4.2.7  Troullier-Martins                       
Valence charge for ps generation:    6.00000

xc_check: Exchange-correlation functional:
xc_check: GGA Perdew, Burke & Ernzerhof 1996
V l=0 = -2*Zval/r beyond r=  1.1000
V l=1 = -2*Zval/r beyond r=  1.1000
V l=2 = -2*Zval/r beyond r=  2.2154
V l=3 = -2*Zval/r beyond r=  1.1000
All V_l potentials equal beyond r=  2.2154
This should be close to max(r_c) in ps generation
All pots = -2*Zval/r beyond r=  2.2154

VLOCAL1: 99.0% of the norm of Vloc inside      8.845 Ry
VLOCAL1: 99.9% of the norm of Vloc inside     20.157 Ry
atom: Maximum radius for 4*pi*r*r*local-pseudopot. charge    2.67231
atom: Maximum radius for r*vlocal+2*Zval:    2.32897
GHOST: No ghost state for L =  0
GHOST: No ghost state for L =  1
GHOST: No ghost state for L =  2
GHOST: No ghost state for L =  3

KBgen: Kleinman-Bylander projectors: 
   l= 0   rc=  2.243238   el= -1.759686   Ekb=**********   kbcos= -0.171774
   l= 1   rc=  2.328968   el= -0.663873   Ekb=-14.506792   kbcos= -0.519897
   l= 2   rc=  2.573941   el=  0.002031   Ekb= -1.137373   kbcos= -0.019581
   l= 3   rc=  2.606321   el=  0.003153   Ekb= -1.013546   kbcos= -0.003122

KBgen: Total number of Kleinman-Bylander projectors:   16
atom: -------------------------------------------------------------------------

atom: SANKEY-TYPE ORBITALS:
atom: Selected multiple-zeta basis: split     

SPLIT: Orbitals with angular momentum L= 0

SPLIT: Basis orbitals for state 2s

SPLIT: PAO cut-off radius determined from an
SPLIT: energy shift=  0.002000 Ry

   izeta = 1
                 lambda =    1.000000
                     rc =    4.243912
                 energy =   -1.758270
                kinetic =    3.286084
    potential(screened) =   -5.044353
       potential(ionic) =  -12.921184

   izeta = 2
                 rmatch =    2.187845
              splitnorm =    0.280000
                 energy =   -0.885018
                kinetic =    8.134434
    potential(screened) =   -9.019452
       potential(ionic) =  -17.710645

SPLIT: Orbitals with angular momentum L= 1

SPLIT: Basis orbitals for state 2p

SPLIT: PAO cut-off radius determined from an
SPLIT: energy shift=  0.002000 Ry

   izeta = 1
                 lambda =    1.000000
                     rc =    5.314825
                 energy =   -0.661986
                kinetic =    4.917472
    potential(screened) =   -5.579458
       potential(ionic) =  -13.236259

   izeta = 2
                 rmatch =    2.160663
              splitnorm =    0.280000
                 energy =   -0.068760
                kinetic =    9.183374
    potential(screened) =   -9.252135
       potential(ionic) =  -18.274251

POLgen: Perturbative polarization orbital with L=  2

POLgen: Polarization orbital for state 2p

   izeta = 1
                     rc =    5.314825
                 energy =    1.970580
                kinetic =    3.886128
    potential(screened) =   -1.915547
       potential(ionic) =   -7.749584
atom: Total number of Sankey-type orbitals: 13

atm_pop: Valence configuration (for local Pseudopot. screening):
 2s( 2.00)                                                            
 2p( 4.00)                                                            
Vna: chval, zval:    6.00000   6.00000

Vna:  Cut-off radius for the neutral-atom potential:   5.314825

atom: _________________________________________________________________________

<basis_specs>
===============================================================================
N                    Z=   7    Mass=  14.010        Charge= 0.17977+309
Lmxo=1 Lmxkb= 3    BasisType=split      Semic=F
L=0  Nsemic=0  Cnfigmx=2
          i=1  nzeta=2  polorb=0  (2s)
            splnorm:   0.28000    
               vcte:    0.0000    
               rinn:    0.0000    
               qcoe:    0.0000    
               qyuk:    0.0000    
               qwid:   0.10000E-01
                rcs:    0.0000      0.0000    
            lambdas:    1.0000      1.0000    
L=1  Nsemic=0  Cnfigmx=2
          i=1  nzeta=2  polorb=1  (2p)
            splnorm:   0.28000    
               vcte:    0.0000    
               rinn:    0.0000    
               qcoe:    0.0000    
               qyuk:    0.0000    
               qwid:   0.10000E-01
                rcs:    0.0000      0.0000    
            lambdas:    1.0000      1.0000    
-------------------------------------------------------------------------------
L=0  Nkbl=1  erefs: 0.17977+309
L=1  Nkbl=1  erefs: 0.17977+309
L=2  Nkbl=1  erefs: 0.17977+309
L=3  Nkbl=1  erefs: 0.17977+309
===============================================================================
</basis_specs>

atom: Called for N                     (Z =   7)

read_vps: Pseudopotential generation method:
read_vps: ATM4.2.7  Troullier-Martins                       
Valence charge for ps generation:    5.00000

xc_check: Exchange-correlation functional:
xc_check: GGA Perdew, Burke & Ernzerhof 1996
V l=0 = -2*Zval/r beyond r=  1.2889
V l=1 = -2*Zval/r beyond r=  1.2889
V l=2 = -2*Zval/r beyond r=  3.4178
V l=3 = -2*Zval/r beyond r=  2.4084
All V_l potentials equal beyond r=  3.3753
This should be close to max(r_c) in ps generation
All pots = -2*Zval/r beyond r=  3.4178

VLOCAL1: 99.0% of the norm of Vloc inside      3.810 Ry
VLOCAL1: 99.9% of the norm of Vloc inside      8.683 Ry
atom: Maximum radius for 4*pi*r*r*local-pseudopot. charge    4.02088
atom: Maximum radius for r*vlocal+2*Zval:    3.54838
GHOST: No ghost state for L =  0
GHOST: No ghost state for L =  1
GHOST: No ghost state for L =  2
GHOST: No ghost state for L =  3

KBgen: Kleinman-Bylander projectors: 
   l= 0   rc=  3.417763   el= -1.365098   Ekb= -4.433130   kbcos= -0.707855
   l= 1   rc=  3.375302   el= -0.521201   Ekb=-13.264039   kbcos= -0.535594
   l= 2   rc=  3.872880   el=  0.001991   Ekb= -0.641094   kbcos= -0.062456
   l= 3   rc=  3.970931   el=  0.003093   Ekb= -0.474517   kbcos= -0.018236

KBgen: Total number of Kleinman-Bylander projectors:   16
atom: -------------------------------------------------------------------------

atom: SANKEY-TYPE ORBITALS:
atom: Selected multiple-zeta basis: split     

SPLIT: Orbitals with angular momentum L= 0

SPLIT: Basis orbitals for state 2s

SPLIT: PAO cut-off radius determined from an
SPLIT: energy shift=  0.002000 Ry

   izeta = 1
                 lambda =    1.000000
                     rc =    4.730425
                 energy =   -1.363399
                kinetic =    1.245246
    potential(screened) =   -2.608645
       potential(ionic) =   -8.121105

   izeta = 2
                 rmatch =    2.531849
              splitnorm =    0.280000
                 energy =   -0.959908
                kinetic =    2.409435
    potential(screened) =   -3.369343
       potential(ionic) =   -9.427975

SPLIT: Orbitals with angular momentum L= 1

SPLIT: Basis orbitals for state 2p

SPLIT: PAO cut-off radius determined from an
SPLIT: energy shift=  0.002000 Ry

   izeta = 1
                 lambda =    1.000000
                     rc =    5.924108
                 energy =   -0.519262
                kinetic =    3.672940
    potential(screened) =   -4.192202
       potential(ionic) =   -9.518354

   izeta = 2
                 rmatch =    2.531849
              splitnorm =    0.280000
                 energy =   -0.104258
                kinetic =    6.807538
    potential(screened) =   -6.911796
       potential(ionic) =  -13.149920

POLgen: Perturbative polarization orbital with L=  2

POLgen: Polarization orbital for state 2p

   izeta = 1
                     rc =    5.924108
                 energy =    1.427508
                kinetic =    2.872379
    potential(screened) =   -1.444871
       potential(ionic) =   -5.563644
atom: Total number of Sankey-type orbitals: 13

atm_pop: Valence configuration (for local Pseudopot. screening):
 2s( 2.00)                                                            
 2p( 3.00)                                                            
Vna: chval, zval:    5.00000   5.00000

Vna:  Cut-off radius for the neutral-atom potential:   5.924108

atom: _________________________________________________________________________

<basis_specs>
===============================================================================
Si                   Z=  14    Mass=  28.090        Charge= 0.17977+309
Lmxo=1 Lmxkb= 3    BasisType=split      Semic=F
L=0  Nsemic=0  Cnfigmx=3
          i=1  nzeta=2  polorb=0  (3s)
            splnorm:   0.28000    
               vcte:    0.0000    
               rinn:    0.0000    
               qcoe:    0.0000    
               qyuk:    0.0000    
               qwid:   0.10000E-01
                rcs:    0.0000      0.0000    
            lambdas:    1.0000      1.0000    
L=1  Nsemic=0  Cnfigmx=3
          i=1  nzeta=2  polorb=1  (3p)
            splnorm:   0.28000    
               vcte:    0.0000    
               rinn:    0.0000    
               qcoe:    0.0000    
               qyuk:    0.0000    
               qwid:   0.10000E-01
                rcs:    0.0000      0.0000    
            lambdas:    1.0000      1.0000    
-------------------------------------------------------------------------------
L=0  Nkbl=1  erefs: 0.17977+309
L=1  Nkbl=1  erefs: 0.17977+309
L=2  Nkbl=1  erefs: 0.17977+309
L=3  Nkbl=1  erefs: 0.17977+309
===============================================================================
</basis_specs>

atom: Called for Si                    (Z =  14)

read_vps: Pseudopotential generation method:
read_vps: ATM4.2.7  Troullier-Martins                       
Valence charge for ps generation:    4.00000

xc_check: Exchange-correlation functional:
xc_check: GGA Perdew, Burke & Ernzerhof 1996
V l=0 = -2*Zval/r beyond r=  2.7826
V l=1 = -2*Zval/r beyond r=  2.7826
V l=2 = -2*Zval/r beyond r=  2.9253
V l=3 = -2*Zval/r beyond r=  2.7826
All V_l potentials equal beyond r=  2.8530
This should be close to max(r_c) in ps generation
All pots = -2*Zval/r beyond r=  2.9253

VLOCAL1: 99.0% of the norm of Vloc inside      5.333 Ry
VLOCAL1: 99.9% of the norm of Vloc inside     12.154 Ry
atom: Maximum radius for 4*pi*r*r*local-pseudopot. charge    3.39869
atom: Maximum radius for r*vlocal+2*Zval:    2.96205
GHOST: No ghost state for L =  0
GHOST: No ghost state for L =  1
GHOST: No ghost state for L =  2
GHOST: No ghost state for L =  3

KBgen: Kleinman-Bylander projectors: 
   l= 0   rc=  3.075247   el= -0.794092   Ekb=  5.879390   kbcos=  0.167461
   l= 1   rc=  3.153101   el= -0.300068   Ekb=  2.642817   kbcos=  0.058301
   l= 2   rc=  3.273594   el=  0.001958   Ekb= -1.185135   kbcos= -0.104411
   l= 3   rc=  3.232927   el=  0.003046   Ekb= -0.497174   kbcos= -0.015889

KBgen: Total number of Kleinman-Bylander projectors:   16
atom: -------------------------------------------------------------------------

atom: SANKEY-TYPE ORBITALS:
atom: Selected multiple-zeta basis: split     

SPLIT: Orbitals with angular momentum L= 0

SPLIT: Basis orbitals for state 3s

SPLIT: PAO cut-off radius determined from an
SPLIT: energy shift=  0.002000 Ry

   izeta = 1
                 lambda =    1.000000
                     rc =    6.429618
                 energy =   -0.792283
                kinetic =    0.525293
    potential(screened) =   -1.317576
       potential(ionic) =   -3.744923

   izeta = 2
                 rmatch =    3.998416
              splitnorm =    0.280000
                 energy =   -0.583081
                kinetic =    1.069570
    potential(screened) =   -1.652651
       potential(ionic) =   -4.235185

SPLIT: Orbitals with angular momentum L= 1

SPLIT: Basis orbitals for state 3p

SPLIT: PAO cut-off radius determined from an
SPLIT: energy shift=  0.002000 Ry

   izeta = 1
                 lambda =    1.000000
                     rc =    8.464845
                 energy =   -0.298236
                kinetic =    0.785360
    potential(screened) =   -1.083596
       potential(ionic) =   -3.273779

   izeta = 2
                 rmatch =    4.587816
              splitnorm =    0.280000
                 energy =   -0.131871
                kinetic =    1.403687
    potential(screened) =   -1.535557
       potential(ionic) =   -4.015310

POLgen: Perturbative polarization orbital with L=  2

POLgen: Polarization orbital for state 3p

   izeta = 1
                     rc =    8.464845
                 energy =    0.321949
                kinetic =    1.055677
    potential(screened) =   -0.733728
       potential(ionic) =   -2.672950
atom: Total number of Sankey-type orbitals: 13

atm_pop: Valence configuration (for local Pseudopot. screening):
 3s( 2.00)                                                            
 3p( 2.00)                                                            
Vna: chval, zval:    4.00000   4.00000

Vna:  Cut-off radius for the neutral-atom potential:   8.464845

atom: _________________________________________________________________________

<basis_specs>
===============================================================================
H                    Z=   1    Mass=  1.0100        Charge= 0.17977+309
Lmxo=0 Lmxkb= 2    BasisType=split      Semic=F
L=0  Nsemic=0  Cnfigmx=1
          i=1  nzeta=2  polorb=1  (1s)
            splnorm:   0.62000    
               vcte:    0.0000    
               rinn:    0.0000    
               qcoe:    0.0000    
               qyuk:    0.0000    
               qwid:   0.10000E-01
                rcs:    0.0000      0.0000    
            lambdas:    1.0000      1.0000    
-------------------------------------------------------------------------------
L=0  Nkbl=1  erefs: 0.17977+309
L=1  Nkbl=1  erefs: 0.17977+309
L=2  Nkbl=1  erefs: 0.17977+309
===============================================================================
</basis_specs>

atom: Called for H                     (Z =   1)

read_vps: Pseudopotential generation method:
read_vps: ATM4.2.7  Troullier-Martins                       
Valence charge for ps generation:    1.00000

xc_check: Exchange-correlation functional:
xc_check: GGA Perdew, Burke & Ernzerhof 1996
V l=0 = -2*Zval/r beyond r=  0.0098
V l=1 = -2*Zval/r beyond r=  0.5817
V l=2 = -2*Zval/r beyond r=  1.9372
All V_l potentials equal beyond r=  1.9372
This should be close to max(r_c) in ps generation
All pots = -2*Zval/r beyond r=  1.9372

VLOCAL1: 99.0% of the norm of Vloc inside     11.567 Ry
VLOCAL1: 99.9% of the norm of Vloc inside     26.362 Ry
atom: Maximum radius for 4*pi*r*r*local-pseudopot. charge    2.25106
atom: Maximum radius for r*vlocal+2*Zval:    1.91306
GHOST: No ghost state for L =  0
GHOST: No ghost state for L =  1
GHOST: No ghost state for L =  2

KBgen: Kleinman-Bylander projectors: 
   l= 0   rc=  2.036604   el= -0.477180   Ekb= -6.081590   kbcos= -0.277285
   l= 1   rc=  2.195416   el=  0.001076   Ekb= -0.926943   kbcos= -0.034643
   l= 2   rc=  2.251056   el=  0.002010   Ekb= -0.130941   kbcos= -0.009788

KBgen: Total number of Kleinman-Bylander projectors:    9
atom: -------------------------------------------------------------------------

atom: SANKEY-TYPE ORBITALS:
atom: Selected multiple-zeta basis: split     

SPLIT: Orbitals with angular momentum L= 0

SPLIT: Basis orbitals for state 1s

SPLIT: PAO cut-off radius determined from an
SPLIT: energy shift=  0.002000 Ry

   izeta = 1
                 lambda =    1.000000
                     rc =    6.518340
                 energy =   -0.475305
                kinetic =    0.912139
    potential(screened) =   -1.387444
       potential(ionic) =   -1.907295

   izeta = 2
                 rmatch =    2.141150
              splitnorm =    0.620000
                 energy =    0.566467
                kinetic =    3.772856
    potential(screened) =   -3.206389
       potential(ionic) =   -3.759093

POLgen: Perturbative polarization orbital with L=  1

POLgen: Polarization orbital for state 1s

   izeta = 1
                     rc =    6.518340
                 energy =    0.533861
                kinetic =    1.121086
    potential(screened) =   -0.587225
       potential(ionic) =   -1.053027
atom: Total number of Sankey-type orbitals:  5

atm_pop: Valence configuration (for local Pseudopot. screening):
 1s( 1.00)                                                            
Vna: chval, zval:    1.00000   1.00000

Vna:  Cut-off radius for the neutral-atom potential:   6.518340

atom: _________________________________________________________________________

prinput: Basis input ----------------------------------------------------------

PAO.BasisType split     

%block ChemicalSpeciesLabel
    1    8 O                       # Species index, atomic number, species label
    2    7 N                       # Species index, atomic number, species label
    3   14 Si                      # Species index, atomic number, species label
    4    1 H                       # Species index, atomic number, species label
%endblock ChemicalSpeciesLabel

%block PAO.Basis                 # Define Basis set
O                     2                    # Species label, number of l-shells
 n=2   0   2                         # n, l, Nzeta 
   4.244      2.188   
   1.000      1.000   
 n=2   1   2 P   1                   # n, l, Nzeta, Polarization, NzetaPol
   5.315      2.161   
   1.000      1.000   
N                     2                    # Species label, number of l-shells
 n=2   0   2                         # n, l, Nzeta 
   4.730      2.532   
   1.000      1.000   
 n=2   1   2 P   1                   # n, l, Nzeta, Polarization, NzetaPol
   5.924      2.532   
   1.000      1.000   
Si                    2                    # Species label, number of l-shells
 n=3   0   2                         # n, l, Nzeta 
   6.430      3.998   
   1.000      1.000   
 n=3   1   2 P   1                   # n, l, Nzeta, Polarization, NzetaPol
   8.465      4.588   
   1.000      1.000   
H                     1                    # Species label, number of l-shells
 n=1   0   2 P   1                   # n, l, Nzeta, Polarization, NzetaPol
   6.518      2.141   
   1.000      1.000   
%endblock PAO.Basis

prinput: ----------------------------------------------------------------------

Dumping basis to NetCDF file O.ion.nc
Dumping basis to NetCDF file N.ion.nc
Dumping basis to NetCDF file Si.ion.nc
Dumping basis to NetCDF file H.ion.nc
coor:   Atomic-coordinates input format  =     Cartesian coordinates
coor:                                          (in Angstroms)

siesta: Atomic coordinates (Bohr) and species
siesta:      1.97217   7.44407   0.00000  1        1
siesta:     -5.74598   2.02405   0.00000  2        2
siesta:      3.88264   2.29334   0.00000  2        3
siesta:      1.88786  -3.27422   0.00000  2        4
siesta:     -4.02956  -3.42601   0.00000  2        5
siesta:      7.29471  -2.10194   0.00000  2        6
siesta:     -2.33605   2.17879   0.00000  3        7
siesta:     -1.00708  -1.77447   0.00000  3        8
siesta:      1.20122   4.48719   0.00000  3        9
siesta:      4.24276  -1.03929   0.00000  3       10
siesta:     -6.51921  -1.10297   0.00000  3       11
siesta:      5.60061   3.38449   0.00000  4       12
siesta:     -9.15684  -2.12320   0.00000  4       13
siesta:      7.57218  -4.06728   0.00000  4       14
siesta:      9.01814  -0.94924   0.00000  4       15
siesta:     -4.28099  -5.41332   0.00000  4       16
siesta:     14.20258  12.58754   0.00000  3       17
siesta:     17.80229  14.86776   0.00000  3       18
siesta:     16.86545   7.35992   0.00000  3       19
siesta:     20.79130  12.02607   0.00000  3       20
siesta:     14.31525   9.34207   0.00000  2       21
siesta:     11.29403  14.01178   0.00000  2       22
siesta:     19.98783   8.73911   0.00000  2       23
siesta:     18.16388  17.68752   0.00000  4       24
siesta:     23.59635  12.43941   0.00000  4       25
siesta:     11.08362  15.99447   0.00000  4       26
siesta:      9.53175  12.83086   0.00000  4       27
siesta:     16.84612   4.32103   0.00000  1       28
siesta:     21.45318   7.36586   0.00000  4       29

siesta: Automatic unit cell vectors (Ang):
siesta:   26.654043    0.000000    0.000000
siesta:    0.000000   21.035459    0.000000
siesta:    0.000000    0.000000    9.854683

siesta: System type = molecule  

initatomlists: Number of atoms, orbitals, and projectors:     29   297   394

siesta: ******************** Simulation parameters ****************************
siesta:
siesta: The following are some of the parameters of the simulation.
siesta: A complete list of the parameters used, including default values,
siesta: can be found in file out.fdf
siesta:
redata: Spin configuration                          = spin-orbit
redata: Number of spin components                   = 8
redata: Time-Reversal Symmetry                      = F
redata: Spin spiral                                 = F
############################################################
This spin-orbit implementation uses a local approximation.
From 4.2 and onwards the full non-local approximation is implemented
You are strongly advised to use >=4.2 versions!
############################################################
redata: Long output                                 =   F
redata: Number of Atomic Species                    =        4
redata: Charge density info will appear in .RHO file
redata: Write Mulliken Pop.                         = Atomic and Orbital charges
redata: Matel table size (NRTAB)                    =     1024
redata: Mesh Cutoff                                 =   340.0000 Ry
redata: Net charge of the system                    =     0.0000 |e|
redata: Min. number of SCF Iter                     =        1
redata: Max. number of SCF Iter                     =      200
redata: SCF mix quantity                            = Hamiltonian
redata: Mix DM or H after convergence               =   F
redata: Recompute H after scf cycle                 =   F
redata: Mix DM in first SCF step                    =   T
redata: Write Pulay info on disk                    =   F
redata: New DM Occupancy tolerance                  = 0.000000000001
redata: No kicks to SCF
redata: DM Mixing Weight for Kicks                  =     0.5000
redata: Require Harris convergence for SCF          =   F
redata: Harris energy tolerance for SCF             =     0.000100 eV
redata: Require DM convergence for SCF              =   T
redata: DM tolerance for SCF                        =     0.000008
redata: Require EDM convergence for SCF             =   F
redata: EDM tolerance for SCF                       =     0.001000 eV
redata: Require H convergence for SCF               =   T
redata: Hamiltonian tolerance for SCF               =     0.000001 eV
redata: Require (free) Energy convergence for SCF   =   F
redata: (free) Energy tolerance for SCF             =     0.000100 eV
redata: Using Saved Data (generic)                  =   F
redata: Use continuation files for DM               =   F
redata: Neglect nonoverlap interactions             =   F
redata: Method of Calculation                       = Diagonalization
redata: Electronic Temperature                      =   299.9978 K
redata: Fix the spin of the system                  =   F
redata: Dynamics option                             = Single-point calculation
mix.SCF: Pulay mixing                            = Pulay
mix.SCF:    Variant                              = stable
mix.SCF:    History steps                        = 6
mix.SCF:    Linear mixing weight                 =     0.250000
mix.SCF:    Mixing weight                        =     0.250000
mix.SCF:    SVD condition                        = 0.1000E-07
mix.SCF:    Restart steps                        = 24
mix.SCF:    Restart save steps                   = 3
mix.SCF: Spin-component mixing                   all
redata: Save all siesta data in one NC              =   F
redata: ***********************************************************************

%block SCF.Mixers
  Pulay
%endblock SCF.Mixers

%block SCF.Mixer.Pulay
  # Mixing method
  method pulay
  variant stable

  # Mixing options
  weight 0.2500
  weight.linear 0.2500
  history 6
  restart 24
  restart.save 3
%endblock SCF.Mixer.Pulay

DM_history_depth set to one: no extrapolation allowed by default for geometry relaxation
Size of DM history Fstack: 1
Total number of electrons:    98.000000
Total ionic charge:    98.000000

* ProcessorY, Blocksize:    2  24


* Orbital distribution balance (max,min):    81    72


Time-reversal symmetry not used.

siesta: k-grid: Number of k-points =     1
siesta: k-grid: Cutoff (effective) =     4.927 Ang
siesta: k-grid: Supercell and displacements
siesta: k-grid:    1   0   0      0.000
siesta: k-grid:    0   1   0      0.000
siesta: k-grid:    0   0   1      0.000

diag: Algorithm                                     = ELPA-1stage
diag: Parallel over k                               =   F
diag: Use parallel 2D distribution                  =   T
diag: Parallel block-size                           = 24
diag: Parallel distribution                         =     2 x     2
diag: Used triangular part                          = Lower
diag: Absolute tolerance                            =  0.100E-15
diag: Orthogonalization factor                      =  0.100E-05
diag: Memory factor                                 =  1.0000


ts: **************************************************************
ts: Save H and S matrices                           =    F
ts: Save DM and EDM matrices                        =    F
ts: Only save the overlap matrix S                  =    F
ts: **************************************************************

************************ Begin: TS CHECKS AND WARNINGS ************************
************************ End: TS CHECKS AND WARNINGS **************************


                     ====================================
                        Single-point calculation
                     ====================================

outcoor: Atomic coordinates (Ang):                          
    1.04362488    3.93922861    0.00000000   1       1  O
   -3.04064129    1.07107817    0.00000000   2       2  N
    2.05460145    1.21358207    0.00000000   2       3  N
    0.99901410   -1.73264380    0.00000000   2       4  N
   -2.13235164   -1.81296822    0.00000000   2       5  N
    3.86019055   -1.11229818    0.00000000   2       6  N
   -1.23618322    1.15296446    0.00000000   3       7  Si
   -0.53292426   -0.93900627    0.00000000   3       8  Si
    0.63566047    2.37451677    0.00000000   3       9  Si
    2.24517024   -0.54996710    0.00000000   3      10  Si
   -3.44981666   -0.58366503    0.00000000   3      11  Si
    2.96371409    1.79099263    0.00000000   4      12  H
   -4.84559135   -1.12354966    0.00000000   4      13  H
    4.00702091   -2.15230856    0.00000000   4      14  H
    4.77219438   -0.50231816    0.00000000   4      15  H
   -2.26539909   -2.86460511    0.00000000   4      16  H
    7.51567737    6.66103539    0.00000000   3      17  Si
    9.42056134    7.86767433    0.00000000   3      18  Si
    8.92480720    3.89470042    0.00000000   3      19  Si
   11.00227749    6.36391758    0.00000000   3      20  Si
    7.57530004    4.94360782    0.00000000   2      21  N
    5.97654231    7.41471270    0.00000000   2      22  N
   10.57710246    4.62453764    0.00000000   2      23  N
    9.61190614    9.35982808    0.00000000   4      24  H
   12.48664547    6.58264840    0.00000000   4      25  H
    5.86519703    8.46390781    0.00000000   4      26  H
    5.04398460    6.78979852    0.00000000   4      27  H
    8.91458037    2.28658930    0.00000000   1      28  O
   11.35252834    3.89784608    0.00000000   4      29  H

outcell: Unit cell vectors (Ang):
       26.654043    0.000000    0.000000
        0.000000   21.035459    0.000000
        0.000000    0.000000    9.854683

outcell: Cell vector modules (Ang)   :   26.654043   21.035459    9.854683
outcell: Cell angles (23,13,12) (deg):     90.0000     90.0000     90.0000
outcell: Cell volume (Ang**3)        :   5525.3242
<dSpData1D:S at geom step 0
  <sparsity:sparsity for geom step 0
    nrows_g=297 nrows=81 sparsity=.1456 nnzs=12841, refcount: 8>
  <dData1D:(new from dSpData1D) n=12841, refcount: 1>
refcount: 1>
new_DM -- step:     1
Initializing Density Matrix...
DM filled with atomic data:
<dSpData2D:DM initialized from atoms
  <sparsity:sparsity for geom step 0
    nrows_g=297 nrows=81 sparsity=.1456 nnzs=12841, refcount: 9>
  <dData2D:DM n=12841 m=8, refcount: 1>
refcount: 1>
     spin moment: S , {S} =   56.00000   0.00000   0.00000  56.00000
No. of atoms with KB's overlaping orbs in proc 0. Max # of overlaps:      29     142

Initializing spin-orbit part of the Hamiltonian
  Adding spin-orbit effects for O 
  Adding spin-orbit effects for N 
  Adding spin-orbit effects for Si
  Adding spin-orbit effects for H 


New grid distribution:   1
           1       1:  150    1:   60    1:   30
           2       1:  150    1:   60   31:   60
           3       1:  150   61:  120    1:   30
           4       1:  150   61:  120   31:   60

InitMesh: MESH =   300 x   240 x   120 =     8640000
InitMesh: (bp) =   150 x   120 x    60 =     1080000
InitMesh: Mesh cutoff (required, used) =   340.000   350.121 Ry
ExtMesh (bp) on 0 =   254 x   164 x   142 =     5915152
New grid distribution:   2
           1      51:  150    1:   34    1:   60
           2       1:   50    1:   35    1:   60
           3      51:  150   35:  120    1:   60
           4       1:   50   36:  120    1:   60
New grid distribution:   3
           1      53:  150    1:   38    1:   60
           2       1:   52    1:   39    1:   60
           3      53:  150   39:  120    1:   60
           4       1:   52   40:  120    1:   60
Setting up quadratic distribution...
ExtMesh (bp) on 0 =   204 x   138 x   172 =     4842144
PhiOnMesh: Number of (b)points on node 0 =               204000
PhiOnMesh: nlist on node 0 =              2479511

stepf: Fermi-Dirac step function

siesta: Program's energy decomposition (eV):
siesta: Ebs     =      -621.320837
siesta: Eions   =      3585.165840
siesta: Ena     =       382.019159
siesta: Ekin    =      3369.952242
siesta: Enl     =     -3298.479182
siesta: Eso     =        -0.003411
siesta: Edftu   =         0.000000
siesta: DEna    =       153.683775
siesta: DUscf   =        81.834008
siesta: DUext   =         0.000000
siesta: Exc     =     -1204.259917
siesta: eta*DQ  =         0.000000
siesta: Emadel  =         0.000000
siesta: Emeta   =         0.000000
siesta: Emolmec =         0.000000
siesta: Ekinion =         0.000000
siesta: Eharris =     -4020.572634
siesta: Etot    =     -4100.419164
siesta: FreeEng =     -4100.420587

        iscf     Eharris(eV)        E_KS(eV)     FreeEng(eV)     dDmax    Ef(eV) dHmax(eV)
   scf:    1    -4020.572634    -4100.419164    -4100.420587  0.964921 -4.904557 21.863109
     spin moment: S , {S} =    2.00726  -0.00000   0.00000   2.00726
timer: Routine,Calls,Time,% = IterSCF        1      12.464  17.52
   scf:    2    -4147.242345    -4135.924753    -4135.926478  0.451351 -4.225018 11.631579
     spin moment: S , {S} =    1.98965   0.00000   0.00000   1.98965
   scf:    3    -4107.712054    -4133.487193    -4133.502118  0.421804 -4.334318 11.936076
     spin moment: S , {S} =    2.08164  -0.00000  -0.00000   2.08164
   scf:    4    -4149.662693    -4144.982149    -4144.982149  0.315295 -3.903382  7.142681
     spin moment: S , {S} =    0.00010   0.00000  -0.00000   0.00010
   scf:    5    -4146.317628    -4145.755004    -4145.755004  0.036302 -3.706235  4.553001
     spin moment: S , {S} =    0.00006  -0.00000  -0.00000   0.00006
   scf:    6    -4146.531742    -4146.152890    -4146.152890  0.024362 -3.570795  2.210740
     spin moment: S , {S} =    0.00003  -0.00000  -0.00000   0.00003
   scf:    7    -4146.506365    -4146.326148    -4146.326148  0.021408 -3.784458  0.885833
     spin moment: S , {S} =    0.00001  -0.00000  -0.00000   0.00001
   scf:    8    -4146.445842    -4146.383999    -4146.383999  0.012350 -3.714115  0.502849
     spin moment: S , {S} =    0.00000  -0.00000  -0.00000   0.00000
   scf:    9    -4146.422408    -4146.402524    -4146.402524  0.006502 -3.828123  0.378445
     spin moment: S , {S} =    0.00000   0.00000  -0.00000   0.00000
   scf:   10    -4146.453776    -4146.421952    -4146.421952  0.021490 -3.796368  0.226972
     spin moment: S , {S} =    0.00000  -0.00000   0.00000  -0.00000
   scf:   11    -4146.425681    -4146.423812    -4146.423812  0.005648 -3.783971  0.060136
     spin moment: S , {S} =    0.00000   0.00000   0.00000  -0.00000
   scf:   12    -4146.424908    -4146.424373    -4146.424373  0.000965 -3.779318  0.026464
     spin moment: S , {S} =    0.00000   0.00000   0.00000   0.00000
   scf:   13    -4146.424838    -4146.424603    -4146.424603  0.001266 -3.776410  0.017325
     spin moment: S , {S} =    0.00000  -0.00000   0.00000  -0.00000
   scf:   14    -4146.424854    -4146.424722    -4146.424722  0.001041 -3.774784  0.010925
     spin moment: S , {S} =    0.00000  -0.00000   0.00000  -0.00000
   scf:   15    -4146.424823    -4146.424769    -4146.424769  0.000865 -3.775150  0.008176
     spin moment: S , {S} =    0.00000  -0.00000   0.00000   0.00000
   scf:   16    -4146.424843    -4146.424801    -4146.424801  0.000977 -3.774558  0.005539
     spin moment: S , {S} =    0.00000   0.00000  -0.00000   0.00000
   scf:   17    -4146.424818    -4146.424809    -4146.424809  0.000424 -3.774534  0.004209
     spin moment: S , {S} =    0.00000   0.00000  -0.00000   0.00000
   scf:   18    -4146.424818    -4146.424813    -4146.424813  0.000344 -3.774742  0.002567
     spin moment: S , {S} =    0.00000   0.00000  -0.00000   0.00000
   scf:   19    -4146.424818    -4146.424815    -4146.424815  0.000254 -3.774891  0.001683
     spin moment: S , {S} =    0.00000   0.00000  -0.00000   0.00000
   scf:   20    -4146.424818    -4146.424816    -4146.424816  0.000189 -3.774892  0.000987
     spin moment: S , {S} =    0.00000  -0.00000  -0.00000   0.00000
   scf:   21    -4146.424818    -4146.424817    -4146.424817  0.000164 -3.774867  0.000399
     spin moment: S , {S} =    0.00000   0.00000  -0.00000   0.00000
   scf:   22    -4146.424817    -4146.424817    -4146.424817  0.000071 -3.774835  0.000170
     spin moment: S , {S} =    0.00000   0.00000  -0.00000   0.00000
   scf:   23    -4146.424817    -4146.424817    -4146.424817  0.000018 -3.774832  0.000119
     spin moment: S , {S} =    0.00000   0.00000  -0.00000   0.00000
   scf:   24    -4146.424817    -4146.424817    -4146.424817  0.000006 -3.774834  0.000057
     spin moment: S , {S} =    0.00000   0.00000  -0.00000   0.00000
mix: Pulay -- resetting history
   scf:   25    -4146.424817    -4146.424817    -4146.424817  0.000004 -3.774835  0.000034
     spin moment: S , {S} =    0.00000   0.00000  -0.00000   0.00000
   scf:   26    -4146.424817    -4146.424817    -4146.424817  0.000002 -3.774834  0.000027
     spin moment: S , {S} =    0.00000   0.00000  -0.00000   0.00000
   scf:   27    -4146.424817    -4146.424817    -4146.424817  0.000002 -3.774831  0.000015
     spin moment: S , {S} =    0.00000   0.00000  -0.00000   0.00000
   scf:   28    -4146.424817    -4146.424817    -4146.424817  0.000001 -3.774830  0.000009
     spin moment: S , {S} =    0.00000   0.00000  -0.00000   0.00000
   scf:   29    -4146.424817    -4146.424817    -4146.424817  0.000001 -3.774830  0.000005
     spin moment: S , {S} =    0.00000   0.00000  -0.00000   0.00000
   scf:   30    -4146.424817    -4146.424817    -4146.424817  0.000001 -3.774830  0.000003
     spin moment: S , {S} =    0.00000   0.00000  -0.00000   0.00000
   scf:   31    -4146.424817    -4146.424817    -4146.424817  0.000000 -3.774830  0.000001
     spin moment: S , {S} =    0.00000   0.00000  -0.00000   0.00000
   scf:   32    -4146.424817    -4146.424817    -4146.424817  0.000000 -3.774830  0.000001
     spin moment: S , {S} =    0.00000   0.00000  -0.00000   0.00000

SCF Convergence by DM+H criterion
max |DM_out - DM_in|         :     0.0000001778
max |H_out - H_in|      (eV) :     0.0000007772
SCF cycle converged after 32 iterations

Using DM_out to compute the final energy and forces
No. of atoms with KB's overlaping orbs in proc 0. Max # of overlaps:      29     142

siesta: E_KS(eV) =            -4146.4248

siesta: E_KS - E_eggbox =     -4146.4248
     spin moment: S , {S} =    0.00000   0.00000  -0.00000   0.00000

siesta: Atomic forces (eV/Ang):
     1    2.552539    0.035029    0.000000
     2   -0.006782    0.038752   -0.000000
     3    0.799088   -0.424094   -0.000000
     4    0.760819   -0.016223   -0.000000
     5    0.048735   -0.086977    0.000000
     6    1.814419    0.669076    0.000000
     7    0.042318   -0.260981    0.000000
     8   -0.429831    0.297290    0.000000
     9   -0.201618    1.286769   -0.000000
    10   -1.067073    0.368864   -0.000000
    11   -0.023998   -0.020135    0.000000
    12   -0.385880   -0.226931   -0.000000
    13    0.012966   -0.024912   -0.000000
    14    0.190184   -0.096994   -0.000000
    15   -1.291136   -0.936422    0.000000
    16   -0.062907    0.109737   -0.000000
    17    1.049099   -1.134157   -0.000000
    18   -0.222754    0.204247    0.000000
    19   -0.188178   -1.282555   -0.000000
    20   -0.012559   -0.431977   -0.000000
    21   -0.318178    1.076941    0.000000
    22   -2.211372   -0.894626   -0.000000
    23    0.273146    0.553019    0.000000
    24    0.037782    0.028134   -0.000000
    25    0.091211    0.007190   -0.000000
    26   -0.264939   -0.160191    0.000000
    27    1.696310    1.368750    0.000000
    28   -2.190801   -0.943765   -0.000000
    29   -0.031257    0.092950    0.000000
----------------------------------------
   Tot    0.459351   -0.804192    0.000000
----------------------------------------
   Max    2.552539
   Res    0.678250    sqrt( Sum f_i^2 / 3N )
----------------------------------------
   Max    2.552539    constrained

Stress tensor Voigt[x,y,z,yz,xz,xy] (kbar):        0.12        1.28       -0.10        0.00       -0.00        1.35
(Free)E + p*V (eV/cell)    -4147.9208
Target enthalpy (eV/cell)    -4146.4248

mulliken: Atomic and Orbital Populations:

Species: O                   

Atom      Orb        Charge      Spin       Svec
----------------------------------------------------------------
    1  1 2s         1.74698   0.00000      0.000   0.000  -0.000
    1  2 2s         0.06715   0.00000      0.000  -0.000   0.000
    1  3 2py        1.42643   0.00000      0.000   0.000  -0.000
    1  4 2pz        1.54435   0.00000     -0.000  -0.000  -0.000
    1  5 2px        1.62487   0.00000     -0.000  -0.000  -0.000
    1  6 2py        0.03823   0.00000     -0.000   0.000   0.000
    1  7 2pz       -0.00568   0.00000      0.000   0.000   0.000
    1  8 2px        0.00624   0.00000      0.000  -0.000   0.000
    1  9 3Pdxy      0.00703   0.00000     -0.000   0.000   0.000
    1 10 3Pdyz      0.00904   0.00000      0.000  -0.000   0.000
    1 11 3Pdz2      0.00159   0.00000     -0.000  -0.000   0.000
    1 12 3Pdxz      0.00038   0.00000     -0.000   0.000   0.000
    1 13 3Pdx2-y2   0.00694   0.00000     -0.000  -0.000   0.000
    1     Total     6.47356   0.00000     -0.000   0.000  -0.000

   28  1 2s         1.74506   0.00000      0.000  -0.000   0.000
   28  2 2s         0.06746   0.00000     -0.000   0.000   0.000
   28  3 2py        1.40913   0.00000     -0.000  -0.000   0.000
   28  4 2pz        1.54374   0.00000      0.000  -0.000   0.000
   28  5 2px        1.64532   0.00000      0.000   0.000  -0.000
   28  6 2py        0.04110   0.00000      0.000  -0.000   0.000
   28  7 2pz       -0.00463   0.00000     -0.000   0.000   0.000
   28  8 2px        0.01087   0.00000     -0.000  -0.000   0.000
   28  9 3Pdxy      0.00642   0.00000      0.000  -0.000   0.000
   28 10 3Pdyz      0.00974   0.00000     -0.000   0.000  -0.000
   28 11 3Pdz2      0.00126   0.00000      0.000   0.000  -0.000
   28 12 3Pdxz     -0.00018   0.00000     -0.000  -0.000  -0.000
   28 13 3Pdx2-y2   0.00773   0.00000      0.000  -0.000  -0.000
   28     Total     6.48301   0.00000      0.000  -0.000   0.000

----------------------------------------------------------------
Total              12.95657   0.00000      0.000  -0.000   0.000


Species: N                   

Atom      Orb        Charge      Spin       Svec
----------------------------------------------------------------
    2  1 2s         1.55125   0.00000     -0.000   0.000  -0.000
    2  2 2s         0.08422   0.00000      0.000  -0.000   0.000
    2  3 2py        1.04384   0.00000     -0.000   0.000  -0.000
    2  4 2pz        1.22420   0.00000     -0.000   0.000  -0.000
    2  5 2px        0.98971   0.00000     -0.000  -0.000  -0.000
    2  6 2py        0.18843   0.00000      0.000  -0.000   0.000
    2  7 2pz        0.05541   0.00000      0.000  -0.000   0.000
    2  8 2px        0.19586   0.00000      0.000   0.000   0.000
    2  9 3Pdxy      0.00839   0.00000     -0.000   0.000   0.000
    2 10 3Pdyz      0.01099   0.00000     -0.000  -0.000   0.000
    2 11 3Pdz2      0.00195   0.00000      0.000  -0.000   0.000
    2 12 3Pdxz      0.00758   0.00000      0.000  -0.000   0.000
    2 13 3Pdx2-y2   0.00909   0.00000     -0.000   0.000  -0.000
    2     Total     5.37089   0.00000     -0.000   0.000  -0.000

    3  1 2s         1.40083   0.00000     -0.000  -0.000  -0.000
    3  2 2s         0.11632   0.00000      0.000   0.000   0.000
    3  3 2py        0.94167   0.00000     -0.000   0.000  -0.000
    3  4 2pz        1.54358   0.00000     -0.000   0.000  -0.000
    3  5 2px        1.08239   0.00000     -0.000  -0.000  -0.000
    3  6 2py        0.24851   0.00000      0.000  -0.000   0.000
    3  7 2pz        0.00719   0.00000     -0.000  -0.000   0.000
    3  8 2px        0.17832   0.00000      0.000  -0.000   0.000
    3  9 3Pdxy      0.00399   0.00000      0.000   0.000   0.000
    3 10 3Pdyz      0.00417   0.00000      0.000  -0.000  -0.000
    3 11 3Pdz2      0.00075   0.00000     -0.000  -0.000   0.000
    3 12 3Pdxz      0.00278   0.00000     -0.000   0.000  -0.000
    3 13 3Pdx2-y2   0.00283   0.00000     -0.000  -0.000  -0.000
    3     Total     5.53334   0.00000     -0.000   0.000  -0.000

    4  1 2s         1.45983   0.00000      0.000   0.000  -0.000
    4  2 2s         0.11891   0.00000     -0.000  -0.000   0.000
    4  3 2py        1.13089   0.00000      0.000  -0.000  -0.000
    4  4 2pz        1.29468   0.00000      0.000  -0.000  -0.000
    4  5 2px        0.82598   0.00000      0.000   0.000  -0.000
    4  6 2py        0.14956   0.00000     -0.000   0.000   0.000
    4  7 2pz        0.05358   0.00000      0.000  -0.000   0.000
    4  8 2px        0.29227   0.00000     -0.000  -0.000   0.000
    4  9 3Pdxy      0.00869   0.00000     -0.000   0.000   0.000
    4 10 3Pdyz      0.01045   0.00000      0.000  -0.000   0.000
    4 11 3Pdz2      0.00126   0.00000     -0.000   0.000   0.000
    4 12 3Pdxz      0.00498   0.00000     -0.000  -0.000  -0.000
    4 13 3Pdx2-y2   0.00797   0.00000      0.000  -0.000  -0.000
    4     Total     5.35906   0.00000      0.000   0.000  -0.000

    5  1 2s         1.37637   0.00000     -0.000  -0.000  -0.000
    5  2 2s         0.12788   0.00000      0.000  -0.000   0.000
    5  3 2py        1.02667   0.00000      0.000  -0.000  -0.000
    5  4 2pz        1.50083   0.00000      0.000  -0.000  -0.000
    5  5 2px        1.06005   0.00000     -0.000  -0.000  -0.000
    5  6 2py        0.20347   0.00000      0.000   0.000   0.000
    5  7 2pz        0.01338   0.00000     -0.000   0.000   0.000
    5  8 2px        0.20097   0.00000      0.000  -0.000   0.000
    5  9 3Pdxy      0.00393   0.00000     -0.000   0.000   0.000
    5 10 3Pdyz      0.00241   0.00000     -0.000  -0.000   0.000
    5 11 3Pdz2      0.00143   0.00000      0.000  -0.000   0.000
    5 12 3Pdxz      0.00685   0.00000      0.000   0.000   0.000
    5 13 3Pdx2-y2   0.00560   0.00000     -0.000  -0.000   0.000
    5     Total     5.52981   0.00000     -0.000  -0.000  -0.000

    6  1 2s         1.26991   0.00000      0.000   0.000  -0.000
    6  2 2s         0.17905   0.00000     -0.000  -0.000   0.000
    6  3 2py        1.07730   0.00000     -0.000  -0.000  -0.000
    6  4 2pz        1.57364   0.00000     -0.000   0.000  -0.000
    6  5 2px        0.95638   0.00000     -0.000  -0.000  -0.000
    6  6 2py        0.18782   0.00000      0.000   0.000   0.000
    6  7 2pz        0.02992   0.00000      0.000  -0.000   0.000
    6  8 2px        0.25545   0.00000     -0.000   0.000   0.000
    6  9 3Pdxy      0.00245   0.00000      0.000  -0.000   0.000
    6 10 3Pdyz      0.00016   0.00000      0.000  -0.000  -0.000
    6 11 3Pdz2      0.00176   0.00000     -0.000   0.000   0.000
    6 12 3Pdxz      0.00327   0.00000      0.000   0.000  -0.000
    6 13 3Pdx2-y2   0.00396   0.00000     -0.000   0.000  -0.000
    6     Total     5.54107   0.00000     -0.000   0.000  -0.000

   21  1 2s         1.42415   0.00000      0.000  -0.000  -0.000
   21  2 2s         0.12801   0.00000     -0.000   0.000   0.000
   21  3 2py        0.87134   0.00000      0.000   0.000  -0.000
   21  4 2pz        1.29474   0.00000      0.000  -0.000   0.000
   21  5 2px        1.15672   0.00000      0.000  -0.000  -0.000
   21  6 2py        0.27556   0.00000     -0.000  -0.000   0.000
   21  7 2pz        0.04895   0.00000      0.000   0.000   0.000
   21  8 2px        0.16307   0.00000     -0.000  -0.000   0.000
   21  9 3Pdxy      0.00648   0.00000      0.000  -0.000   0.000
   21 10 3Pdyz      0.00506   0.00000      0.000  -0.000  -0.000
   21 11 3Pdz2      0.00017   0.00000     -0.000  -0.000  -0.000
   21 12 3Pdxz      0.00576   0.00000      0.000   0.000  -0.000
   21 13 3Pdx2-y2   0.00560   0.00000     -0.000   0.000  -0.000
   21     Total     5.38561   0.00000      0.000  -0.000  -0.000

   22  1 2s         1.29469   0.00000     -0.000   0.000  -0.000
   22  2 2s         0.16769   0.00000      0.000  -0.000   0.000
   22  3 2py        1.05711   0.00000     -0.000   0.000   0.000
   22  4 2pz        1.55685   0.00000      0.000  -0.000  -0.000
   22  5 2px        0.98341   0.00000      0.000   0.000  -0.000
   22  6 2py        0.19646   0.00000      0.000  -0.000   0.000
   22  7 2pz        0.02834   0.00000     -0.000   0.000   0.000
   22  8 2px        0.23485   0.00000     -0.000  -0.000   0.000
   22  9 3Pdxy      0.00329   0.00000     -0.000  -0.000   0.000
   22 10 3Pdyz      0.00035   0.00000     -0.000   0.000  -0.000
   22 11 3Pdz2      0.00256   0.00000     -0.000   0.000   0.000
   22 12 3Pdxz      0.00317   0.00000      0.000   0.000  -0.000
   22 13 3Pdx2-y2   0.00476   0.00000      0.000  -0.000  -0.000
   22     Total     5.53353   0.00000      0.000  -0.000  -0.000

   23  1 2s         1.39727   0.00000     -0.000   0.000  -0.000
   23  2 2s         0.11786   0.00000      0.000  -0.000  -0.000
   23  3 2py        1.00717   0.00000      0.000   0.000  -0.000
   23  4 2pz        1.52471   0.00000     -0.000  -0.000  -0.000
   23  5 2px        1.06532   0.00000      0.000  -0.000  -0.000
   23  6 2py        0.21140   0.00000     -0.000  -0.000   0.000
   23  7 2pz        0.00494   0.00000      0.000   0.000   0.000
   23  8 2px        0.19788   0.00000     -0.000   0.000   0.000
   23  9 3Pdxy      0.00530   0.00000      0.000  -0.000   0.000
   23 10 3Pdyz      0.00445   0.00000      0.000   0.000  -0.000
   23 11 3Pdz2      0.00061   0.00000     -0.000   0.000   0.000
   23 12 3Pdxz      0.00243   0.00000      0.000   0.000  -0.000
   23 13 3Pdx2-y2   0.00137   0.00000     -0.000  -0.000  -0.000
   23     Total     5.54069   0.00000      0.000  -0.000  -0.000

----------------------------------------------------------------
Total              56.75057   0.00000      0.000  -0.000  -0.000


Species: Si                  

Atom      Orb        Charge      Spin       Svec
----------------------------------------------------------------
    7  1 3s         0.66792   0.00000     -0.000   0.000   0.000
    7  2 3s         0.36489   0.00000      0.000  -0.000   0.000
    7  3 3py        0.48810   0.00000      0.000   0.000   0.000
    7  4 3pz        0.69077   0.00000     -0.000   0.000   0.000
    7  5 3px        0.12503   0.00000      0.000   0.000  -0.000
    7  6 3py        0.26448   0.00000     -0.000  -0.000   0.000
    7  7 3pz        0.25900   0.00000      0.000  -0.000   0.000
    7  8 3px        0.43822   0.00000     -0.000   0.000   0.000
    7  9 3Pdxy      0.24559   0.00000     -0.000   0.000   0.000
    7 10 3Pdyz      0.02936   0.00000     -0.000   0.000   0.000
    7 11 3Pdz2      0.01176   0.00000      0.000   0.000   0.000
    7 12 3Pdxz      0.14560   0.00000     -0.000   0.000  -0.000
    7 13 3Pdx2-y2   0.11292   0.00000      0.000   0.000  -0.000
    7     Total     3.84363   0.00000     -0.000   0.000   0.000

    8  1 3s         0.65687   0.00000     -0.000  -0.000   0.000
    8  2 3s         0.36849   0.00000      0.000   0.000   0.000
    8  3 3py        0.38801   0.00000      0.000  -0.000  -0.000
    8  4 3pz        0.52558   0.00000      0.000   0.000  -0.000
    8  5 3px       -0.03075   0.00000      0.000  -0.000   0.000
    8  6 3py        0.30889   0.00000     -0.000   0.000   0.000
    8  7 3pz        0.20196   0.00000     -0.000  -0.000   0.000
    8  8 3px        0.51466   0.00000     -0.000   0.000   0.000
    8  9 3Pdxy      0.24593   0.00000     -0.000  -0.000   0.000
    8 10 3Pdyz      0.11216   0.00000      0.000   0.000  -0.000
    8 11 3Pdz2      0.01452   0.00000      0.000   0.000   0.000
    8 12 3Pdxz      0.15329   0.00000     -0.000  -0.000   0.000
    8 13 3Pdx2-y2   0.20023   0.00000     -0.000   0.000   0.000
    8     Total     3.65984   0.00000      0.000  -0.000   0.000

    9  1 3s         0.60489   0.00000      0.000  -0.000   0.000
    9  2 3s         0.36618   0.00000     -0.000  -0.000  -0.000
    9  3 3py        0.07533   0.00000     -0.000   0.000  -0.000
    9  4 3pz        0.48487   0.00000     -0.000   0.000  -0.000
    9  5 3px        0.37879   0.00000      0.000  -0.000  -0.000
    9  6 3py        0.44776   0.00000     -0.000  -0.000   0.000
    9  7 3pz        0.18723   0.00000      0.000  -0.000  -0.000
    9  8 3px        0.27342   0.00000     -0.000   0.000   0.000
    9  9 3Pdxy      0.31224   0.00000     -0.000  -0.000   0.000
    9 10 3Pdyz      0.18997   0.00000      0.000  -0.000  -0.000
    9 11 3Pdz2      0.01645   0.00000     -0.000   0.000  -0.000
    9 12 3Pdxz      0.09724   0.00000     -0.000  -0.000  -0.000
    9 13 3Pdx2-y2   0.17197   0.00000      0.000   0.000   0.000
    9     Total     3.60633   0.00000      0.000  -0.000  -0.000

   10  1 3s         0.48300   0.00000      0.000   0.000   0.000
   10  2 3s         0.37758   0.00000     -0.000  -0.000   0.000
   10  3 3py        0.24165   0.00000      0.000   0.000   0.000
   10  4 3pz        0.40894   0.00000     -0.000   0.000   0.000
   10  5 3px        0.10108   0.00000     -0.000  -0.000   0.000
   10  6 3py        0.32761   0.00000     -0.000  -0.000   0.000
   10  7 3pz        0.22247   0.00000      0.000  -0.000   0.000
   10  8 3px        0.42879   0.00000      0.000   0.000   0.000
   10  9 3Pdxy      0.16948   0.00000     -0.000   0.000   0.000
   10 10 3Pdyz      0.14005   0.00000      0.000  -0.000   0.000
   10 11 3Pdz2      0.01036   0.00000      0.000  -0.000   0.000
   10 12 3Pdxz      0.17469   0.00000     -0.000   0.000   0.000
   10 13 3Pdx2-y2   0.31015   0.00000     -0.000  -0.000  -0.000
   10     Total     3.39587   0.00000     -0.000  -0.000   0.000

   11  1 3s         0.55281   0.00000      0.000   0.000   0.000
   11  2 3s         0.38532   0.00000     -0.000  -0.000   0.000
   11  3 3py        0.32169   0.00000      0.000  -0.000   0.000
   11  4 3pz        0.54024   0.00000      0.000  -0.000   0.000
   11  5 3px        0.12388   0.00000      0.000  -0.000   0.000
   11  6 3py        0.28688   0.00000     -0.000   0.000   0.000
   11  7 3pz        0.17753   0.00000     -0.000   0.000   0.000
   11  8 3px        0.44670   0.00000     -0.000   0.000   0.000
   11  9 3Pdxy      0.22533   0.00000      0.000  -0.000   0.000
   11 10 3Pdyz      0.12626   0.00000      0.000   0.000   0.000
   11 11 3Pdz2      0.00958   0.00000     -0.000   0.000   0.000
   11 12 3Pdxz      0.05272   0.00000     -0.000  -0.000   0.000
   11 13 3Pdx2-y2   0.20379   0.00000     -0.000   0.000   0.000
   11     Total     3.45274   0.00000      0.000   0.000   0.000

   17  1 3s         0.63927   0.00000     -0.000   0.000   0.000
   17  2 3s         0.36064   0.00000      0.000  -0.000  -0.000
   17  3 3py        0.22759   0.00000     -0.000   0.000   0.000
   17  4 3pz        0.42342   0.00000     -0.000  -0.000   0.000
   17  5 3px        0.24489   0.00000      0.000   0.000   0.000
   17  6 3py        0.38771   0.00000     -0.000  -0.000  -0.000
   17  7 3pz        0.21128   0.00000     -0.000  -0.000   0.000
   17  8 3px        0.36853   0.00000     -0.000  -0.000  -0.000
   17  9 3Pdxy      0.30188   0.00000      0.000  -0.000  -0.000
   17 10 3Pdyz      0.14294   0.00000     -0.000   0.000   0.000
   17 11 3Pdz2      0.00907   0.00000      0.000   0.000   0.000
   17 12 3Pdxz      0.14328   0.00000      0.000  -0.000   0.000
   17 13 3Pdx2-y2   0.16342   0.00000     -0.000   0.000   0.000
   17     Total     3.62393   0.00000     -0.000  -0.000   0.000

   18  1 3s         0.74438   0.00000     -0.000   0.000   0.000
   18  2 3s         0.33946   0.00000      0.000  -0.000   0.000
   18  3 3py        0.07958   0.00000      0.000   0.000   0.000
   18  4 3pz        0.82220   0.00000     -0.000  -0.000   0.000
   18  5 3px        0.55527   0.00000     -0.000  -0.000   0.000
   18  6 3py        0.51796   0.00000     -0.000   0.000   0.000
   18  7 3pz        0.19763   0.00000      0.000   0.000   0.000
   18  8 3px        0.25013   0.00000      0.000   0.000   0.000
   18  9 3Pdxy      0.10336   0.00000      0.000  -0.000  -0.000
   18 10 3Pdyz      0.02743   0.00000      0.000   0.000  -0.000
   18 11 3Pdz2      0.00873   0.00000     -0.000   0.000  -0.000
   18 12 3Pdxz      0.03024   0.00000      0.000  -0.000  -0.000
   18 13 3Pdx2-y2   0.11308   0.00000     -0.000   0.000   0.000
   18     Total     3.78944   0.00000     -0.000   0.000   0.000

   19  1 3s         0.45987   0.00000     -0.000  -0.000   0.000
   19  2 3s         0.36518   0.00000      0.000   0.000  -0.000
   19  3 3py        0.08264   0.00000      0.000   0.000   0.000
   19  4 3pz        0.42929   0.00000     -0.000   0.000  -0.000
   19  5 3px        0.35657   0.00000      0.000  -0.000   0.000
   19  6 3py        0.47079   0.00000     -0.000   0.000  -0.000
   19  7 3pz        0.18277   0.00000      0.000   0.000  -0.000
   19  8 3px        0.23860   0.00000      0.000   0.000  -0.000
   19  9 3Pdxy      0.34146   0.00000     -0.000  -0.000  -0.000
   19 10 3Pdyz      0.18847   0.00000      0.000   0.000  -0.000
   19 11 3Pdz2      0.01603   0.00000      0.000  -0.000   0.000
   19 12 3Pdxz      0.08777   0.00000     -0.000   0.000   0.000
   19 13 3Pdx2-y2   0.23758   0.00000     -0.000  -0.000   0.000
   19     Total     3.45702   0.00000      0.000   0.000  -0.000

   20  1 3s         0.67339   0.00000     -0.000  -0.000  -0.000
   20  2 3s         0.37800   0.00000     -0.000   0.000   0.000
   20  3 3py        0.33095   0.00000     -0.000   0.000  -0.000
   20  4 3pz        0.59025   0.00000      0.000  -0.000  -0.000
   20  5 3px        0.13801   0.00000     -0.000  -0.000  -0.000
   20  6 3py        0.29221   0.00000      0.000  -0.000   0.000
   20  7 3pz        0.16379   0.00000     -0.000   0.000  -0.000
   20  8 3px        0.49979   0.00000      0.000   0.000   0.000
   20  9 3Pdxy      0.10025   0.00000      0.000  -0.000  -0.000
   20 10 3Pdyz      0.13380   0.00000      0.000   0.000  -0.000
   20 11 3Pdz2      0.00736   0.00000      0.000  -0.000   0.000
   20 12 3Pdxz      0.02696   0.00000     -0.000  -0.000   0.000
   20 13 3Pdx2-y2   0.17207   0.00000      0.000  -0.000   0.000
   20     Total     3.50683   0.00000     -0.000  -0.000  -0.000

----------------------------------------------------------------
Total              89.08620   0.00000     -0.000   0.000   0.000


Species: H                   

Atom      Orb        Charge      Spin       Svec
----------------------------------------------------------------
   12  1 1s         0.49663   0.00000      0.000  -0.000  -0.000
   12  2 1s         0.18178   0.00000     -0.000   0.000   0.000
   12  3 2Ppy       0.02908   0.00000     -0.000   0.000  -0.000
   12  4 2Ppz       0.03412   0.00000     -0.000   0.000  -0.000
   12  5 2Ppx       0.02277   0.00000      0.000  -0.000  -0.000
   12     Total     0.76437   0.00000      0.000  -0.000  -0.000

   13  1 1s         1.01900   0.00000      0.000  -0.000  -0.000
   13  2 1s         0.09538   0.00000     -0.000   0.000   0.000
   13  3 2Ppy       0.01808   0.00000     -0.000   0.000  -0.000
   13  4 2Ppz       0.02007   0.00000     -0.000   0.000   0.000
   13  5 2Ppx       0.03515   0.00000     -0.000  -0.000   0.000
   13     Total     1.18769   0.00000      0.000  -0.000  -0.000

   14  1 1s         0.46019   0.00000      0.000  -0.000  -0.000
   14  2 1s         0.20000   0.00000     -0.000   0.000   0.000
   14  3 2Ppy       0.01790   0.00000      0.000  -0.000   0.000
   14  4 2Ppz       0.04542   0.00000      0.000  -0.000   0.000
   14  5 2Ppx       0.01713   0.00000      0.000  -0.000   0.000
   14     Total     0.74065   0.00000      0.000  -0.000  -0.000

   15  1 1s         0.49691   0.00000      0.000  -0.000  -0.000
   15  2 1s         0.17855   0.00000     -0.000   0.000   0.000
   15  3 2Ppy       0.00508   0.00000      0.000   0.000  -0.000
   15  4 2Ppz       0.04252   0.00000     -0.000  -0.000  -0.000
   15  5 2Ppx       0.02800   0.00000      0.000  -0.000  -0.000
   15     Total     0.75106   0.00000      0.000  -0.000  -0.000

   16  1 1s         0.50969   0.00000     -0.000   0.000   0.000
   16  2 1s         0.18725   0.00000      0.000  -0.000   0.000
   16  3 2Ppy       0.02978   0.00000     -0.000  -0.000  -0.000
   16  4 2Ppz       0.03983   0.00000     -0.000   0.000  -0.000
   16  5 2Ppx       0.02360   0.00000      0.000   0.000  -0.000
   16     Total     0.79014   0.00000     -0.000   0.000   0.000

   24  1 1s         1.06310   0.00000      0.000  -0.000  -0.000
   24  2 1s         0.07437   0.00000     -0.000   0.000   0.000
   24  3 2Ppy       0.03209   0.00000      0.000   0.000   0.000
   24  4 2Ppz       0.03072   0.00000     -0.000  -0.000   0.000
   24  5 2Ppx       0.01729   0.00000      0.000  -0.000  -0.000
   24     Total     1.21757   0.00000     -0.000  -0.000  -0.000

   25  1 1s         1.04320   0.00000      0.000  -0.000  -0.000
   25  2 1s         0.08648   0.00000     -0.000   0.000  -0.000
   25  3 2Ppy       0.01227   0.00000     -0.000   0.000  -0.000
   25  4 2Ppz       0.01847   0.00000     -0.000  -0.000  -0.000
   25  5 2Ppx       0.03569   0.00000     -0.000  -0.000   0.000
   25     Total     1.19610   0.00000      0.000  -0.000  -0.000

   26  1 1s         0.47496   0.00000     -0.000   0.000  -0.000
   26  2 1s         0.19619   0.00000     -0.000  -0.000   0.000
   26  3 2Ppy       0.02097   0.00000     -0.000  -0.000  -0.000
   26  4 2Ppz       0.04898   0.00000     -0.000  -0.000  -0.000
   26  5 2Ppx       0.01605   0.00000     -0.000   0.000  -0.000
   26     Total     0.75715   0.00000     -0.000   0.000  -0.000

   27  1 1s         0.51176   0.00000     -0.000   0.000  -0.000
   27  2 1s         0.16898   0.00000     -0.000  -0.000  -0.000
   27  3 2Ppy       0.00660   0.00000      0.000  -0.000  -0.000
   27  4 2Ppz       0.03762   0.00000      0.000   0.000  -0.000
   27  5 2Ppx       0.02847   0.00000     -0.000   0.000  -0.000
   27     Total     0.75343   0.00000     -0.000   0.000  -0.000

   29  1 1s         0.48441   0.00000     -0.000   0.000  -0.000
   29  2 1s         0.18766   0.00000      0.000   0.000   0.000
   29  3 2Ppy       0.02512   0.00000     -0.000  -0.000  -0.000
   29  4 2Ppz       0.03429   0.00000      0.000  -0.000  -0.000
   29  5 2Ppx       0.02416   0.00000      0.000   0.000   0.000
   29     Total     0.75564   0.00000     -0.000   0.000   0.000

----------------------------------------------------------------
Total              98.00000   0.00000      0.000  -0.000   0.000


siesta: Eigenvalues (eV):
ik =     1
  -21.9204  -21.9204  -21.7737  -21.7737  -21.5885  -21.5885  -21.5793  -21.5793  -21.2448  -21.2448
  -20.9871  -20.9871  -20.8507  -20.8507  -19.8419  -19.8419  -19.3769  -19.3769  -19.3731  -19.3731
  -14.7337  -14.7337  -13.9004  -13.9004  -13.3338  -13.3338  -13.2089  -13.2089  -13.1170  -13.1170
  -12.8817  -12.8817  -12.8730  -12.8730  -12.4717  -12.4717  -12.3849  -12.3849  -12.0116  -12.0116
  -11.4698  -11.4698  -10.7927  -10.7927  -10.7720  -10.7720  -10.7236  -10.7236  -10.0773  -10.0773
   -9.5260   -9.5260   -9.2542   -9.2542   -8.8749   -8.8749   -8.7159   -8.7159   -8.6669   -8.6669
   -8.6536   -8.6536   -8.3813   -8.3813   -8.2026   -8.2026   -7.8287   -7.8287   -7.6584   -7.6584
   -7.5407   -7.5407   -7.3507   -7.3507   -7.3078   -7.3078   -6.9072   -6.9072   -6.7308   -6.7308
   -6.5305   -6.5305   -6.4846   -6.4846   -6.1121   -6.1121   -6.0933   -6.0933   -6.0726   -6.0726
   -5.6864   -5.6864   -5.6511   -5.6511   -5.4314   -5.4314   -4.3222   -4.3222   -3.2274   -3.2274
   -2.3306   -2.3306   -2.2844   -2.2844   -2.2564   -2.2564   -1.8947   -1.8947   -1.8738   -1.8738
   -1.8240   -1.8240   -1.7597   -1.7597   -1.5571   -1.5571   -1.5568   -1.5568   -0.9671   -0.9671
   -0.9629   -0.9629   -0.8336   -0.8336   -0.3965   -0.3965   -0.1566   -0.1566    0.0256    0.0256
    0.3079    0.3079    0.4235    0.4235    0.5311    0.5311    0.7172    0.7172    0.7600    0.7600
    0.9772    0.9772    1.2259    1.2259    1.2970    1.2970    1.3910    1.3910    1.4562    1.4562
    1.6697    1.6697    1.8215    1.8215    1.9136    1.9136    2.3460    2.3460    2.7306    2.7306
    2.7356    2.7356    2.8352    2.8352    3.0104    3.0104    3.1266    3.1266    3.3245    3.3245
    3.3731    3.3731    3.7695    3.7695    3.8503    3.8503    4.0959    4.0959    4.2854    4.2854
    4.4312    4.4312    4.5234    4.5234    4.5720    4.5721    4.6000    4.6000    4.8376    4.8376
    4.9548    4.9548    4.9786    4.9786    5.2306    5.2306    5.5049    5.5049    5.6621    5.6621
    5.6981    5.6981    5.7890    5.7890    5.8904    5.8904    5.9580    5.9580    5.9757    5.9757
    6.1850    6.1850    6.3242    6.3242    6.6382    6.6382    6.7244    6.7244    6.8210    6.8210
    7.0574    7.0574    7.1880    7.1880    7.3801    7.3801    7.5187    7.5187    7.7403    7.7403
    7.8061    7.8061    8.0274    8.0274    8.0993    8.0993    8.2300    8.2300    8.2698    8.2698
    8.5141    8.5141    8.6742    8.6742    8.7559    8.7559    8.9484    8.9484    9.2030    9.2030
    9.2185    9.2185    9.2525    9.2525    9.7382    9.7382    9.8134    9.8134    9.8457    9.8457
    9.9865    9.9865   10.1712   10.1712   10.4257   10.4257   10.7489   10.7489   10.8296   10.8296
   10.9235   10.9235   11.0784   11.0784   11.2072   11.2072   11.6948   11.6948   11.8338   11.8338
   11.8967   11.8967   11.9054   11.9054   12.1818   12.1818   12.3780   12.3780   12.5309   12.5309
   12.7077   12.7077   12.7457   12.7457   13.3835   13.3835   13.5129   13.5129   13.7369   13.7369
   13.7713   13.7713   14.0555   14.0555   14.2214   14.2214   14.4369   14.4369   14.8184   14.8184
   14.8628   14.8628   15.3391   15.3391   15.9827   15.9827   16.4155   16.4155   16.6798   16.6798
   16.9436   16.9436   17.4003   17.4003   17.6847   17.6847   18.2181   18.2181   18.3273   18.3273
   18.5677   18.5677   19.1019   19.1019   19.3397   19.3397   19.9459   19.9459   20.2566   20.2566
   20.8964   20.8964   21.3257   21.3257   21.7918   21.7918   22.1891   22.1891   22.4345   22.4345
   23.1100   23.1100   23.2801   23.2801   23.7707   23.7707   23.8237   23.8237   23.8678   23.8678
   24.8222   24.8222   25.2026   25.2026   26.0066   26.0066   26.7904   26.7904   27.4146   27.4146
   28.4306   28.4306   29.0984   29.0984   29.1059   29.1059   29.5100   29.5100   29.5786   29.5786
   30.0519   30.0519   30.1357   30.1357   30.2393   30.2393   30.6076   30.6076   30.7958   30.7958
   31.0134   31.0134   31.1713   31.1713   31.4750   31.4750   31.5948   31.5948   32.2540   32.2540
   32.6798   32.6798   33.8590   33.8590   34.5086   34.5086   34.6958   34.6958   34.9521   34.9521
   34.9655   34.9655   35.1135   35.1135   35.3694   35.3694   35.6619   35.6619   35.8829   35.8829
   36.7556   36.7556   36.8191   36.8191   37.0299   37.0299   37.2111   37.2111   37.5551   37.5551
   38.1766   38.1766   38.2984   38.2984   39.3508   39.3508   39.4685   39.4685   39.8881   39.8881
   40.2423   40.2423   40.5315   40.5315   40.5824   40.5824   40.6751   40.6751   40.9600   40.9600
   41.0908   41.0908   41.4740   41.4740   42.3957   42.3957   42.6545   42.6545   43.0103   43.0103
   43.1536   43.1536   43.7693   43.7693   43.9013   43.9013   44.0409   44.0409   44.2428   44.2428
   44.6755   44.6755   44.7166   44.7166   45.0668   45.0668   45.3702   45.3702   46.1009   46.1009
   46.3953   46.3953   46.8411   46.8411   47.1855   47.1855   48.6215   48.6215   49.0090   49.0090
   49.4697   49.4697   50.3159   50.3159   50.5039   50.5039   50.7126   50.7126   50.9182   50.9182
   51.3742   51.3742   51.5605   51.5605   52.6963   52.6963   52.7090   52.7090   54.2011   54.2011
   54.3199   54.3199   54.5041   54.5041   54.8030   54.8030   55.8109   55.8109   55.8709   55.8709
   55.8821   55.8821   56.0524   56.0524   56.4994   56.4994   57.8655   57.8655   58.2385   58.2385
   58.6684   58.6684   60.1535   60.1535   60.4612   60.4612   60.6605   60.6605   61.1347   61.1347
   61.8218   61.8218   62.0152   62.0152   62.2327   62.2327   64.4772   64.4772   66.4600   66.4600
   67.1557   67.1557   67.1934   67.1934   68.1538   68.1538   68.7563   68.7563   70.8366   70.8366
   74.0735   74.0735   79.9803   79.9803   91.0619   91.0619   91.9085   91.9085   93.3487   93.3487
   98.3655   98.3655   98.7276   98.7276   99.6380   99.6380  103.3298  103.3298  103.7481  103.7481
  110.1288  110.1288  111.6305  111.6305  123.6369  123.6369  125.7087  125.7087  129.9789  129.9789
  135.0447  135.0447  138.3456  138.3456
siesta: Fermi energy =      -3.774830 eV

siesta: Program's energy decomposition (eV):
siesta: Ebs     =     -1134.544342
siesta: Eions   =      3585.165840
siesta: Ena     =       382.019159
siesta: Ekin    =      2903.384011
siesta: Enl     =     -2788.165830
siesta: Eso     =        -0.004281
siesta: Edftu   =         0.000000
siesta: DEna    =        47.003288
siesta: DUscf   =        14.337294
siesta: DUext   =         0.000000
siesta: Exc     =     -1119.832618
siesta: eta*DQ  =         0.000000
siesta: Emadel  =         0.000000
siesta: Emeta   =         0.000000
siesta: Emolmec =         0.000000
siesta: Ekinion =         0.000000
siesta: Eharris =     -4146.424817
siesta: Etot    =     -4146.424817
siesta: FreeEng =     -4146.424817

siesta: Final energy (eV):
siesta:  Band Struct. =   -1134.544342
siesta:       Kinetic =    2903.384011
siesta:       Hartree =    8181.923675
siesta:       Edftu   =       0.000000
siesta:       Eso     =      -0.004281
siesta:    Ext. field =       0.000000
siesta:   Exch.-corr. =   -1119.832618
siesta:  Ion-electron =  -18948.107621
siesta:       Ion-ion =    4836.212016
siesta:       Ekinion =       0.000000
siesta:         Total =   -4146.424817
siesta:         Fermi =      -3.774830

siesta: Atomic forces (eV/Ang):
siesta:      1    2.552539    0.035029    0.000000
siesta:      2   -0.006782    0.038752   -0.000000
siesta:      3    0.799088   -0.424094   -0.000000
siesta:      4    0.760819   -0.016223   -0.000000
siesta:      5    0.048735   -0.086977    0.000000
siesta:      6    1.814419    0.669076    0.000000
siesta:      7    0.042318   -0.260981    0.000000
siesta:      8   -0.429831    0.297290    0.000000
siesta:      9   -0.201618    1.286769   -0.000000
siesta:     10   -1.067073    0.368864   -0.000000
siesta:     11   -0.023998   -0.020135    0.000000
siesta:     12   -0.385880   -0.226931   -0.000000
siesta:     13    0.012966   -0.024912   -0.000000
siesta:     14    0.190184   -0.096994   -0.000000
siesta:     15   -1.291136   -0.936422    0.000000
siesta:     16   -0.062907    0.109737   -0.000000
siesta:     17    1.049099   -1.134157   -0.000000
siesta:     18   -0.222754    0.204247    0.000000
siesta:     19   -0.188178   -1.282555   -0.000000
siesta:     20   -0.012559   -0.431977   -0.000000
siesta:     21   -0.318178    1.076941    0.000000
siesta:     22   -2.211372   -0.894626   -0.000000
siesta:     23    0.273146    0.553019    0.000000
siesta:     24    0.037782    0.028134   -0.000000
siesta:     25    0.091211    0.007190   -0.000000
siesta:     26   -0.264939   -0.160191    0.000000
siesta:     27    1.696310    1.368750    0.000000
siesta:     28   -2.190801   -0.943765   -0.000000
siesta:     29   -0.031257    0.092950    0.000000
siesta: ----------------------------------------
siesta:    Tot    0.459351   -0.804192    0.000000

siesta: Stress tensor (static) (eV/Ang**3):
siesta:     0.000073    0.000841   -0.000000
siesta:     0.000841    0.000802   -0.000000
siesta:    -0.000000    0.000000   -0.000062

siesta: Cell volume =       5525.324246 Ang**3

siesta: Pressure (static):
siesta:                Solid            Molecule  Units
siesta:          -0.00000295          0.00001101  Ry/Bohr**3
siesta:          -0.00027074          0.00101132  eV/Ang**3
siesta:          -0.43378540          1.62032427  kBar
(Free)E+ p_basis*V_orbitals  =       -4126.574399
(Free)Eharris+ p_basis*V_orbitals  =       -4126.574399
     spin moment: S , {S} =    0.00000   0.00000  -0.00000   0.00000

siesta: Electric dipole (a.u.)  =    1.546299    0.021290    0.000000
siesta: Electric dipole (Debye) =    3.930302    0.054115    0.000000

cite: Please see "GC.bib" for an exhaustive BiBTeX file.
cite: Please clearly indicate Siesta version in published work: v4.1.5-1-g384057250
cite: This calculation has made use of the following articles
cite: which are encouraged to be cited in a published work.
        Primary SIESTA paper
          DOI: www.doi.org/10.1088/0953-8984/14/11/302
        Spin-orbit coupling (on-site approximation)
          DOI: www.doi.org/10.1088/0953-8984/19/19/489001


WARNING: alloc-realloc-dealloc name mismatch
         Name: atomlist isa
         Size:              -116. Bytes
         Node:     0
         Subsequent mismatches will not be reported
>> End of run:  28-JUN-2023  20:31:46
Job completed
