Siesta Version  : v4.1.5-1-g384057250
Architecture    : gcc
Compiler version: GNU Fortran (Ubuntu 11.3.0-1ubuntu1~22.04) 11.3.0
Compiler flags  : mpifort -O2 -fPIC -ftree-vectorize -fallow-argument-mismatch
PP flags        : -DFC_HAVE_ABORT -DMPI -DSIESTA__FLOOK -DSIESTA__METIS -DSIESTA__MUMPS -DCDF -DNCDF -DNCDF_4 -DNCDF_PARALLEL -DSIESTA__MRRR -DSIESTA__ELPA
Libraries       : libncdf.a libfdict.a  -lflookall -ldl -lnetcdff -lnetcdf -lhdf5_hl -lhdf5 -lhdf5_fortran -lz -lscalapack-openmpi -lopenblas -lmetis -lzmumps -lcmumps -ldmumps -lmumps_common -lpord -lsmumps -lesmumps -lscotch -lscotcherr -fopenmp -lelpa
PARALLEL version
NetCDF support
NetCDF-4 support
NetCDF-4 MPI-IO support
METIS ordering support
Lua support

* Running on 4 nodes in parallel
>> Start of run:  28-JUN-2023  19:36:39

                           ***********************       
                           *  WELCOME TO SIESTA  *       
                           ***********************       

reinit: Reading from standard input
reinit: Dumped input in INPUT_TMP.57541
************************** Dump of input data file ****************************
SystemLabel      GC
NumberOfAtoms    29
NumberOfSpecies  4
%block ChemicalSpeciesLabel
    1    8  O
    2    7  N
    3   14  Si
    4    1  H
%endblock ChemicalSpeciesLabel
# Single point calculation
MD.TypeOfRun                CG
MD.Steps                    0
SCF.MustConverge            F # In case it does not. There can be 2 very close atoms
AtomicCoordinatesFormat NotScaledCartesianAng
%block AtomicCoordinatesAndAtomicSpecies
1.043624880    3.939228610    0.000000000       1
-3.040641290   1.071078170    0.000000000       2
2.054601450    1.213582070    0.000000000       2
0.999014100    -1.732643800   0.000000000       2
-2.132351640   -1.812968220   0.000000000       2
3.860190550    -1.112298180   0.000000000       2
-1.236183220   1.152964460    0.000000000       3
-0.532924260   -0.939006270   0.000000000       3
0.635660470    2.374516770    0.000000000       3
2.245170240    -0.549967100   0.000000000       3
-3.449816660   -0.583665030   0.000000000       3
2.963714090    1.790992630    0.000000000       4
-4.845591350   -1.123549660   0.000000000       4
4.007020910    -2.152308560   0.000000000       4
4.772194380    -0.502318160   0.000000000       4
-2.265399090   -2.864605110   0.000000000       4
6.377014173    5.882611884    0.000000000       3
8.281898143    7.089250824    0.000000000       3
7.786144003    3.116276914    0.000000000       3
9.863614293    5.585494074    0.000000000       3
6.436636843    4.165184314    0.000000000       2
4.837879113    6.636289194    0.000000000       2
9.438439263    3.846114134    0.000000000       2
8.473242943    8.581404574    0.000000000       4
11.347982273   5.804224894    0.000000000       4
4.726533833    7.685484304    0.000000000       4
3.905321403    6.011375014    0.000000000       4
7.775917173    1.508165794    0.000000000       1
10.213865143   3.119422574    0.000000000       4
%endblock AtomicCoordinatesAndAtomicSpecies
%include ../../../Defaults.fdf
************************** End of input data file *****************************

reinit: -----------------------------------------------------------------------
reinit: System Name: 
reinit: -----------------------------------------------------------------------
reinit: System Label: GC
reinit: -----------------------------------------------------------------------

initatom: Reading input for the pseudopotentials and atomic orbitals ----------
Species number:   1 Atomic number:    8 Label: O
Species number:   2 Atomic number:    7 Label: N
Species number:   3 Atomic number:   14 Label: Si
Species number:   4 Atomic number:    1 Label: H

Ground state valence configuration:   2s02  2p04
Reading pseudopotential information in formatted form from O.psf

Pseudopotential generated from a relativistic atomic calculation

Valence configuration for pseudopotential generation:
2s( 2.00) rc: 0.45
2p( 4.00) rc: 0.92
3d( 0.00) rc: 2.24
4f( 0.00) rc: 0.25
Ground state valence configuration:   2s02  2p03
Reading pseudopotential information in formatted form from N.psf

Pseudopotential generated from a relativistic atomic calculation

Valence configuration for pseudopotential generation:
2s( 2.00) rc: 0.94
2p( 3.00) rc: 0.59
3d( 0.00) rc: 3.46
4f( 0.00) rc: 2.47
Ground state valence configuration:   3s02  3p02
Reading pseudopotential information in formatted form from Si.psf

Pseudopotential generated from a relativistic atomic calculation

Valence configuration for pseudopotential generation:
3s( 2.00) rc: 1.67
3p( 2.00) rc: 2.04
3d( 0.00) rc: 2.89
4f( 0.00) rc: 2.49
Ground state valence configuration:   1s01
Reading pseudopotential information in formatted form from H.psf

Pseudopotential generated from a relativistic atomic calculation

Valence configuration for pseudopotential generation:
1s( 1.00) rc: 0.01
2p( 0.00) rc: 0.60
3d( 0.00) rc: 1.99
4f( 0.00) rc: 2.49
For O, standard SIESTA heuristics set lmxkb to 3
 (one more than the basis l, including polarization orbitals).
Use PS.lmax or PS.KBprojectors blocks to override.
For N, standard SIESTA heuristics set lmxkb to 3
 (one more than the basis l, including polarization orbitals).
Use PS.lmax or PS.KBprojectors blocks to override.
For Si, standard SIESTA heuristics set lmxkb to 3
 (one more than the basis l, including polarization orbitals).
Use PS.lmax or PS.KBprojectors blocks to override.
For H, standard SIESTA heuristics set lmxkb to 2
 (one more than the basis l, including polarization orbitals).
Use PS.lmax or PS.KBprojectors blocks to override.

<basis_specs>
===============================================================================
O                    Z=   8    Mass=  16.000        Charge= 0.17977+309
Lmxo=1 Lmxkb= 3    BasisType=split      Semic=F
L=0  Nsemic=0  Cnfigmx=2
          i=1  nzeta=2  polorb=0  (2s)
            splnorm:   0.28000    
               vcte:    0.0000    
               rinn:    0.0000    
               qcoe:    0.0000    
               qyuk:    0.0000    
               qwid:   0.10000E-01
                rcs:    0.0000      0.0000    
            lambdas:    1.0000      1.0000    
L=1  Nsemic=0  Cnfigmx=2
          i=1  nzeta=2  polorb=1  (2p)
            splnorm:   0.28000    
               vcte:    0.0000    
               rinn:    0.0000    
               qcoe:    0.0000    
               qyuk:    0.0000    
               qwid:   0.10000E-01
                rcs:    0.0000      0.0000    
            lambdas:    1.0000      1.0000    
-------------------------------------------------------------------------------
L=0  Nkbl=1  erefs: 0.17977+309
L=1  Nkbl=1  erefs: 0.17977+309
L=2  Nkbl=1  erefs: 0.17977+309
L=3  Nkbl=1  erefs: 0.17977+309
===============================================================================
</basis_specs>

atom: Called for O                     (Z =   8)

read_vps: Pseudopotential generation method:
read_vps: ATM4.2.7  Troullier-Martins                       
Valence charge for ps generation:    6.00000

xc_check: Exchange-correlation functional:
xc_check: GGA Perdew, Burke & Ernzerhof 1996
V l=0 = -2*Zval/r beyond r=  1.1000
V l=1 = -2*Zval/r beyond r=  1.1000
V l=2 = -2*Zval/r beyond r=  2.2154
V l=3 = -2*Zval/r beyond r=  1.1000
All V_l potentials equal beyond r=  2.2154
This should be close to max(r_c) in ps generation
All pots = -2*Zval/r beyond r=  2.2154

VLOCAL1: 99.0% of the norm of Vloc inside      8.845 Ry
VLOCAL1: 99.9% of the norm of Vloc inside     20.157 Ry
atom: Maximum radius for 4*pi*r*r*local-pseudopot. charge    2.67231
atom: Maximum radius for r*vlocal+2*Zval:    2.32897
GHOST: No ghost state for L =  0
GHOST: No ghost state for L =  1
GHOST: No ghost state for L =  2
GHOST: No ghost state for L =  3

KBgen: Kleinman-Bylander projectors: 
   l= 0   rc=  2.243238   el= -1.759686   Ekb=**********   kbcos= -0.171774
   l= 1   rc=  2.328968   el= -0.663873   Ekb=-14.506792   kbcos= -0.519897
   l= 2   rc=  2.573941   el=  0.002031   Ekb= -1.137373   kbcos= -0.019581
   l= 3   rc=  2.606321   el=  0.003153   Ekb= -1.013546   kbcos= -0.003122

KBgen: Total number of Kleinman-Bylander projectors:   16
atom: -------------------------------------------------------------------------

atom: SANKEY-TYPE ORBITALS:
atom: Selected multiple-zeta basis: split     

SPLIT: Orbitals with angular momentum L= 0

SPLIT: Basis orbitals for state 2s

SPLIT: PAO cut-off radius determined from an
SPLIT: energy shift=  0.002000 Ry

   izeta = 1
                 lambda =    1.000000
                     rc =    4.243912
                 energy =   -1.758270
                kinetic =    3.286084
    potential(screened) =   -5.044353
       potential(ionic) =  -12.921184

   izeta = 2
                 rmatch =    2.187845
              splitnorm =    0.280000
                 energy =   -0.885018
                kinetic =    8.134434
    potential(screened) =   -9.019452
       potential(ionic) =  -17.710645

SPLIT: Orbitals with angular momentum L= 1

SPLIT: Basis orbitals for state 2p

SPLIT: PAO cut-off radius determined from an
SPLIT: energy shift=  0.002000 Ry

   izeta = 1
                 lambda =    1.000000
                     rc =    5.314825
                 energy =   -0.661986
                kinetic =    4.917472
    potential(screened) =   -5.579458
       potential(ionic) =  -13.236259

   izeta = 2
                 rmatch =    2.160663
              splitnorm =    0.280000
                 energy =   -0.068760
                kinetic =    9.183374
    potential(screened) =   -9.252135
       potential(ionic) =  -18.274251

POLgen: Perturbative polarization orbital with L=  2

POLgen: Polarization orbital for state 2p

   izeta = 1
                     rc =    5.314825
                 energy =    1.970580
                kinetic =    3.886128
    potential(screened) =   -1.915547
       potential(ionic) =   -7.749584
atom: Total number of Sankey-type orbitals: 13

atm_pop: Valence configuration (for local Pseudopot. screening):
 2s( 2.00)                                                            
 2p( 4.00)                                                            
Vna: chval, zval:    6.00000   6.00000

Vna:  Cut-off radius for the neutral-atom potential:   5.314825

atom: _________________________________________________________________________

<basis_specs>
===============================================================================
N                    Z=   7    Mass=  14.010        Charge= 0.17977+309
Lmxo=1 Lmxkb= 3    BasisType=split      Semic=F
L=0  Nsemic=0  Cnfigmx=2
          i=1  nzeta=2  polorb=0  (2s)
            splnorm:   0.28000    
               vcte:    0.0000    
               rinn:    0.0000    
               qcoe:    0.0000    
               qyuk:    0.0000    
               qwid:   0.10000E-01
                rcs:    0.0000      0.0000    
            lambdas:    1.0000      1.0000    
L=1  Nsemic=0  Cnfigmx=2
          i=1  nzeta=2  polorb=1  (2p)
            splnorm:   0.28000    
               vcte:    0.0000    
               rinn:    0.0000    
               qcoe:    0.0000    
               qyuk:    0.0000    
               qwid:   0.10000E-01
                rcs:    0.0000      0.0000    
            lambdas:    1.0000      1.0000    
-------------------------------------------------------------------------------
L=0  Nkbl=1  erefs: 0.17977+309
L=1  Nkbl=1  erefs: 0.17977+309
L=2  Nkbl=1  erefs: 0.17977+309
L=3  Nkbl=1  erefs: 0.17977+309
===============================================================================
</basis_specs>

atom: Called for N                     (Z =   7)

read_vps: Pseudopotential generation method:
read_vps: ATM4.2.7  Troullier-Martins                       
Valence charge for ps generation:    5.00000

xc_check: Exchange-correlation functional:
xc_check: GGA Perdew, Burke & Ernzerhof 1996
V l=0 = -2*Zval/r beyond r=  1.2889
V l=1 = -2*Zval/r beyond r=  1.2889
V l=2 = -2*Zval/r beyond r=  3.4178
V l=3 = -2*Zval/r beyond r=  2.4084
All V_l potentials equal beyond r=  3.3753
This should be close to max(r_c) in ps generation
All pots = -2*Zval/r beyond r=  3.4178

VLOCAL1: 99.0% of the norm of Vloc inside      3.810 Ry
VLOCAL1: 99.9% of the norm of Vloc inside      8.683 Ry
atom: Maximum radius for 4*pi*r*r*local-pseudopot. charge    4.02088
atom: Maximum radius for r*vlocal+2*Zval:    3.54838
GHOST: No ghost state for L =  0
GHOST: No ghost state for L =  1
GHOST: No ghost state for L =  2
GHOST: No ghost state for L =  3

KBgen: Kleinman-Bylander projectors: 
   l= 0   rc=  3.417763   el= -1.365098   Ekb= -4.433130   kbcos= -0.707855
   l= 1   rc=  3.375302   el= -0.521201   Ekb=-13.264039   kbcos= -0.535594
   l= 2   rc=  3.872880   el=  0.001991   Ekb= -0.641094   kbcos= -0.062456
   l= 3   rc=  3.970931   el=  0.003093   Ekb= -0.474517   kbcos= -0.018236

KBgen: Total number of Kleinman-Bylander projectors:   16
atom: -------------------------------------------------------------------------

atom: SANKEY-TYPE ORBITALS:
atom: Selected multiple-zeta basis: split     

SPLIT: Orbitals with angular momentum L= 0

SPLIT: Basis orbitals for state 2s

SPLIT: PAO cut-off radius determined from an
SPLIT: energy shift=  0.002000 Ry

   izeta = 1
                 lambda =    1.000000
                     rc =    4.730425
                 energy =   -1.363399
                kinetic =    1.245246
    potential(screened) =   -2.608645
       potential(ionic) =   -8.121105

   izeta = 2
                 rmatch =    2.531849
              splitnorm =    0.280000
                 energy =   -0.959908
                kinetic =    2.409435
    potential(screened) =   -3.369343
       potential(ionic) =   -9.427975

SPLIT: Orbitals with angular momentum L= 1

SPLIT: Basis orbitals for state 2p

SPLIT: PAO cut-off radius determined from an
SPLIT: energy shift=  0.002000 Ry

   izeta = 1
                 lambda =    1.000000
                     rc =    5.924108
                 energy =   -0.519262
                kinetic =    3.672940
    potential(screened) =   -4.192202
       potential(ionic) =   -9.518354

   izeta = 2
                 rmatch =    2.531849
              splitnorm =    0.280000
                 energy =   -0.104258
                kinetic =    6.807538
    potential(screened) =   -6.911796
       potential(ionic) =  -13.149920

POLgen: Perturbative polarization orbital with L=  2

POLgen: Polarization orbital for state 2p

   izeta = 1
                     rc =    5.924108
                 energy =    1.427508
                kinetic =    2.872379
    potential(screened) =   -1.444871
       potential(ionic) =   -5.563644
atom: Total number of Sankey-type orbitals: 13

atm_pop: Valence configuration (for local Pseudopot. screening):
 2s( 2.00)                                                            
 2p( 3.00)                                                            
Vna: chval, zval:    5.00000   5.00000

Vna:  Cut-off radius for the neutral-atom potential:   5.924108

atom: _________________________________________________________________________

<basis_specs>
===============================================================================
Si                   Z=  14    Mass=  28.090        Charge= 0.17977+309
Lmxo=1 Lmxkb= 3    BasisType=split      Semic=F
L=0  Nsemic=0  Cnfigmx=3
          i=1  nzeta=2  polorb=0  (3s)
            splnorm:   0.28000    
               vcte:    0.0000    
               rinn:    0.0000    
               qcoe:    0.0000    
               qyuk:    0.0000    
               qwid:   0.10000E-01
                rcs:    0.0000      0.0000    
            lambdas:    1.0000      1.0000    
L=1  Nsemic=0  Cnfigmx=3
          i=1  nzeta=2  polorb=1  (3p)
            splnorm:   0.28000    
               vcte:    0.0000    
               rinn:    0.0000    
               qcoe:    0.0000    
               qyuk:    0.0000    
               qwid:   0.10000E-01
                rcs:    0.0000      0.0000    
            lambdas:    1.0000      1.0000    
-------------------------------------------------------------------------------
L=0  Nkbl=1  erefs: 0.17977+309
L=1  Nkbl=1  erefs: 0.17977+309
L=2  Nkbl=1  erefs: 0.17977+309
L=3  Nkbl=1  erefs: 0.17977+309
===============================================================================
</basis_specs>

atom: Called for Si                    (Z =  14)

read_vps: Pseudopotential generation method:
read_vps: ATM4.2.7  Troullier-Martins                       
Valence charge for ps generation:    4.00000

xc_check: Exchange-correlation functional:
xc_check: GGA Perdew, Burke & Ernzerhof 1996
V l=0 = -2*Zval/r beyond r=  2.7826
V l=1 = -2*Zval/r beyond r=  2.7826
V l=2 = -2*Zval/r beyond r=  2.9253
V l=3 = -2*Zval/r beyond r=  2.7826
All V_l potentials equal beyond r=  2.8530
This should be close to max(r_c) in ps generation
All pots = -2*Zval/r beyond r=  2.9253

VLOCAL1: 99.0% of the norm of Vloc inside      5.333 Ry
VLOCAL1: 99.9% of the norm of Vloc inside     12.154 Ry
atom: Maximum radius for 4*pi*r*r*local-pseudopot. charge    3.39869
atom: Maximum radius for r*vlocal+2*Zval:    2.96205
GHOST: No ghost state for L =  0
GHOST: No ghost state for L =  1
GHOST: No ghost state for L =  2
GHOST: No ghost state for L =  3

KBgen: Kleinman-Bylander projectors: 
   l= 0   rc=  3.075247   el= -0.794092   Ekb=  5.879390   kbcos=  0.167461
   l= 1   rc=  3.153101   el= -0.300068   Ekb=  2.642817   kbcos=  0.058301
   l= 2   rc=  3.273594   el=  0.001958   Ekb= -1.185135   kbcos= -0.104411
   l= 3   rc=  3.232927   el=  0.003046   Ekb= -0.497174   kbcos= -0.015889

KBgen: Total number of Kleinman-Bylander projectors:   16
atom: -------------------------------------------------------------------------

atom: SANKEY-TYPE ORBITALS:
atom: Selected multiple-zeta basis: split     

SPLIT: Orbitals with angular momentum L= 0

SPLIT: Basis orbitals for state 3s

SPLIT: PAO cut-off radius determined from an
SPLIT: energy shift=  0.002000 Ry

   izeta = 1
                 lambda =    1.000000
                     rc =    6.429618
                 energy =   -0.792283
                kinetic =    0.525293
    potential(screened) =   -1.317576
       potential(ionic) =   -3.744923

   izeta = 2
                 rmatch =    3.998416
              splitnorm =    0.280000
                 energy =   -0.583081
                kinetic =    1.069570
    potential(screened) =   -1.652651
       potential(ionic) =   -4.235185

SPLIT: Orbitals with angular momentum L= 1

SPLIT: Basis orbitals for state 3p

SPLIT: PAO cut-off radius determined from an
SPLIT: energy shift=  0.002000 Ry

   izeta = 1
                 lambda =    1.000000
                     rc =    8.464845
                 energy =   -0.298236
                kinetic =    0.785360
    potential(screened) =   -1.083596
       potential(ionic) =   -3.273779

   izeta = 2
                 rmatch =    4.587816
              splitnorm =    0.280000
                 energy =   -0.131871
                kinetic =    1.403687
    potential(screened) =   -1.535557
       potential(ionic) =   -4.015310

POLgen: Perturbative polarization orbital with L=  2

POLgen: Polarization orbital for state 3p

   izeta = 1
                     rc =    8.464845
                 energy =    0.321949
                kinetic =    1.055677
    potential(screened) =   -0.733728
       potential(ionic) =   -2.672950
atom: Total number of Sankey-type orbitals: 13

atm_pop: Valence configuration (for local Pseudopot. screening):
 3s( 2.00)                                                            
 3p( 2.00)                                                            
Vna: chval, zval:    4.00000   4.00000

Vna:  Cut-off radius for the neutral-atom potential:   8.464845

atom: _________________________________________________________________________

<basis_specs>
===============================================================================
H                    Z=   1    Mass=  1.0100        Charge= 0.17977+309
Lmxo=0 Lmxkb= 2    BasisType=split      Semic=F
L=0  Nsemic=0  Cnfigmx=1
          i=1  nzeta=2  polorb=1  (1s)
            splnorm:   0.62000    
               vcte:    0.0000    
               rinn:    0.0000    
               qcoe:    0.0000    
               qyuk:    0.0000    
               qwid:   0.10000E-01
                rcs:    0.0000      0.0000    
            lambdas:    1.0000      1.0000    
-------------------------------------------------------------------------------
L=0  Nkbl=1  erefs: 0.17977+309
L=1  Nkbl=1  erefs: 0.17977+309
L=2  Nkbl=1  erefs: 0.17977+309
===============================================================================
</basis_specs>

atom: Called for H                     (Z =   1)

read_vps: Pseudopotential generation method:
read_vps: ATM4.2.7  Troullier-Martins                       
Valence charge for ps generation:    1.00000

xc_check: Exchange-correlation functional:
xc_check: GGA Perdew, Burke & Ernzerhof 1996
V l=0 = -2*Zval/r beyond r=  0.0098
V l=1 = -2*Zval/r beyond r=  0.5817
V l=2 = -2*Zval/r beyond r=  1.9372
All V_l potentials equal beyond r=  1.9372
This should be close to max(r_c) in ps generation
All pots = -2*Zval/r beyond r=  1.9372

VLOCAL1: 99.0% of the norm of Vloc inside     11.567 Ry
VLOCAL1: 99.9% of the norm of Vloc inside     26.362 Ry
atom: Maximum radius for 4*pi*r*r*local-pseudopot. charge    2.25106
atom: Maximum radius for r*vlocal+2*Zval:    1.91306
GHOST: No ghost state for L =  0
GHOST: No ghost state for L =  1
GHOST: No ghost state for L =  2

KBgen: Kleinman-Bylander projectors: 
   l= 0   rc=  2.036604   el= -0.477180   Ekb= -6.081590   kbcos= -0.277285
   l= 1   rc=  2.195416   el=  0.001076   Ekb= -0.926943   kbcos= -0.034643
   l= 2   rc=  2.251056   el=  0.002010   Ekb= -0.130941   kbcos= -0.009788

KBgen: Total number of Kleinman-Bylander projectors:    9
atom: -------------------------------------------------------------------------

atom: SANKEY-TYPE ORBITALS:
atom: Selected multiple-zeta basis: split     

SPLIT: Orbitals with angular momentum L= 0

SPLIT: Basis orbitals for state 1s

SPLIT: PAO cut-off radius determined from an
SPLIT: energy shift=  0.002000 Ry

   izeta = 1
                 lambda =    1.000000
                     rc =    6.518340
                 energy =   -0.475305
                kinetic =    0.912139
    potential(screened) =   -1.387444
       potential(ionic) =   -1.907295

   izeta = 2
                 rmatch =    2.141150
              splitnorm =    0.620000
                 energy =    0.566467
                kinetic =    3.772856
    potential(screened) =   -3.206389
       potential(ionic) =   -3.759093

POLgen: Perturbative polarization orbital with L=  1

POLgen: Polarization orbital for state 1s

   izeta = 1
                     rc =    6.518340
                 energy =    0.533861
                kinetic =    1.121086
    potential(screened) =   -0.587225
       potential(ionic) =   -1.053027
atom: Total number of Sankey-type orbitals:  5

atm_pop: Valence configuration (for local Pseudopot. screening):
 1s( 1.00)                                                            
Vna: chval, zval:    1.00000   1.00000

Vna:  Cut-off radius for the neutral-atom potential:   6.518340

atom: _________________________________________________________________________

prinput: Basis input ----------------------------------------------------------

PAO.BasisType split     

%block ChemicalSpeciesLabel
    1    8 O                       # Species index, atomic number, species label
    2    7 N                       # Species index, atomic number, species label
    3   14 Si                      # Species index, atomic number, species label
    4    1 H                       # Species index, atomic number, species label
%endblock ChemicalSpeciesLabel

%block PAO.Basis                 # Define Basis set
O                     2                    # Species label, number of l-shells
 n=2   0   2                         # n, l, Nzeta 
   4.244      2.188   
   1.000      1.000   
 n=2   1   2 P   1                   # n, l, Nzeta, Polarization, NzetaPol
   5.315      2.161   
   1.000      1.000   
N                     2                    # Species label, number of l-shells
 n=2   0   2                         # n, l, Nzeta 
   4.730      2.532   
   1.000      1.000   
 n=2   1   2 P   1                   # n, l, Nzeta, Polarization, NzetaPol
   5.924      2.532   
   1.000      1.000   
Si                    2                    # Species label, number of l-shells
 n=3   0   2                         # n, l, Nzeta 
   6.430      3.998   
   1.000      1.000   
 n=3   1   2 P   1                   # n, l, Nzeta, Polarization, NzetaPol
   8.465      4.588   
   1.000      1.000   
H                     1                    # Species label, number of l-shells
 n=1   0   2 P   1                   # n, l, Nzeta, Polarization, NzetaPol
   6.518      2.141   
   1.000      1.000   
%endblock PAO.Basis

prinput: ----------------------------------------------------------------------

Dumping basis to NetCDF file O.ion.nc
Dumping basis to NetCDF file N.ion.nc
Dumping basis to NetCDF file Si.ion.nc
Dumping basis to NetCDF file H.ion.nc
coor:   Atomic-coordinates input format  =     Cartesian coordinates
coor:                                          (in Angstroms)

siesta: Atomic coordinates (Bohr) and species
siesta:      1.97217   7.44407   0.00000  1        1
siesta:     -5.74598   2.02405   0.00000  2        2
siesta:      3.88264   2.29334   0.00000  2        3
siesta:      1.88786  -3.27422   0.00000  2        4
siesta:     -4.02956  -3.42601   0.00000  2        5
siesta:      7.29471  -2.10194   0.00000  2        6
siesta:     -2.33605   2.17879   0.00000  3        7
siesta:     -1.00708  -1.77447   0.00000  3        8
siesta:      1.20122   4.48719   0.00000  3        9
siesta:      4.24276  -1.03929   0.00000  3       10
siesta:     -6.51921  -1.10297   0.00000  3       11
siesta:      5.60061   3.38449   0.00000  4       12
siesta:     -9.15684  -2.12320   0.00000  4       13
siesta:      7.57218  -4.06728   0.00000  4       14
siesta:      9.01814  -0.94924   0.00000  4       15
siesta:     -4.28099  -5.41332   0.00000  4       16
siesta:     12.05082  11.11653   0.00000  3       17
siesta:     15.65053  13.39675   0.00000  3       18
siesta:     14.71369   5.88891   0.00000  3       19
siesta:     18.63954  10.55506   0.00000  3       20
siesta:     12.16349   7.87106   0.00000  2       21
siesta:      9.14227  12.54077   0.00000  2       22
siesta:     17.83607   7.26811   0.00000  2       23
siesta:     16.01211  16.21651   0.00000  4       24
siesta:     21.44459  10.96840   0.00000  4       25
siesta:      8.93186  14.52347   0.00000  4       26
siesta:      7.37999  11.35986   0.00000  4       27
siesta:     14.69436   2.85002   0.00000  1       28
siesta:     19.30142   5.89486   0.00000  4       29

siesta: Automatic unit cell vectors (Ang):
siesta:   25.401514    0.000000    0.000000
siesta:    0.000000   20.179193    0.000000
siesta:    0.000000    0.000000    9.854683

siesta: System type = molecule  

initatomlists: Number of atoms, orbitals, and projectors:     29   297   394

siesta: ******************** Simulation parameters ****************************
siesta:
siesta: The following are some of the parameters of the simulation.
siesta: A complete list of the parameters used, including default values,
siesta: can be found in file out.fdf
siesta:
redata: Spin configuration                          = spin-orbit
redata: Number of spin components                   = 8
redata: Time-Reversal Symmetry                      = F
redata: Spin spiral                                 = F
############################################################
This spin-orbit implementation uses a local approximation.
From 4.2 and onwards the full non-local approximation is implemented
You are strongly advised to use >=4.2 versions!
############################################################
redata: Long output                                 =   F
redata: Number of Atomic Species                    =        4
redata: Charge density info will appear in .RHO file
redata: Write Mulliken Pop.                         = Atomic and Orbital charges
redata: Matel table size (NRTAB)                    =     1024
redata: Mesh Cutoff                                 =   340.0000 Ry
redata: Net charge of the system                    =     0.0000 |e|
redata: Min. number of SCF Iter                     =        1
redata: Max. number of SCF Iter                     =      200
redata: SCF mix quantity                            = Hamiltonian
redata: Mix DM or H after convergence               =   F
redata: Recompute H after scf cycle                 =   F
redata: Mix DM in first SCF step                    =   T
redata: Write Pulay info on disk                    =   F
redata: New DM Occupancy tolerance                  = 0.000000000001
redata: No kicks to SCF
redata: DM Mixing Weight for Kicks                  =     0.5000
redata: Require Harris convergence for SCF          =   F
redata: Harris energy tolerance for SCF             =     0.000100 eV
redata: Require DM convergence for SCF              =   T
redata: DM tolerance for SCF                        =     0.000008
redata: Require EDM convergence for SCF             =   F
redata: EDM tolerance for SCF                       =     0.001000 eV
redata: Require H convergence for SCF               =   T
redata: Hamiltonian tolerance for SCF               =     0.000001 eV
redata: Require (free) Energy convergence for SCF   =   F
redata: (free) Energy tolerance for SCF             =     0.000100 eV
redata: Using Saved Data (generic)                  =   F
redata: Use continuation files for DM               =   F
redata: Neglect nonoverlap interactions             =   F
redata: Method of Calculation                       = Diagonalization
redata: Electronic Temperature                      =   299.9978 K
redata: Fix the spin of the system                  =   F
redata: Dynamics option                             = Single-point calculation
mix.SCF: Pulay mixing                            = Pulay
mix.SCF:    Variant                              = stable
mix.SCF:    History steps                        = 6
mix.SCF:    Linear mixing weight                 =     0.250000
mix.SCF:    Mixing weight                        =     0.250000
mix.SCF:    SVD condition                        = 0.1000E-07
mix.SCF:    Restart steps                        = 24
mix.SCF:    Restart save steps                   = 3
mix.SCF: Spin-component mixing                   all
redata: Save all siesta data in one NC              =   F
redata: ***********************************************************************

%block SCF.Mixers
  Pulay
%endblock SCF.Mixers

%block SCF.Mixer.Pulay
  # Mixing method
  method pulay
  variant stable

  # Mixing options
  weight 0.2500
  weight.linear 0.2500
  history 6
  restart 24
  restart.save 3
%endblock SCF.Mixer.Pulay

DM_history_depth set to one: no extrapolation allowed by default for geometry relaxation
Size of DM history Fstack: 1
Total number of electrons:    98.000000
Total ionic charge:    98.000000

* ProcessorY, Blocksize:    2  24


* Orbital distribution balance (max,min):    81    72


Time-reversal symmetry not used.

siesta: k-grid: Number of k-points =     1
siesta: k-grid: Cutoff (effective) =     4.927 Ang
siesta: k-grid: Supercell and displacements
siesta: k-grid:    1   0   0      0.000
siesta: k-grid:    0   1   0      0.000
siesta: k-grid:    0   0   1      0.000

diag: Algorithm                                     = ELPA-1stage
diag: Parallel over k                               =   F
diag: Use parallel 2D distribution                  =   T
diag: Parallel block-size                           = 24
diag: Parallel distribution                         =     2 x     2
diag: Used triangular part                          = Lower
diag: Absolute tolerance                            =  0.100E-15
diag: Orthogonalization factor                      =  0.100E-05
diag: Memory factor                                 =  1.0000


ts: **************************************************************
ts: Save H and S matrices                           =    F
ts: Save DM and EDM matrices                        =    F
ts: Only save the overlap matrix S                  =    F
ts: **************************************************************

************************ Begin: TS CHECKS AND WARNINGS ************************
************************ End: TS CHECKS AND WARNINGS **************************


                     ====================================
                        Single-point calculation
                     ====================================

outcoor: Atomic coordinates (Ang):                          
    1.04362488    3.93922861    0.00000000   1       1  O
   -3.04064129    1.07107817    0.00000000   2       2  N
    2.05460145    1.21358207    0.00000000   2       3  N
    0.99901410   -1.73264380    0.00000000   2       4  N
   -2.13235164   -1.81296822    0.00000000   2       5  N
    3.86019055   -1.11229818    0.00000000   2       6  N
   -1.23618322    1.15296446    0.00000000   3       7  Si
   -0.53292426   -0.93900627    0.00000000   3       8  Si
    0.63566047    2.37451677    0.00000000   3       9  Si
    2.24517024   -0.54996710    0.00000000   3      10  Si
   -3.44981666   -0.58366503    0.00000000   3      11  Si
    2.96371409    1.79099263    0.00000000   4      12  H
   -4.84559135   -1.12354966    0.00000000   4      13  H
    4.00702091   -2.15230856    0.00000000   4      14  H
    4.77219438   -0.50231816    0.00000000   4      15  H
   -2.26539909   -2.86460511    0.00000000   4      16  H
    6.37701417    5.88261188    0.00000000   3      17  Si
    8.28189814    7.08925082    0.00000000   3      18  Si
    7.78614400    3.11627691    0.00000000   3      19  Si
    9.86361429    5.58549407    0.00000000   3      20  Si
    6.43663684    4.16518431    0.00000000   2      21  N
    4.83787911    6.63628919    0.00000000   2      22  N
    9.43843926    3.84611413    0.00000000   2      23  N
    8.47324294    8.58140457    0.00000000   4      24  H
   11.34798227    5.80422489    0.00000000   4      25  H
    4.72653383    7.68548430    0.00000000   4      26  H
    3.90532140    6.01137501    0.00000000   4      27  H
    7.77591717    1.50816579    0.00000000   1      28  O
   10.21386514    3.11942257    0.00000000   4      29  H

outcell: Unit cell vectors (Ang):
       25.401514    0.000000    0.000000
        0.000000   20.179193    0.000000
        0.000000    0.000000    9.854683

outcell: Cell vector modules (Ang)   :   25.401514   20.179193    9.854683
outcell: Cell angles (23,13,12) (deg):     90.0000     90.0000     90.0000
outcell: Cell volume (Ang**3)        :   5051.3339
<dSpData1D:S at geom step 0
  <sparsity:sparsity for geom step 0
    nrows_g=297 nrows=81 sparsity=.1887 nnzs=16647, refcount: 8>
  <dData1D:(new from dSpData1D) n=16647, refcount: 1>
refcount: 1>
new_DM -- step:     1
Initializing Density Matrix...
DM filled with atomic data:
<dSpData2D:DM initialized from atoms
  <sparsity:sparsity for geom step 0
    nrows_g=297 nrows=81 sparsity=.1887 nnzs=16647, refcount: 9>
  <dData2D:DM n=16647 m=8, refcount: 1>
refcount: 1>
     spin moment: S , {S} =   56.00000   0.00000   0.00000  56.00000
No. of atoms with KB's overlaping orbs in proc 0. Max # of overlaps:      29     162

Initializing spin-orbit part of the Hamiltonian
  Adding spin-orbit effects for O 
  Adding spin-orbit effects for N 
  Adding spin-orbit effects for Si
  Adding spin-orbit effects for H 


New grid distribution:   1
           1       1:  144    1:   60    1:   30
           2       1:  144    1:   60   31:   60
           3       1:  144   61:  120    1:   30
           4       1:  144   61:  120   31:   60

InitMesh: MESH =   288 x   240 x   120 =     8294400
InitMesh: (bp) =   144 x   120 x    60 =     1036800
InitMesh: Mesh cutoff (required, used) =   340.000   355.277 Ry
ExtMesh (bp) on 0 =   248 x   168 x   142 =     5916288
New grid distribution:   2
           1      44:  144    1:   31    1:   60
           2       1:   43    1:   31    1:   60
           3      44:  144   32:  120    1:   60
           4       1:   43   32:  120    1:   60
New grid distribution:   3
           1      49:  144    1:   36    1:   60
           2       1:   48    1:   40    1:   60
           3      49:  144   37:  120    1:   60
           4       1:   48   41:  120    1:   60
Setting up quadratic distribution...
ExtMesh (bp) on 0 =   205 x   139 x   172 =     4901140
PhiOnMesh: Number of (b)points on node 0 =               187860
PhiOnMesh: nlist on node 0 =              2613068

stepf: Fermi-Dirac step function

siesta: Program's energy decomposition (eV):
siesta: Ebs     =      -616.577503
siesta: Eions   =      3585.165840
siesta: Ena     =       382.017313
siesta: Ekin    =      3369.141926
siesta: Enl     =     -3297.761658
siesta: Eso     =        -0.003411
siesta: Edftu   =         0.000000
siesta: DEna    =       153.531317
siesta: DUscf   =        81.155795
siesta: DUext   =         0.000000
siesta: Exc     =     -1204.072148
siesta: eta*DQ  =         0.000000
siesta: Emadel  =         0.000000
siesta: Emeta   =         0.000000
siesta: Emolmec =         0.000000
siesta: Ekinion =         0.000000
siesta: Eharris =     -4022.592693
siesta: Etot    =     -4101.156706
siesta: FreeEng =     -4101.158121

        iscf     Eharris(eV)        E_KS(eV)     FreeEng(eV)     dDmax    Ef(eV) dHmax(eV)
   scf:    1    -4022.592693    -4101.156706    -4101.158121  0.964728 -4.904663 21.733640
     spin moment: S , {S} =    2.00726   0.00000   0.00000   2.00726
timer: Routine,Calls,Time,% = IterSCF        1      13.767  18.36
   scf:    2    -4148.287195    -4136.658280    -4136.659780  0.454569 -4.214289 11.429076
     spin moment: S , {S} =    1.99124  -0.00000   0.00000   1.99124
   scf:    3    -4110.108661    -4134.419342    -4134.432590  0.424362 -4.306344 11.534039
     spin moment: S , {S} =    2.00386   0.00000   0.00000   2.00386
   scf:    4    -4149.907607    -4145.324538    -4145.324538  0.308518 -3.897564  6.362828
     spin moment: S , {S} =    0.00010  -0.00000  -0.00000   0.00010
   scf:    5    -4146.563280    -4146.040715    -4146.040715  0.035262 -3.678358  4.299005
     spin moment: S , {S} =    0.00006   0.00000  -0.00000   0.00006
   scf:    6    -4146.806353    -4146.431759    -4146.431759  0.024590 -3.624446  2.093016
     spin moment: S , {S} =    0.00003   0.00000   0.00000   0.00003
   scf:    7    -4146.775302    -4146.600413    -4146.600413  0.021086 -3.642821  0.890942
     spin moment: S , {S} =    0.00001   0.00000   0.00000   0.00001
   scf:    8    -4146.722128    -4146.659180    -4146.659180  0.012755 -3.714281  0.489201
     spin moment: S , {S} =    0.00000   0.00000  -0.00000   0.00000
   scf:    9    -4146.696730    -4146.677298    -4146.677298  0.006487 -3.755047  0.357665
     spin moment: S , {S} =    0.00000   0.00000  -0.00000   0.00000
   scf:   10    -4146.727690    -4146.697031    -4146.697031  0.020365 -3.791964  0.207091
     spin moment: S , {S} =    0.00000  -0.00000  -0.00000  -0.00000
   scf:   11    -4146.700366    -4146.698658    -4146.698658  0.005484 -3.782294  0.058071
     spin moment: S , {S} =    0.00000  -0.00000  -0.00000  -0.00000
   scf:   12    -4146.699531    -4146.699106    -4146.699106  0.001130 -3.777140  0.023201
     spin moment: S , {S} =    0.00000   0.00000   0.00000   0.00000
   scf:   13    -4146.699506    -4146.699302    -4146.699302  0.001337 -3.775652  0.016199
     spin moment: S , {S} =    0.00000  -0.00000   0.00000   0.00000
   scf:   14    -4146.699539    -4146.699414    -4146.699414  0.001263 -3.775012  0.012932
     spin moment: S , {S} =    0.00000  -0.00000   0.00000   0.00000
   scf:   15    -4146.699544    -4146.699473    -4146.699473  0.001159 -3.774836  0.009537
     spin moment: S , {S} =    0.00000  -0.00000   0.00000   0.00000
   scf:   16    -4146.699563    -4146.699512    -4146.699512  0.001206 -3.775060  0.006050
     spin moment: S , {S} =    0.00000  -0.00000  -0.00000   0.00000
   scf:   17    -4146.699540    -4146.699524    -4146.699524  0.000679 -3.775019  0.004146
     spin moment: S , {S} =    0.00000  -0.00000  -0.00000   0.00000
   scf:   18    -4146.699535    -4146.699529    -4146.699529  0.000435 -3.775046  0.002243
     spin moment: S , {S} =    0.00000  -0.00000  -0.00000   0.00000
   scf:   19    -4146.699533    -4146.699531    -4146.699531  0.000282 -3.775074  0.001236
     spin moment: S , {S} =    0.00000  -0.00000  -0.00000   0.00000
   scf:   20    -4146.699532    -4146.699531    -4146.699531  0.000141 -3.775093  0.000743
     spin moment: S , {S} =    0.00000  -0.00000  -0.00000   0.00000
   scf:   21    -4146.699532    -4146.699532    -4146.699532  0.000126 -3.775101  0.000252
     spin moment: S , {S} =    0.00000  -0.00000  -0.00000   0.00000
   scf:   22    -4146.699532    -4146.699532    -4146.699532  0.000042 -3.775085  0.000112
     spin moment: S , {S} =    0.00000  -0.00000  -0.00000   0.00000
   scf:   23    -4146.699532    -4146.699532    -4146.699532  0.000009 -3.775081  0.000074
     spin moment: S , {S} =    0.00000  -0.00000  -0.00000   0.00000
   scf:   24    -4146.699532    -4146.699532    -4146.699532  0.000003 -3.775078  0.000047
     spin moment: S , {S} =    0.00000  -0.00000  -0.00000   0.00000
mix: Pulay -- resetting history
   scf:   25    -4146.699532    -4146.699532    -4146.699532  0.000004 -3.775076  0.000032
     spin moment: S , {S} =    0.00000  -0.00000  -0.00000  -0.00000
   scf:   26    -4146.699532    -4146.699532    -4146.699532  0.000003 -3.775075  0.000017
     spin moment: S , {S} =    0.00000  -0.00000  -0.00000  -0.00000
   scf:   27    -4146.699532    -4146.699532    -4146.699532  0.000002 -3.775075  0.000008
     spin moment: S , {S} =    0.00000  -0.00000  -0.00000  -0.00000
   scf:   28    -4146.699532    -4146.699532    -4146.699532  0.000001 -3.775075  0.000005
     spin moment: S , {S} =    0.00000  -0.00000  -0.00000  -0.00000
   scf:   29    -4146.699532    -4146.699532    -4146.699532  0.000001 -3.775075  0.000003
     spin moment: S , {S} =    0.00000  -0.00000  -0.00000  -0.00000
   scf:   30    -4146.699532    -4146.699532    -4146.699532  0.000000 -3.775075  0.000001
     spin moment: S , {S} =    0.00000  -0.00000  -0.00000  -0.00000
   scf:   31    -4146.699532    -4146.699532    -4146.699532  0.000000 -3.775075  0.000001
     spin moment: S , {S} =    0.00000  -0.00000  -0.00000  -0.00000

SCF Convergence by DM+H criterion
max |DM_out - DM_in|         :     0.0000001871
max |H_out - H_in|      (eV) :     0.0000006334
SCF cycle converged after 31 iterations

Using DM_out to compute the final energy and forces
No. of atoms with KB's overlaping orbs in proc 0. Max # of overlaps:      29     162

siesta: E_KS(eV) =            -4146.6995

siesta: E_KS - E_eggbox =     -4146.6995
     spin moment: S , {S} =    0.00000  -0.00000  -0.00000  -0.00000

siesta: Atomic forces (eV/Ang):
     1    2.341863    1.036883   -0.000000
     2   -0.005747    0.028615    0.000000
     3    0.718753   -0.336890   -0.000000
     4    0.680490   -0.014656   -0.000000
     5    0.034291   -0.088301    0.000000
     6    1.720628    0.665374    0.000000
     7    0.041862   -0.238912    0.000000
     8   -0.375920    0.263870    0.000000
     9   -0.155421    1.172284   -0.000000
    10   -0.918316    0.344435   -0.000000
    11   -0.020191   -0.019291   -0.000000
    12   -0.299865   -0.246324    0.000000
    13    0.006397    0.048936    0.000000
    14    0.186186   -0.086402    0.000000
    15   -1.379151   -0.861796   -0.000000
    16   -0.124165    0.150304    0.000000
    17    0.918782   -1.034990   -0.000000
    18   -0.199630    0.185978    0.000000
    19   -0.182235   -1.129437   -0.000000
    20   -0.017030   -0.382531   -0.000000
    21   -0.277977    0.941541    0.000000
    22   -2.168882   -0.930599    0.000000
    23    0.236258    0.480341   -0.000000
    24   -0.026549   -0.148912    0.000000
    25    0.137418    0.005795    0.000000
    26   -0.240484   -0.199914   -0.000000
    27    1.542661    1.316795   -0.000000
    28   -2.269293    1.631999    0.000000
    29    0.040463    0.060398    0.000000
----------------------------------------
   Tot   -0.054805    2.614592   -0.000000
----------------------------------------
   Max    2.341863
   Res    0.668779    sqrt( Sum f_i^2 / 3N )
----------------------------------------
   Max    2.341863    constrained

Stress tensor Voigt[x,y,z,yz,xz,xy] (kbar):        0.19        1.51       -0.10        0.00       -0.00        1.52
(Free)E + p*V (eV/cell)    -4148.3742
Target enthalpy (eV/cell)    -4146.6995

mulliken: Atomic and Orbital Populations:

Species: O                   

Atom      Orb        Charge      Spin       Svec
----------------------------------------------------------------
    1  1 2s         1.74585   0.00000     -0.000   0.000  -0.000
    1  2 2s         0.06645   0.00000      0.000  -0.000  -0.000
    1  3 2py        1.43453   0.00000     -0.000   0.000  -0.000
    1  4 2pz        1.55254   0.00000      0.000  -0.000  -0.000
    1  5 2px        1.62920   0.00000      0.000  -0.000  -0.000
    1  6 2py        0.03580   0.00000      0.000  -0.000   0.000
    1  7 2pz       -0.00754   0.00000     -0.000  -0.000   0.000
    1  8 2px        0.00314   0.00000     -0.000   0.000   0.000
    1  9 3Pdxy      0.00680   0.00000     -0.000   0.000   0.000
    1 10 3Pdyz      0.00883   0.00000     -0.000  -0.000   0.000
    1 11 3Pdz2      0.00153   0.00000     -0.000  -0.000  -0.000
    1 12 3Pdxz      0.00034   0.00000     -0.000   0.000   0.000
    1 13 3Pdx2-y2   0.00681   0.00000      0.000  -0.000   0.000
    1     Total     6.48427   0.00000      0.000  -0.000  -0.000

   28  1 2s         1.74315   0.00000     -0.000  -0.000  -0.000
   28  2 2s         0.06801   0.00000      0.000   0.000   0.000
   28  3 2py        1.41652   0.00000      0.000   0.000   0.000
   28  4 2pz        1.55147   0.00000      0.000   0.000  -0.000
   28  5 2px        1.64700   0.00000      0.000   0.000   0.000
   28  6 2py        0.03898   0.00000     -0.000   0.000   0.000
   28  7 2pz       -0.00581   0.00000     -0.000  -0.000   0.000
   28  8 2px        0.00809   0.00000     -0.000  -0.000   0.000
   28  9 3Pdxy      0.00626   0.00000      0.000  -0.000  -0.000
   28 10 3Pdyz      0.00956   0.00000     -0.000  -0.000  -0.000
   28 11 3Pdz2      0.00121   0.00000      0.000   0.000   0.000
   28 12 3Pdxz     -0.00019   0.00000     -0.000   0.000  -0.000
   28 13 3Pdx2-y2   0.00764   0.00000      0.000  -0.000   0.000
   28     Total     6.49191   0.00000      0.000   0.000  -0.000

----------------------------------------------------------------
Total              12.97617   0.00000      0.000   0.000  -0.000


Species: N                   

Atom      Orb        Charge      Spin       Svec
----------------------------------------------------------------
    2  1 2s         1.55061   0.00000      0.000   0.000  -0.000
    2  2 2s         0.08442   0.00000     -0.000  -0.000   0.000
    2  3 2py        1.04432   0.00000      0.000  -0.000  -0.000
    2  4 2pz        1.22432   0.00000      0.000   0.000  -0.000
    2  5 2px        0.99070   0.00000     -0.000  -0.000  -0.000
    2  6 2py        0.18822   0.00000     -0.000   0.000   0.000
    2  7 2pz        0.05533   0.00000     -0.000  -0.000   0.000
    2  8 2px        0.19561   0.00000      0.000   0.000   0.000
    2  9 3Pdxy      0.00837   0.00000      0.000   0.000   0.000
    2 10 3Pdyz      0.01098   0.00000     -0.000   0.000   0.000
    2 11 3Pdz2      0.00194   0.00000      0.000  -0.000   0.000
    2 12 3Pdxz      0.00758   0.00000     -0.000  -0.000   0.000
    2 13 3Pdx2-y2   0.00907   0.00000     -0.000   0.000  -0.000
    2     Total     5.37148   0.00000      0.000   0.000  -0.000

    3  1 2s         1.39883   0.00000      0.000   0.000  -0.000
    3  2 2s         0.11723   0.00000     -0.000  -0.000   0.000
    3  3 2py        0.94205   0.00000     -0.000   0.000  -0.000
    3  4 2pz        1.54411   0.00000      0.000   0.000  -0.000
    3  5 2px        1.08432   0.00000      0.000   0.000  -0.000
    3  6 2py        0.24849   0.00000      0.000  -0.000   0.000
    3  7 2pz        0.00671   0.00000     -0.000  -0.000   0.000
    3  8 2px        0.17772   0.00000      0.000   0.000   0.000
    3  9 3Pdxy      0.00393   0.00000      0.000   0.000   0.000
    3 10 3Pdyz      0.00411   0.00000     -0.000  -0.000  -0.000
    3 11 3Pdz2      0.00073   0.00000     -0.000  -0.000   0.000
    3 12 3Pdxz      0.00275   0.00000     -0.000  -0.000  -0.000
    3 13 3Pdx2-y2   0.00275   0.00000     -0.000  -0.000  -0.000
    3     Total     5.53374   0.00000      0.000   0.000  -0.000

    4  1 2s         1.46025   0.00000     -0.000  -0.000  -0.000
    4  2 2s         0.11879   0.00000      0.000   0.000   0.000
    4  3 2py        1.13020   0.00000     -0.000   0.000  -0.000
    4  4 2pz        1.29505   0.00000      0.000   0.000  -0.000
    4  5 2px        0.82613   0.00000      0.000   0.000  -0.000
    4  6 2py        0.14972   0.00000      0.000  -0.000   0.000
    4  7 2pz        0.05340   0.00000     -0.000  -0.000   0.000
    4  8 2px        0.29231   0.00000     -0.000  -0.000   0.000
    4  9 3Pdxy      0.00870   0.00000     -0.000  -0.000   0.000
    4 10 3Pdyz      0.01045   0.00000      0.000  -0.000  -0.000
    4 11 3Pdz2      0.00126   0.00000      0.000  -0.000  -0.000
    4 12 3Pdxz      0.00493   0.00000     -0.000   0.000   0.000
    4 13 3Pdx2-y2   0.00798   0.00000      0.000   0.000  -0.000
    4     Total     5.35917   0.00000     -0.000   0.000  -0.000

    5  1 2s         1.37616   0.00000      0.000  -0.000  -0.000
    5  2 2s         0.12799   0.00000     -0.000   0.000   0.000
    5  3 2py        1.02631   0.00000     -0.000  -0.000  -0.000
    5  4 2pz        1.50078   0.00000      0.000  -0.000  -0.000
    5  5 2px        1.06006   0.00000      0.000  -0.000  -0.000
    5  6 2py        0.20364   0.00000      0.000   0.000   0.000
    5  7 2pz        0.01341   0.00000     -0.000   0.000   0.000
    5  8 2px        0.20105   0.00000     -0.000   0.000   0.000
    5  9 3Pdxy      0.00393   0.00000      0.000   0.000   0.000
    5 10 3Pdyz      0.00242   0.00000     -0.000  -0.000   0.000
    5 11 3Pdz2      0.00142   0.00000      0.000  -0.000   0.000
    5 12 3Pdxz      0.00682   0.00000      0.000   0.000   0.000
    5 13 3Pdx2-y2   0.00560   0.00000     -0.000   0.000   0.000
    5     Total     5.52958   0.00000      0.000  -0.000  -0.000

    6  1 2s         1.26876   0.00000     -0.000   0.000  -0.000
    6  2 2s         0.17979   0.00000      0.000  -0.000   0.000
    6  3 2py        1.07878   0.00000     -0.000   0.000  -0.000
    6  4 2pz        1.56883   0.00000      0.000   0.000  -0.000
    6  5 2px        0.95914   0.00000     -0.000  -0.000  -0.000
    6  6 2py        0.18764   0.00000      0.000  -0.000   0.000
    6  7 2pz        0.03013   0.00000     -0.000  -0.000   0.000
    6  8 2px        0.25542   0.00000      0.000   0.000   0.000
    6  9 3Pdxy      0.00228   0.00000      0.000   0.000   0.000
    6 10 3Pdyz      0.00014   0.00000      0.000  -0.000  -0.000
    6 11 3Pdz2      0.00172   0.00000      0.000  -0.000   0.000
    6 12 3Pdxz      0.00332   0.00000     -0.000  -0.000  -0.000
    6 13 3Pdx2-y2   0.00399   0.00000      0.000  -0.000   0.000
    6     Total     5.53992   0.00000     -0.000  -0.000  -0.000

   21  1 2s         1.42106   0.00000      0.000   0.000   0.000
   21  2 2s         0.12918   0.00000     -0.000  -0.000  -0.000
   21  3 2py        0.87302   0.00000     -0.000  -0.000  -0.000
   21  4 2pz        1.29739   0.00000     -0.000   0.000   0.000
   21  5 2px        1.15898   0.00000     -0.000   0.000  -0.000
   21  6 2py        0.27497   0.00000      0.000   0.000   0.000
   21  7 2pz        0.04846   0.00000     -0.000   0.000   0.000
   21  8 2px        0.16185   0.00000     -0.000  -0.000   0.000
   21  9 3Pdxy      0.00634   0.00000     -0.000   0.000   0.000
   21 10 3Pdyz      0.00495   0.00000      0.000   0.000  -0.000
   21 11 3Pdz2      0.00015   0.00000     -0.000   0.000  -0.000
   21 12 3Pdxz      0.00579   0.00000     -0.000  -0.000  -0.000
   21 13 3Pdx2-y2   0.00561   0.00000     -0.000  -0.000  -0.000
   21     Total     5.38775   0.00000     -0.000   0.000   0.000

   22  1 2s         1.29365   0.00000      0.000   0.000   0.000
   22  2 2s         0.16849   0.00000     -0.000  -0.000  -0.000
   22  3 2py        1.05941   0.00000     -0.000   0.000  -0.000
   22  4 2pz        1.55044   0.00000      0.000   0.000  -0.000
   22  5 2px        0.98795   0.00000      0.000   0.000  -0.000
   22  6 2py        0.19611   0.00000      0.000  -0.000   0.000
   22  7 2pz        0.02860   0.00000      0.000  -0.000   0.000
   22  8 2px        0.23427   0.00000     -0.000   0.000   0.000
   22  9 3Pdxy      0.00316   0.00000     -0.000  -0.000   0.000
   22 10 3Pdyz      0.00033   0.00000     -0.000  -0.000  -0.000
   22 11 3Pdz2      0.00251   0.00000     -0.000  -0.000   0.000
   22 12 3Pdxz      0.00325   0.00000     -0.000  -0.000   0.000
   22 13 3Pdx2-y2   0.00474   0.00000      0.000  -0.000  -0.000
   22     Total     5.53291   0.00000      0.000   0.000  -0.000

   23  1 2s         1.39543   0.00000     -0.000   0.000   0.000
   23  2 2s         0.11873   0.00000      0.000  -0.000  -0.000
   23  3 2py        1.00777   0.00000      0.000   0.000   0.000
   23  4 2pz        1.52661   0.00000      0.000  -0.000  -0.000
   23  5 2px        1.06385   0.00000      0.000   0.000  -0.000
   23  6 2py        0.21136   0.00000     -0.000  -0.000  -0.000
   23  7 2pz        0.00482   0.00000     -0.000  -0.000  -0.000
   23  8 2px        0.19812   0.00000     -0.000  -0.000   0.000
   23  9 3Pdxy      0.00527   0.00000      0.000   0.000   0.000
   23 10 3Pdyz      0.00446   0.00000      0.000  -0.000  -0.000
   23 11 3Pdz2      0.00066   0.00000     -0.000   0.000  -0.000
   23 12 3Pdxz      0.00244   0.00000      0.000  -0.000  -0.000
   23 13 3Pdx2-y2   0.00137   0.00000     -0.000  -0.000  -0.000
   23     Total     5.54089   0.00000      0.000  -0.000  -0.000

----------------------------------------------------------------
Total              56.77162   0.00000      0.000   0.000  -0.000


Species: Si                  

Atom      Orb        Charge      Spin       Svec
----------------------------------------------------------------
    7  1 3s         0.66805   0.00000      0.000  -0.000   0.000
    7  2 3s         0.36459   0.00000     -0.000   0.000   0.000
    7  3 3py        0.48765   0.00000      0.000  -0.000   0.000
    7  4 3pz        0.69348   0.00000     -0.000  -0.000  -0.000
    7  5 3px        0.12503   0.00000     -0.000  -0.000  -0.000
    7  6 3py        0.26479   0.00000      0.000   0.000   0.000
    7  7 3pz        0.25888   0.00000      0.000  -0.000   0.000
    7  8 3px        0.43804   0.00000      0.000   0.000   0.000
    7  9 3Pdxy      0.24544   0.00000      0.000  -0.000   0.000
    7 10 3Pdyz      0.02920   0.00000     -0.000   0.000   0.000
    7 11 3Pdz2      0.01173   0.00000     -0.000   0.000   0.000
    7 12 3Pdxz      0.14551   0.00000      0.000   0.000  -0.000
    7 13 3Pdx2-y2   0.11287   0.00000     -0.000  -0.000  -0.000
    7     Total     3.84526   0.00000      0.000  -0.000   0.000

    8  1 3s         0.65642   0.00000      0.000   0.000   0.000
    8  2 3s         0.36861   0.00000      0.000   0.000   0.000
    8  3 3py        0.38857   0.00000     -0.000  -0.000  -0.000
    8  4 3pz        0.52233   0.00000      0.000   0.000   0.000
    8  5 3px       -0.02990   0.00000      0.000  -0.000  -0.000
    8  6 3py        0.30869   0.00000      0.000   0.000   0.000
    8  7 3pz        0.20247   0.00000     -0.000  -0.000   0.000
    8  8 3px        0.51475   0.00000      0.000   0.000   0.000
    8  9 3Pdxy      0.24636   0.00000      0.000   0.000   0.000
    8 10 3Pdyz      0.11220   0.00000     -0.000   0.000  -0.000
    8 11 3Pdz2      0.01438   0.00000      0.000  -0.000   0.000
    8 12 3Pdxz      0.15385   0.00000     -0.000   0.000   0.000
    8 13 3Pdx2-y2   0.20049   0.00000     -0.000  -0.000  -0.000
    8     Total     3.65922   0.00000      0.000   0.000   0.000

    9  1 3s         0.60389   0.00000     -0.000  -0.000   0.000
    9  2 3s         0.36654   0.00000      0.000   0.000  -0.000
    9  3 3py        0.07622   0.00000     -0.000  -0.000   0.000
    9  4 3pz        0.48499   0.00000      0.000  -0.000  -0.000
    9  5 3px        0.37964   0.00000     -0.000   0.000   0.000
    9  6 3py        0.44629   0.00000      0.000  -0.000   0.000
    9  7 3pz        0.18654   0.00000     -0.000  -0.000   0.000
    9  8 3px        0.27352   0.00000      0.000  -0.000   0.000
    9  9 3Pdxy      0.31106   0.00000      0.000  -0.000   0.000
    9 10 3Pdyz      0.19075   0.00000     -0.000  -0.000  -0.000
    9 11 3Pdz2      0.01623   0.00000      0.000  -0.000   0.000
    9 12 3Pdxz      0.09870   0.00000     -0.000  -0.000  -0.000
    9 13 3Pdx2-y2   0.17289   0.00000      0.000   0.000   0.000
    9     Total     3.60724   0.00000     -0.000  -0.000   0.000

   10  1 3s         0.48141   0.00000     -0.000  -0.000   0.000
   10  2 3s         0.37830   0.00000      0.000   0.000   0.000
   10  3 3py        0.24035   0.00000     -0.000  -0.000   0.000
   10  4 3pz        0.40759   0.00000     -0.000   0.000   0.000
   10  5 3px        0.10097   0.00000     -0.000   0.000  -0.000
   10  6 3py        0.32741   0.00000     -0.000   0.000  -0.000
   10  7 3pz        0.22279   0.00000      0.000  -0.000   0.000
   10  8 3px        0.42996   0.00000      0.000   0.000   0.000
   10  9 3Pdxy      0.16951   0.00000     -0.000   0.000  -0.000
   10 10 3Pdyz      0.13877   0.00000     -0.000   0.000   0.000
   10 11 3Pdz2      0.01019   0.00000     -0.000   0.000   0.000
   10 12 3Pdxz      0.17534   0.00000     -0.000   0.000   0.000
   10 13 3Pdx2-y2   0.30953   0.00000      0.000  -0.000  -0.000
   10     Total     3.39213   0.00000     -0.000  -0.000   0.000

   11  1 3s         0.55273   0.00000     -0.000   0.000   0.000
   11  2 3s         0.38520   0.00000      0.000  -0.000   0.000
   11  3 3py        0.32213   0.00000      0.000   0.000   0.000
   11  4 3pz        0.54153   0.00000      0.000  -0.000   0.000
   11  5 3px        0.12490   0.00000     -0.000   0.000   0.000
   11  6 3py        0.28668   0.00000     -0.000  -0.000   0.000
   11  7 3pz        0.17720   0.00000     -0.000   0.000   0.000
   11  8 3px        0.44598   0.00000     -0.000  -0.000  -0.000
   11  9 3Pdxy      0.22545   0.00000      0.000  -0.000   0.000
   11 10 3Pdyz      0.12646   0.00000     -0.000  -0.000   0.000
   11 11 3Pdz2      0.00960   0.00000     -0.000   0.000   0.000
   11 12 3Pdxz      0.05290   0.00000      0.000  -0.000   0.000
   11 13 3Pdx2-y2   0.20398   0.00000      0.000  -0.000   0.000
   11     Total     3.45474   0.00000     -0.000  -0.000   0.000

   17  1 3s         0.63734   0.00000      0.000   0.000   0.000
   17  2 3s         0.36140   0.00000     -0.000  -0.000  -0.000
   17  3 3py        0.22496   0.00000      0.000  -0.000  -0.000
   17  4 3pz        0.42079   0.00000      0.000  -0.000  -0.000
   17  5 3px        0.24467   0.00000      0.000  -0.000   0.000
   17  6 3py        0.38759   0.00000     -0.000   0.000  -0.000
   17  7 3pz        0.21224   0.00000     -0.000  -0.000   0.000
   17  8 3px        0.36994   0.00000     -0.000   0.000  -0.000
   17  9 3Pdxy      0.30035   0.00000     -0.000  -0.000  -0.000
   17 10 3Pdyz      0.14218   0.00000     -0.000   0.000   0.000
   17 11 3Pdz2      0.00895   0.00000     -0.000  -0.000   0.000
   17 12 3Pdxz      0.14344   0.00000      0.000  -0.000   0.000
   17 13 3Pdx2-y2   0.16412   0.00000      0.000  -0.000   0.000
   17     Total     3.61797   0.00000      0.000  -0.000   0.000

   18  1 3s         0.74363   0.00000      0.000   0.000   0.000
   18  2 3s         0.34017   0.00000     -0.000  -0.000   0.000
   18  3 3py        0.07755   0.00000      0.000  -0.000   0.000
   18  4 3pz        0.81811   0.00000     -0.000   0.000   0.000
   18  5 3px        0.55535   0.00000     -0.000   0.000   0.000
   18  6 3py        0.51936   0.00000     -0.000   0.000   0.000
   18  7 3pz        0.19815   0.00000      0.000  -0.000   0.000
   18  8 3px        0.25070   0.00000      0.000  -0.000   0.000
   18  9 3Pdxy      0.10317   0.00000      0.000  -0.000  -0.000
   18 10 3Pdyz      0.02756   0.00000      0.000  -0.000  -0.000
   18 11 3Pdz2      0.00865   0.00000     -0.000  -0.000  -0.000
   18 12 3Pdxz      0.03041   0.00000      0.000  -0.000  -0.000
   18 13 3Pdx2-y2   0.11244   0.00000     -0.000   0.000  -0.000
   18     Total     3.78524   0.00000     -0.000   0.000   0.000

   19  1 3s         0.46069   0.00000     -0.000   0.000   0.000
   19  2 3s         0.36461   0.00000     -0.000  -0.000  -0.000
   19  3 3py        0.08440   0.00000     -0.000  -0.000   0.000
   19  4 3pz        0.42887   0.00000      0.000  -0.000   0.000
   19  5 3px        0.35827   0.00000      0.000  -0.000   0.000
   19  6 3py        0.46885   0.00000      0.000   0.000  -0.000
   19  7 3pz        0.18240   0.00000      0.000  -0.000   0.000
   19  8 3px        0.23890   0.00000      0.000   0.000  -0.000
   19  9 3Pdxy      0.34179   0.00000     -0.000  -0.000  -0.000
   19 10 3Pdyz      0.18932   0.00000      0.000  -0.000   0.000
   19 11 3Pdz2      0.01593   0.00000      0.000   0.000  -0.000
   19 12 3Pdxz      0.08955   0.00000     -0.000   0.000   0.000
   19 13 3Pdx2-y2   0.23969   0.00000      0.000  -0.000  -0.000
   19     Total     3.46325   0.00000     -0.000  -0.000   0.000

   20  1 3s         0.67391   0.00000     -0.000  -0.000  -0.000
   20  2 3s         0.37773   0.00000      0.000  -0.000  -0.000
   20  3 3py        0.32983   0.00000     -0.000  -0.000  -0.000
   20  4 3pz        0.59312   0.00000     -0.000  -0.000  -0.000
   20  5 3px        0.13851   0.00000      0.000  -0.000  -0.000
   20  6 3py        0.29190   0.00000      0.000  -0.000  -0.000
   20  7 3pz        0.16359   0.00000     -0.000  -0.000  -0.000
   20  8 3px        0.49969   0.00000     -0.000   0.000   0.000
   20  9 3Pdxy      0.09989   0.00000     -0.000  -0.000  -0.000
   20 10 3Pdyz      0.13329   0.00000     -0.000   0.000  -0.000
   20 11 3Pdz2      0.00738   0.00000     -0.000  -0.000   0.000
   20 12 3Pdxz      0.02688   0.00000      0.000  -0.000   0.000
   20 13 3Pdx2-y2   0.17251   0.00000      0.000   0.000  -0.000
   20     Total     3.50823   0.00000     -0.000  -0.000  -0.000

----------------------------------------------------------------
Total              89.10489   0.00000     -0.000   0.000   0.000


Species: H                   

Atom      Orb        Charge      Spin       Svec
----------------------------------------------------------------
   12  1 1s         0.49252   0.00000     -0.000  -0.000  -0.000
   12  2 1s         0.18228   0.00000     -0.000  -0.000   0.000
   12  3 2Ppy       0.02901   0.00000      0.000   0.000   0.000
   12  4 2Ppz       0.03321   0.00000     -0.000  -0.000  -0.000
   12  5 2Ppx       0.02313   0.00000      0.000  -0.000   0.000
   12     Total     0.76014   0.00000     -0.000  -0.000   0.000

   13  1 1s         1.01933   0.00000      0.000  -0.000  -0.000
   13  2 1s         0.09544   0.00000      0.000   0.000   0.000
   13  3 2Ppy       0.01808   0.00000      0.000  -0.000  -0.000
   13  4 2Ppz       0.02012   0.00000      0.000   0.000   0.000
   13  5 2Ppx       0.03509   0.00000     -0.000   0.000   0.000
   13     Total     1.18807   0.00000      0.000  -0.000  -0.000

   14  1 1s         0.46118   0.00000      0.000  -0.000   0.000
   14  2 1s         0.19993   0.00000     -0.000   0.000   0.000
   14  3 2Ppy       0.01804   0.00000     -0.000  -0.000  -0.000
   14  4 2Ppz       0.04550   0.00000     -0.000  -0.000   0.000
   14  5 2Ppx       0.01720   0.00000     -0.000   0.000   0.000
   14     Total     0.74186   0.00000     -0.000  -0.000   0.000

   15  1 1s         0.48835   0.00000     -0.000   0.000   0.000
   15  2 1s         0.17938   0.00000      0.000  -0.000   0.000
   15  3 2Ppy       0.00547   0.00000      0.000   0.000   0.000
   15  4 2Ppz       0.04014   0.00000     -0.000  -0.000  -0.000
   15  5 2Ppx       0.03005   0.00000     -0.000   0.000   0.000
   15     Total     0.74339   0.00000     -0.000   0.000   0.000

   16  1 1s         0.50978   0.00000      0.000   0.000   0.000
   16  2 1s         0.18732   0.00000     -0.000  -0.000   0.000
   16  3 2Ppy       0.02981   0.00000     -0.000   0.000   0.000
   16  4 2Ppz       0.03979   0.00000     -0.000   0.000   0.000
   16  5 2Ppx       0.02359   0.00000     -0.000   0.000  -0.000
   16     Total     0.79028   0.00000     -0.000   0.000   0.000

   24  1 1s         1.06255   0.00000      0.000  -0.000  -0.000
   24  2 1s         0.07455   0.00000     -0.000   0.000   0.000
   24  3 2Ppy       0.03220   0.00000     -0.000  -0.000  -0.000
   24  4 2Ppz       0.03058   0.00000      0.000   0.000   0.000
   24  5 2Ppx       0.01729   0.00000      0.000  -0.000  -0.000
   24     Total     1.21717   0.00000      0.000   0.000  -0.000

   25  1 1s         1.04294   0.00000      0.000  -0.000   0.000
   25  2 1s         0.08656   0.00000     -0.000   0.000  -0.000
   25  3 2Ppy       0.01225   0.00000      0.000  -0.000   0.000
   25  4 2Ppz       0.01855   0.00000      0.000  -0.000  -0.000
   25  5 2Ppx       0.03567   0.00000      0.000   0.000   0.000
   25     Total     1.19598   0.00000      0.000  -0.000  -0.000

   26  1 1s         0.47422   0.00000      0.000  -0.000  -0.000
   26  2 1s         0.19637   0.00000     -0.000  -0.000   0.000
   26  3 2Ppy       0.02109   0.00000      0.000  -0.000  -0.000
   26  4 2Ppz       0.04849   0.00000      0.000   0.000  -0.000
   26  5 2Ppx       0.01601   0.00000      0.000   0.000  -0.000
   26     Total     0.75617   0.00000      0.000   0.000  -0.000

   27  1 1s         0.50164   0.00000      0.000  -0.000  -0.000
   27  2 1s         0.16985   0.00000     -0.000   0.000   0.000
   27  3 2Ppy       0.00751   0.00000     -0.000  -0.000  -0.000
   27  4 2Ppz       0.03545   0.00000      0.000  -0.000  -0.000
   27  5 2Ppx       0.03085   0.00000     -0.000  -0.000  -0.000
   27     Total     0.74529   0.00000     -0.000  -0.000  -0.000

   29  1 1s         0.48523   0.00000     -0.000   0.000   0.000
   29  2 1s         0.18769   0.00000      0.000  -0.000   0.000
   29  3 2Ppy       0.02509   0.00000      0.000  -0.000  -0.000
   29  4 2Ppz       0.03447   0.00000      0.000  -0.000  -0.000
   29  5 2Ppx       0.02427   0.00000      0.000  -0.000   0.000
   29     Total     0.75676   0.00000     -0.000  -0.000   0.000

----------------------------------------------------------------
Total              98.00000   0.00000     -0.000  -0.000  -0.000


siesta: Eigenvalues (eV):
ik =     1
  -21.8963  -21.8963  -21.7946  -21.7946  -21.5709  -21.5709  -21.4998  -21.4998  -21.2224  -21.2224
  -21.0651  -21.0651  -20.7711  -20.7711  -19.7792  -19.7792  -19.4210  -19.4210  -19.3562  -19.3562
  -14.7569  -14.7569  -13.8515  -13.8515  -13.3318  -13.3318  -13.1246  -13.1246  -13.0849  -13.0849
  -12.8437  -12.8437  -12.7370  -12.7370  -12.3804  -12.3804  -12.3533  -12.3533  -12.0244  -12.0244
  -11.3772  -11.3772  -10.8139  -10.8139  -10.7229  -10.7229  -10.6723  -10.6723  -10.1115  -10.1115
   -9.5576   -9.5576   -9.2014   -9.2014   -8.8543   -8.8543   -8.7044   -8.7044   -8.6657   -8.6657
   -8.5907   -8.5907   -8.4209   -8.4209   -8.1571   -8.1571   -7.8047   -7.8047   -7.6808   -7.6808
   -7.6442   -7.6442   -7.3218   -7.3218   -7.2698   -7.2698   -6.8270   -6.8270   -6.7826   -6.7826
   -6.5463   -6.5463   -6.5026   -6.5026   -6.1421   -6.1421   -6.1055   -6.1055   -6.0950   -6.0950
   -5.8441   -5.8441   -5.6888   -5.6888   -5.4818   -5.4818   -4.3020   -4.3020   -3.2474   -3.2474
   -2.3174   -2.3174   -2.3035   -2.3035   -2.2247   -2.2247   -1.8543   -1.8543   -1.8498   -1.8498
   -1.8236   -1.8236   -1.7873   -1.7873   -1.5771   -1.5771   -1.4763   -1.4763   -1.0261   -1.0261
   -0.9480   -0.9480   -0.7769   -0.7769   -0.3635   -0.3635   -0.2182   -0.2182    0.0671    0.0671
    0.4279    0.4279    0.4514    0.4514    0.5806    0.5806    0.7172    0.7172    0.8146    0.8146
    1.0401    1.0401    1.2479    1.2479    1.3283    1.3283    1.4333    1.4333    1.4470    1.4470
    1.7088    1.7088    1.8587    1.8587    1.9445    1.9445    2.3809    2.3809    2.7505    2.7505
    2.7566    2.7566    2.8265    2.8265    2.9533    2.9533    3.2122    3.2122    3.4108    3.4108
    3.4126    3.4126    3.8011    3.8011    3.9220    3.9220    4.0773    4.0773    4.3639    4.3639
    4.4034    4.4034    4.5303    4.5303    4.5783    4.5783    4.6185    4.6185    4.9007    4.9007
    4.9183    4.9183    5.0620    5.0620    5.2674    5.2674    5.4981    5.4981    5.6709    5.6709
    5.7405    5.7405    5.7872    5.7872    5.9940    5.9940    6.0311    6.0311    6.1584    6.1584
    6.1768    6.1768    6.3591    6.3591    6.5955    6.5955    6.7553    6.7553    6.8226    6.8226
    7.0358    7.0358    7.2149    7.2149    7.4244    7.4244    7.5888    7.5888    7.7357    7.7357
    7.8378    7.8378    8.0472    8.0472    8.0726    8.0726    8.2717    8.2717    8.3226    8.3226
    8.5909    8.5909    8.7158    8.7158    8.8077    8.8077    8.9424    8.9424    9.2025    9.2025
    9.2583    9.2583    9.3506    9.3506    9.7534    9.7534    9.8378    9.8378    9.8490    9.8490
   10.0236   10.0236   10.1539   10.1539   10.4581   10.4581   10.8273   10.8273   10.9829   10.9829
   11.0998   11.0998   11.1132   11.1132   11.1620   11.1620   11.7365   11.7365   11.8298   11.8298
   11.9225   11.9225   12.0255   12.0255   12.3205   12.3205   12.4475   12.4475   12.5374   12.5374
   12.6930   12.6930   12.7264   12.7264   13.4677   13.4677   13.5078   13.5078   13.6966   13.6966
   13.8466   13.8466   14.0355   14.0355   14.2789   14.2789   14.5912   14.5912   14.8509   14.8509
   14.8520   14.8520   15.3095   15.3095   16.0041   16.0041   16.4457   16.4457   16.6586   16.6586
   16.9718   16.9718   17.4712   17.4712   17.6160   17.6160   18.3435   18.3435   18.3849   18.3849
   18.5786   18.5786   19.0398   19.0398   19.3925   19.3925   19.9864   19.9864   20.2356   20.2356
   20.8921   20.8921   21.3171   21.3171   21.8331   21.8331   22.0916   22.0916   22.5277   22.5277
   23.1292   23.1292   23.4072   23.4072   23.7553   23.7553   23.9448   23.9448   23.9993   23.9993
   24.8856   24.8856   25.2352   25.2352   26.0264   26.0264   26.8810   26.8810   27.8365   27.8365
   28.8803   28.8803   28.9857   28.9857   29.1647   29.1647   29.5156   29.5156   29.7656   29.7656
   30.1145   30.1145   30.3329   30.3329   30.4431   30.4431   30.7814   30.7814   31.0176   31.0176
   31.1038   31.1038   31.2006   31.2006   31.4731   31.4731   31.9257   31.9257   32.2138   32.2138
   33.2087   33.2087   33.9384   33.9384   34.5398   34.5398   34.5810   34.5810   34.7854   34.7854
   34.9327   34.9327   35.0231   35.0231   35.3848   35.3848   35.6651   35.6651   35.6883   35.6883
   36.9271   36.9271   36.9655   36.9655   37.1933   37.1933   37.3585   37.3585   37.9407   37.9407
   38.3005   38.3005   38.6998   38.6998   39.2748   39.2748   39.5643   39.5643   40.0411   40.0411
   40.4349   40.4349   40.4934   40.4934   40.7572   40.7572   40.9270   40.9270   41.4805   41.4805
   41.5041   41.5041   41.9282   41.9282   42.5803   42.5803   42.8756   42.8756   42.9726   42.9726
   43.3139   43.3139   43.7546   43.7546   44.1297   44.1297   44.2187   44.2187   44.2528   44.2528
   44.7077   44.7077   44.8373   44.8373   45.1995   45.1995   45.5759   45.5759   46.0364   46.0364
   46.6565   46.6565   47.1640   47.1640   47.2190   47.2190   48.5770   48.5770   49.4204   49.4204
   49.5301   49.5301   50.2614   50.2614   50.5793   50.5793   50.6651   50.6651   51.0346   51.0346
   51.4320   51.4320   51.8515   51.8515   52.5271   52.5271   53.1727   53.1727   54.1736   54.1736
   54.5594   54.5594   54.6519   54.6519   55.3462   55.3462   55.7757   55.7757   56.0858   56.0858
   56.3192   56.3192   56.5058   56.5058   56.6278   56.6278   58.3570   58.3570   58.5609   58.5609
   59.2394   59.2394   60.3119   60.3119   60.5612   60.5612   61.1963   61.1963   61.7329   61.7329
   61.7660   61.7660   62.2538   62.2538   62.5633   62.5633   64.5827   64.5827   66.4790   66.4790
   67.2497   67.2497   67.4854   67.4854   68.1326   68.1326   69.0240   69.0240   70.8817   70.8817
   74.2195   74.2195   80.7774   80.7774   91.2210   91.2210   91.9204   91.9204   93.4792   93.4792
   98.4786   98.4786   99.5191   99.5191   99.7009   99.7009  103.4577  103.4577  104.0315  104.0315
  110.3393  110.3393  112.1930  112.1930  123.7281  123.7281  125.7643  125.7643  130.4122  130.4122
  135.3386  135.3386  138.6191  138.6191
siesta: Fermi energy =      -3.775075 eV

siesta: Program's energy decomposition (eV):
siesta: Ebs     =     -1133.508417
siesta: Eions   =      3585.165840
siesta: Ena     =       382.017313
siesta: Ekin    =      2903.475120
siesta: Enl     =     -2788.467568
siesta: Eso     =        -0.004278
siesta: Edftu   =         0.000000
siesta: DEna    =        47.107070
siesta: DUscf   =        14.257406
siesta: DUext   =         0.000000
siesta: Exc     =     -1119.918755
siesta: eta*DQ  =         0.000000
siesta: Emadel  =         0.000000
siesta: Emeta   =         0.000000
siesta: Emolmec =         0.000000
siesta: Ekinion =         0.000000
siesta: Eharris =     -4146.699532
siesta: Etot    =     -4146.699532
siesta: FreeEng =     -4146.699532

siesta: Final energy (eV):
siesta:  Band Struct. =   -1133.508417
siesta:       Kinetic =    2903.475120
siesta:       Hartree =    8358.580890
siesta:       Edftu   =       0.000000
siesta:       Eso     =      -0.004278
siesta:    Ext. field =       0.000000
siesta:   Exch.-corr. =   -1119.918755
siesta:  Ion-electron =  -19300.362590
siesta:       Ion-ion =    5011.530082
siesta:       Ekinion =       0.000000
siesta:         Total =   -4146.699532
siesta:         Fermi =      -3.775075

siesta: Atomic forces (eV/Ang):
siesta:      1    2.341863    1.036883   -0.000000
siesta:      2   -0.005747    0.028615    0.000000
siesta:      3    0.718753   -0.336890   -0.000000
siesta:      4    0.680490   -0.014656   -0.000000
siesta:      5    0.034291   -0.088301    0.000000
siesta:      6    1.720628    0.665374    0.000000
siesta:      7    0.041862   -0.238912    0.000000
siesta:      8   -0.375920    0.263870    0.000000
siesta:      9   -0.155421    1.172284   -0.000000
siesta:     10   -0.918316    0.344435   -0.000000
siesta:     11   -0.020191   -0.019291   -0.000000
siesta:     12   -0.299865   -0.246324    0.000000
siesta:     13    0.006397    0.048936    0.000000
siesta:     14    0.186186   -0.086402    0.000000
siesta:     15   -1.379151   -0.861796   -0.000000
siesta:     16   -0.124165    0.150304    0.000000
siesta:     17    0.918782   -1.034990   -0.000000
siesta:     18   -0.199630    0.185978    0.000000
siesta:     19   -0.182235   -1.129437   -0.000000
siesta:     20   -0.017030   -0.382531   -0.000000
siesta:     21   -0.277977    0.941541    0.000000
siesta:     22   -2.168882   -0.930599    0.000000
siesta:     23    0.236258    0.480341   -0.000000
siesta:     24   -0.026549   -0.148912    0.000000
siesta:     25    0.137418    0.005795    0.000000
siesta:     26   -0.240484   -0.199914   -0.000000
siesta:     27    1.542661    1.316795   -0.000000
siesta:     28   -2.269293    1.631999    0.000000
siesta:     29    0.040463    0.060398    0.000000
siesta: ----------------------------------------
siesta:    Tot   -0.054805    2.614592   -0.000000

siesta: Stress tensor (static) (eV/Ang**3):
siesta:     0.000117    0.000948   -0.000000
siesta:     0.000948    0.000943   -0.000000
siesta:    -0.000000    0.000000   -0.000065

siesta: Cell volume =       5051.333861 Ang**3

siesta: Pressure (static):
siesta:                Solid            Molecule  Units
siesta:          -0.00000361          0.00001052  Ry/Bohr**3
siesta:          -0.00033153          0.00096555  eV/Ang**3
siesta:          -0.53116904          1.54699443  kBar
(Free)E+ p_basis*V_orbitals  =       -4126.849114
(Free)Eharris+ p_basis*V_orbitals  =       -4126.849114
     spin moment: S , {S} =    0.00000  -0.00000  -0.00000  -0.00000

siesta: Electric dipole (a.u.)  =    1.605305    0.079313    0.000000
siesta: Electric dipole (Debye) =    4.080281    0.201593    0.000000

cite: Please see "GC.bib" for an exhaustive BiBTeX file.
cite: Please clearly indicate Siesta version in published work: v4.1.5-1-g384057250
cite: This calculation has made use of the following articles
cite: which are encouraged to be cited in a published work.
        Primary SIESTA paper
          DOI: www.doi.org/10.1088/0953-8984/14/11/302
        Spin-orbit coupling (on-site approximation)
          DOI: www.doi.org/10.1088/0953-8984/19/19/489001


WARNING: alloc-realloc-dealloc name mismatch
         Name: atomlist isa
         Size:              -116. Bytes
         Node:     0
         Subsequent mismatches will not be reported
>> End of run:  28-JUN-2023  19:41:44
Job completed
