Siesta Version  : v4.1.5-1-g384057250
Architecture    : gcc
Compiler version: GNU Fortran (Ubuntu 11.3.0-1ubuntu1~22.04) 11.3.0
Compiler flags  : mpifort -O2 -fPIC -ftree-vectorize -fallow-argument-mismatch
PP flags        : -DFC_HAVE_ABORT -DMPI -DSIESTA__FLOOK -DSIESTA__METIS -DSIESTA__MUMPS -DCDF -DNCDF -DNCDF_4 -DNCDF_PARALLEL -DSIESTA__MRRR -DSIESTA__ELPA
Libraries       : libncdf.a libfdict.a  -lflookall -ldl -lnetcdff -lnetcdf -lhdf5_hl -lhdf5 -lhdf5_fortran -lz -lscalapack-openmpi -lopenblas -lmetis -lzmumps -lcmumps -ldmumps -lmumps_common -lpord -lsmumps -lesmumps -lscotch -lscotcherr -fopenmp -lelpa
PARALLEL version
NetCDF support
NetCDF-4 support
NetCDF-4 MPI-IO support
METIS ordering support
Lua support

* Running on 4 nodes in parallel
>> Start of run:  22-MAY-2023  19:31:34

                           ***********************       
                           *  WELCOME TO SIESTA  *       
                           ***********************       

reinit: Reading from standard input
reinit: Dumped input in INPUT_TMP.19165
************************** Dump of input data file ****************************
SystemLabel      GC
NumberOfAtoms    29
NumberOfSpecies  4
%block ChemicalSpeciesLabel
    1    8  O
    2    7  N
    3   14  Si
    4    1  H
%endblock ChemicalSpeciesLabel
# Single point calculation
MD.TypeOfRun                CG
MD.Steps                    0
SCF.MustConverge            F # In case it does not. There can be 2 very close atoms
AtomicCoordinatesFormat NotScaledCartesianAng
%block AtomicCoordinatesAndAtomicSpecies
0.854927710    3.902811360    0.000000000       1
-3.151486600   0.823854130    0.000000000       2
1.928518680    1.174000900    0.000000000       2
0.979899500    -1.830275890   0.000000000       2
-2.159258930   -2.028004800   0.000000000       2
3.785319770    -1.112700660   0.000000000       2
-1.345933810   0.976250250    0.000000000       3
-0.599439880   -1.096077170   0.000000000       3
0.453182890    2.350510230    0.000000000       3
2.133302030    -0.576510800   0.000000000       3
-3.516065660   -0.842056510   0.000000000       3
2.824527830    1.754723110    0.000000000       4
-4.877551690   -1.469214660   0.000000000       4
3.994952020    -2.143204000   0.000000000       4
4.620903610    -0.483666060   0.000000000       4
-2.279085180   -3.081514090   0.000000000       4
7.378567214    6.860247825    -0.000000000      3
9.247526704    8.119891455    -0.000000000      3
8.788594324    4.118509605    -0.000000000      3
10.856187044   6.625100825    -0.000000000      3
7.438097164    5.175295365    -0.000000000      2
5.748568014    7.490308055    -0.000000000      2
10.432483194   4.909600015    -0.000000000      2
9.527890404    9.590113975    -0.000000000      4
12.351598424   6.843953365    -0.000000000      4
5.504109024    8.508774005    -0.000000000      4
4.921826834    6.833459925    -0.000000000      4
8.847870084    2.536067575    -0.000000000      1
11.204138784   4.182632655    -0.000000000      4
%endblock AtomicCoordinatesAndAtomicSpecies
%include ../../../Defaults.fdf
************************** End of input data file *****************************

reinit: -----------------------------------------------------------------------
reinit: System Name: 
reinit: -----------------------------------------------------------------------
reinit: System Label: GC
reinit: -----------------------------------------------------------------------

initatom: Reading input for the pseudopotentials and atomic orbitals ----------
Species number:   1 Atomic number:    8 Label: O
Species number:   2 Atomic number:    7 Label: N
Species number:   3 Atomic number:   14 Label: Si
Species number:   4 Atomic number:    1 Label: H

Ground state valence configuration:   2s02  2p04
Reading pseudopotential information in formatted form from O.psf

Pseudopotential generated from a relativistic atomic calculation

Valence configuration for pseudopotential generation:
2s( 2.00) rc: 0.45
2p( 4.00) rc: 0.92
3d( 0.00) rc: 2.24
4f( 0.00) rc: 0.25
Ground state valence configuration:   2s02  2p03
Reading pseudopotential information in formatted form from N.psf

Pseudopotential generated from a relativistic atomic calculation

Valence configuration for pseudopotential generation:
2s( 2.00) rc: 0.94
2p( 3.00) rc: 0.59
3d( 0.00) rc: 3.46
4f( 0.00) rc: 2.47
Ground state valence configuration:   3s02  3p02
Reading pseudopotential information in formatted form from Si.psf

Pseudopotential generated from a relativistic atomic calculation

Valence configuration for pseudopotential generation:
3s( 2.00) rc: 1.67
3p( 2.00) rc: 2.04
3d( 0.00) rc: 2.89
4f( 0.00) rc: 2.49
Ground state valence configuration:   1s01
Reading pseudopotential information in formatted form from H.psf

Pseudopotential generated from a relativistic atomic calculation

Valence configuration for pseudopotential generation:
1s( 1.00) rc: 0.01
2p( 0.00) rc: 0.60
3d( 0.00) rc: 1.99
4f( 0.00) rc: 2.49
For O, standard SIESTA heuristics set lmxkb to 3
 (one more than the basis l, including polarization orbitals).
Use PS.lmax or PS.KBprojectors blocks to override.
For N, standard SIESTA heuristics set lmxkb to 3
 (one more than the basis l, including polarization orbitals).
Use PS.lmax or PS.KBprojectors blocks to override.
For Si, standard SIESTA heuristics set lmxkb to 3
 (one more than the basis l, including polarization orbitals).
Use PS.lmax or PS.KBprojectors blocks to override.
For H, standard SIESTA heuristics set lmxkb to 2
 (one more than the basis l, including polarization orbitals).
Use PS.lmax or PS.KBprojectors blocks to override.

<basis_specs>
===============================================================================
O                    Z=   8    Mass=  16.000        Charge= 0.17977+309
Lmxo=1 Lmxkb= 3    BasisType=split      Semic=F
L=0  Nsemic=0  Cnfigmx=2
          i=1  nzeta=2  polorb=0  (2s)
            splnorm:   0.28000    
               vcte:    0.0000    
               rinn:    0.0000    
               qcoe:    0.0000    
               qyuk:    0.0000    
               qwid:   0.10000E-01
                rcs:    0.0000      0.0000    
            lambdas:    1.0000      1.0000    
L=1  Nsemic=0  Cnfigmx=2
          i=1  nzeta=2  polorb=1  (2p)
            splnorm:   0.28000    
               vcte:    0.0000    
               rinn:    0.0000    
               qcoe:    0.0000    
               qyuk:    0.0000    
               qwid:   0.10000E-01
                rcs:    0.0000      0.0000    
            lambdas:    1.0000      1.0000    
-------------------------------------------------------------------------------
L=0  Nkbl=1  erefs: 0.17977+309
L=1  Nkbl=1  erefs: 0.17977+309
L=2  Nkbl=1  erefs: 0.17977+309
L=3  Nkbl=1  erefs: 0.17977+309
===============================================================================
</basis_specs>

atom: Called for O                     (Z =   8)

read_vps: Pseudopotential generation method:
read_vps: ATM4.2.7  Troullier-Martins                       
Valence charge for ps generation:    6.00000

xc_check: Exchange-correlation functional:
xc_check: GGA Perdew, Burke & Ernzerhof 1996
V l=0 = -2*Zval/r beyond r=  1.1000
V l=1 = -2*Zval/r beyond r=  1.1000
V l=2 = -2*Zval/r beyond r=  2.2154
V l=3 = -2*Zval/r beyond r=  1.1000
All V_l potentials equal beyond r=  2.2154
This should be close to max(r_c) in ps generation
All pots = -2*Zval/r beyond r=  2.2154

VLOCAL1: 99.0% of the norm of Vloc inside      8.845 Ry
VLOCAL1: 99.9% of the norm of Vloc inside     20.157 Ry
atom: Maximum radius for 4*pi*r*r*local-pseudopot. charge    2.67231
atom: Maximum radius for r*vlocal+2*Zval:    2.32897
GHOST: No ghost state for L =  0
GHOST: No ghost state for L =  1
GHOST: No ghost state for L =  2
GHOST: No ghost state for L =  3

KBgen: Kleinman-Bylander projectors: 
   l= 0   rc=  2.243238   el= -1.759686   Ekb=**********   kbcos= -0.171774
   l= 1   rc=  2.328968   el= -0.663873   Ekb=-14.506792   kbcos= -0.519897
   l= 2   rc=  2.573941   el=  0.002031   Ekb= -1.137373   kbcos= -0.019581
   l= 3   rc=  2.606321   el=  0.003153   Ekb= -1.013546   kbcos= -0.003122

KBgen: Total number of Kleinman-Bylander projectors:   16
atom: -------------------------------------------------------------------------

atom: SANKEY-TYPE ORBITALS:
atom: Selected multiple-zeta basis: split     

SPLIT: Orbitals with angular momentum L= 0

SPLIT: Basis orbitals for state 2s

SPLIT: PAO cut-off radius determined from an
SPLIT: energy shift=  0.002000 Ry

   izeta = 1
                 lambda =    1.000000
                     rc =    4.243912
                 energy =   -1.758270
                kinetic =    3.286084
    potential(screened) =   -5.044353
       potential(ionic) =  -12.921184

   izeta = 2
                 rmatch =    2.187845
              splitnorm =    0.280000
                 energy =   -0.885018
                kinetic =    8.134434
    potential(screened) =   -9.019452
       potential(ionic) =  -17.710645

SPLIT: Orbitals with angular momentum L= 1

SPLIT: Basis orbitals for state 2p

SPLIT: PAO cut-off radius determined from an
SPLIT: energy shift=  0.002000 Ry

   izeta = 1
                 lambda =    1.000000
                     rc =    5.314825
                 energy =   -0.661986
                kinetic =    4.917472
    potential(screened) =   -5.579458
       potential(ionic) =  -13.236259

   izeta = 2
                 rmatch =    2.160663
              splitnorm =    0.280000
                 energy =   -0.068760
                kinetic =    9.183374
    potential(screened) =   -9.252135
       potential(ionic) =  -18.274251

POLgen: Perturbative polarization orbital with L=  2

POLgen: Polarization orbital for state 2p

   izeta = 1
                     rc =    5.314825
                 energy =    1.970580
                kinetic =    3.886128
    potential(screened) =   -1.915547
       potential(ionic) =   -7.749584
atom: Total number of Sankey-type orbitals: 13

atm_pop: Valence configuration (for local Pseudopot. screening):
 2s( 2.00)                                                            
 2p( 4.00)                                                            
Vna: chval, zval:    6.00000   6.00000

Vna:  Cut-off radius for the neutral-atom potential:   5.314825

atom: _________________________________________________________________________

<basis_specs>
===============================================================================
N                    Z=   7    Mass=  14.010        Charge= 0.17977+309
Lmxo=1 Lmxkb= 3    BasisType=split      Semic=F
L=0  Nsemic=0  Cnfigmx=2
          i=1  nzeta=2  polorb=0  (2s)
            splnorm:   0.28000    
               vcte:    0.0000    
               rinn:    0.0000    
               qcoe:    0.0000    
               qyuk:    0.0000    
               qwid:   0.10000E-01
                rcs:    0.0000      0.0000    
            lambdas:    1.0000      1.0000    
L=1  Nsemic=0  Cnfigmx=2
          i=1  nzeta=2  polorb=1  (2p)
            splnorm:   0.28000    
               vcte:    0.0000    
               rinn:    0.0000    
               qcoe:    0.0000    
               qyuk:    0.0000    
               qwid:   0.10000E-01
                rcs:    0.0000      0.0000    
            lambdas:    1.0000      1.0000    
-------------------------------------------------------------------------------
L=0  Nkbl=1  erefs: 0.17977+309
L=1  Nkbl=1  erefs: 0.17977+309
L=2  Nkbl=1  erefs: 0.17977+309
L=3  Nkbl=1  erefs: 0.17977+309
===============================================================================
</basis_specs>

atom: Called for N                     (Z =   7)

read_vps: Pseudopotential generation method:
read_vps: ATM4.2.7  Troullier-Martins                       
Valence charge for ps generation:    5.00000

xc_check: Exchange-correlation functional:
xc_check: GGA Perdew, Burke & Ernzerhof 1996
V l=0 = -2*Zval/r beyond r=  1.2889
V l=1 = -2*Zval/r beyond r=  1.2889
V l=2 = -2*Zval/r beyond r=  3.4178
V l=3 = -2*Zval/r beyond r=  2.4084
All V_l potentials equal beyond r=  3.3753
This should be close to max(r_c) in ps generation
All pots = -2*Zval/r beyond r=  3.4178

VLOCAL1: 99.0% of the norm of Vloc inside      3.810 Ry
VLOCAL1: 99.9% of the norm of Vloc inside      8.683 Ry
atom: Maximum radius for 4*pi*r*r*local-pseudopot. charge    4.02088
atom: Maximum radius for r*vlocal+2*Zval:    3.54838
GHOST: No ghost state for L =  0
GHOST: No ghost state for L =  1
GHOST: No ghost state for L =  2
GHOST: No ghost state for L =  3

KBgen: Kleinman-Bylander projectors: 
   l= 0   rc=  3.417763   el= -1.365098   Ekb= -4.433130   kbcos= -0.707855
   l= 1   rc=  3.375302   el= -0.521201   Ekb=-13.264039   kbcos= -0.535594
   l= 2   rc=  3.872880   el=  0.001991   Ekb= -0.641094   kbcos= -0.062456
   l= 3   rc=  3.970931   el=  0.003093   Ekb= -0.474517   kbcos= -0.018236

KBgen: Total number of Kleinman-Bylander projectors:   16
atom: -------------------------------------------------------------------------

atom: SANKEY-TYPE ORBITALS:
atom: Selected multiple-zeta basis: split     

SPLIT: Orbitals with angular momentum L= 0

SPLIT: Basis orbitals for state 2s

SPLIT: PAO cut-off radius determined from an
SPLIT: energy shift=  0.002000 Ry

   izeta = 1
                 lambda =    1.000000
                     rc =    4.730425
                 energy =   -1.363399
                kinetic =    1.245246
    potential(screened) =   -2.608645
       potential(ionic) =   -8.121105

   izeta = 2
                 rmatch =    2.531849
              splitnorm =    0.280000
                 energy =   -0.959908
                kinetic =    2.409435
    potential(screened) =   -3.369343
       potential(ionic) =   -9.427975

SPLIT: Orbitals with angular momentum L= 1

SPLIT: Basis orbitals for state 2p

SPLIT: PAO cut-off radius determined from an
SPLIT: energy shift=  0.002000 Ry

   izeta = 1
                 lambda =    1.000000
                     rc =    5.924108
                 energy =   -0.519262
                kinetic =    3.672940
    potential(screened) =   -4.192202
       potential(ionic) =   -9.518354

   izeta = 2
                 rmatch =    2.531849
              splitnorm =    0.280000
                 energy =   -0.104258
                kinetic =    6.807538
    potential(screened) =   -6.911796
       potential(ionic) =  -13.149920

POLgen: Perturbative polarization orbital with L=  2

POLgen: Polarization orbital for state 2p

   izeta = 1
                     rc =    5.924108
                 energy =    1.427508
                kinetic =    2.872379
    potential(screened) =   -1.444871
       potential(ionic) =   -5.563644
atom: Total number of Sankey-type orbitals: 13

atm_pop: Valence configuration (for local Pseudopot. screening):
 2s( 2.00)                                                            
 2p( 3.00)                                                            
Vna: chval, zval:    5.00000   5.00000

Vna:  Cut-off radius for the neutral-atom potential:   5.924108

atom: _________________________________________________________________________

<basis_specs>
===============================================================================
Si                   Z=  14    Mass=  28.090        Charge= 0.17977+309
Lmxo=1 Lmxkb= 3    BasisType=split      Semic=F
L=0  Nsemic=0  Cnfigmx=3
          i=1  nzeta=2  polorb=0  (3s)
            splnorm:   0.28000    
               vcte:    0.0000    
               rinn:    0.0000    
               qcoe:    0.0000    
               qyuk:    0.0000    
               qwid:   0.10000E-01
                rcs:    0.0000      0.0000    
            lambdas:    1.0000      1.0000    
L=1  Nsemic=0  Cnfigmx=3
          i=1  nzeta=2  polorb=1  (3p)
            splnorm:   0.28000    
               vcte:    0.0000    
               rinn:    0.0000    
               qcoe:    0.0000    
               qyuk:    0.0000    
               qwid:   0.10000E-01
                rcs:    0.0000      0.0000    
            lambdas:    1.0000      1.0000    
-------------------------------------------------------------------------------
L=0  Nkbl=1  erefs: 0.17977+309
L=1  Nkbl=1  erefs: 0.17977+309
L=2  Nkbl=1  erefs: 0.17977+309
L=3  Nkbl=1  erefs: 0.17977+309
===============================================================================
</basis_specs>

atom: Called for Si                    (Z =  14)

read_vps: Pseudopotential generation method:
read_vps: ATM4.2.7  Troullier-Martins                       
Valence charge for ps generation:    4.00000

xc_check: Exchange-correlation functional:
xc_check: GGA Perdew, Burke & Ernzerhof 1996
V l=0 = -2*Zval/r beyond r=  2.7826
V l=1 = -2*Zval/r beyond r=  2.7826
V l=2 = -2*Zval/r beyond r=  2.9253
V l=3 = -2*Zval/r beyond r=  2.7826
All V_l potentials equal beyond r=  2.8530
This should be close to max(r_c) in ps generation
All pots = -2*Zval/r beyond r=  2.9253

VLOCAL1: 99.0% of the norm of Vloc inside      5.333 Ry
VLOCAL1: 99.9% of the norm of Vloc inside     12.154 Ry
atom: Maximum radius for 4*pi*r*r*local-pseudopot. charge    3.39869
atom: Maximum radius for r*vlocal+2*Zval:    2.96205
GHOST: No ghost state for L =  0
GHOST: No ghost state for L =  1
GHOST: No ghost state for L =  2
GHOST: No ghost state for L =  3

KBgen: Kleinman-Bylander projectors: 
   l= 0   rc=  3.075247   el= -0.794092   Ekb=  5.879390   kbcos=  0.167461
   l= 1   rc=  3.153101   el= -0.300068   Ekb=  2.642817   kbcos=  0.058301
   l= 2   rc=  3.273594   el=  0.001958   Ekb= -1.185135   kbcos= -0.104411
   l= 3   rc=  3.232927   el=  0.003046   Ekb= -0.497174   kbcos= -0.015889

KBgen: Total number of Kleinman-Bylander projectors:   16
atom: -------------------------------------------------------------------------

atom: SANKEY-TYPE ORBITALS:
atom: Selected multiple-zeta basis: split     

SPLIT: Orbitals with angular momentum L= 0

SPLIT: Basis orbitals for state 3s

SPLIT: PAO cut-off radius determined from an
SPLIT: energy shift=  0.002000 Ry

   izeta = 1
                 lambda =    1.000000
                     rc =    6.429618
                 energy =   -0.792283
                kinetic =    0.525293
    potential(screened) =   -1.317576
       potential(ionic) =   -3.744923

   izeta = 2
                 rmatch =    3.998416
              splitnorm =    0.280000
                 energy =   -0.583081
                kinetic =    1.069570
    potential(screened) =   -1.652651
       potential(ionic) =   -4.235185

SPLIT: Orbitals with angular momentum L= 1

SPLIT: Basis orbitals for state 3p

SPLIT: PAO cut-off radius determined from an
SPLIT: energy shift=  0.002000 Ry

   izeta = 1
                 lambda =    1.000000
                     rc =    8.464845
                 energy =   -0.298236
                kinetic =    0.785360
    potential(screened) =   -1.083596
       potential(ionic) =   -3.273779

   izeta = 2
                 rmatch =    4.587816
              splitnorm =    0.280000
                 energy =   -0.131871
                kinetic =    1.403687
    potential(screened) =   -1.535557
       potential(ionic) =   -4.015310

POLgen: Perturbative polarization orbital with L=  2

POLgen: Polarization orbital for state 3p

   izeta = 1
                     rc =    8.464845
                 energy =    0.321949
                kinetic =    1.055677
    potential(screened) =   -0.733728
       potential(ionic) =   -2.672950
atom: Total number of Sankey-type orbitals: 13

atm_pop: Valence configuration (for local Pseudopot. screening):
 3s( 2.00)                                                            
 3p( 2.00)                                                            
Vna: chval, zval:    4.00000   4.00000

Vna:  Cut-off radius for the neutral-atom potential:   8.464845

atom: _________________________________________________________________________

<basis_specs>
===============================================================================
H                    Z=   1    Mass=  1.0100        Charge= 0.17977+309
Lmxo=0 Lmxkb= 2    BasisType=split      Semic=F
L=0  Nsemic=0  Cnfigmx=1
          i=1  nzeta=2  polorb=1  (1s)
            splnorm:   0.62000    
               vcte:    0.0000    
               rinn:    0.0000    
               qcoe:    0.0000    
               qyuk:    0.0000    
               qwid:   0.10000E-01
                rcs:    0.0000      0.0000    
            lambdas:    1.0000      1.0000    
-------------------------------------------------------------------------------
L=0  Nkbl=1  erefs: 0.17977+309
L=1  Nkbl=1  erefs: 0.17977+309
L=2  Nkbl=1  erefs: 0.17977+309
===============================================================================
</basis_specs>

atom: Called for H                     (Z =   1)

read_vps: Pseudopotential generation method:
read_vps: ATM4.2.7  Troullier-Martins                       
Valence charge for ps generation:    1.00000

xc_check: Exchange-correlation functional:
xc_check: GGA Perdew, Burke & Ernzerhof 1996
V l=0 = -2*Zval/r beyond r=  0.0098
V l=1 = -2*Zval/r beyond r=  0.5817
V l=2 = -2*Zval/r beyond r=  1.9372
All V_l potentials equal beyond r=  1.9372
This should be close to max(r_c) in ps generation
All pots = -2*Zval/r beyond r=  1.9372

VLOCAL1: 99.0% of the norm of Vloc inside     11.567 Ry
VLOCAL1: 99.9% of the norm of Vloc inside     26.362 Ry
atom: Maximum radius for 4*pi*r*r*local-pseudopot. charge    2.25106
atom: Maximum radius for r*vlocal+2*Zval:    1.91306
GHOST: No ghost state for L =  0
GHOST: No ghost state for L =  1
GHOST: No ghost state for L =  2

KBgen: Kleinman-Bylander projectors: 
   l= 0   rc=  2.036604   el= -0.477180   Ekb= -6.081590   kbcos= -0.277285
   l= 1   rc=  2.195416   el=  0.001076   Ekb= -0.926943   kbcos= -0.034643
   l= 2   rc=  2.251056   el=  0.002010   Ekb= -0.130941   kbcos= -0.009788

KBgen: Total number of Kleinman-Bylander projectors:    9
atom: -------------------------------------------------------------------------

atom: SANKEY-TYPE ORBITALS:
atom: Selected multiple-zeta basis: split     

SPLIT: Orbitals with angular momentum L= 0

SPLIT: Basis orbitals for state 1s

SPLIT: PAO cut-off radius determined from an
SPLIT: energy shift=  0.002000 Ry

   izeta = 1
                 lambda =    1.000000
                     rc =    6.518340
                 energy =   -0.475305
                kinetic =    0.912139
    potential(screened) =   -1.387444
       potential(ionic) =   -1.907295

   izeta = 2
                 rmatch =    2.141150
              splitnorm =    0.620000
                 energy =    0.566467
                kinetic =    3.772856
    potential(screened) =   -3.206389
       potential(ionic) =   -3.759093

POLgen: Perturbative polarization orbital with L=  1

POLgen: Polarization orbital for state 1s

   izeta = 1
                     rc =    6.518340
                 energy =    0.533861
                kinetic =    1.121086
    potential(screened) =   -0.587225
       potential(ionic) =   -1.053027
atom: Total number of Sankey-type orbitals:  5

atm_pop: Valence configuration (for local Pseudopot. screening):
 1s( 1.00)                                                            
Vna: chval, zval:    1.00000   1.00000

Vna:  Cut-off radius for the neutral-atom potential:   6.518340

atom: _________________________________________________________________________

prinput: Basis input ----------------------------------------------------------

PAO.BasisType split     

%block ChemicalSpeciesLabel
    1    8 O                       # Species index, atomic number, species label
    2    7 N                       # Species index, atomic number, species label
    3   14 Si                      # Species index, atomic number, species label
    4    1 H                       # Species index, atomic number, species label
%endblock ChemicalSpeciesLabel

%block PAO.Basis                 # Define Basis set
O                     2                    # Species label, number of l-shells
 n=2   0   2                         # n, l, Nzeta 
   4.244      2.188   
   1.000      1.000   
 n=2   1   2 P   1                   # n, l, Nzeta, Polarization, NzetaPol
   5.315      2.161   
   1.000      1.000   
N                     2                    # Species label, number of l-shells
 n=2   0   2                         # n, l, Nzeta 
   4.730      2.532   
   1.000      1.000   
 n=2   1   2 P   1                   # n, l, Nzeta, Polarization, NzetaPol
   5.924      2.532   
   1.000      1.000   
Si                    2                    # Species label, number of l-shells
 n=3   0   2                         # n, l, Nzeta 
   6.430      3.998   
   1.000      1.000   
 n=3   1   2 P   1                   # n, l, Nzeta, Polarization, NzetaPol
   8.465      4.588   
   1.000      1.000   
H                     1                    # Species label, number of l-shells
 n=1   0   2 P   1                   # n, l, Nzeta, Polarization, NzetaPol
   6.518      2.141   
   1.000      1.000   
%endblock PAO.Basis

prinput: ----------------------------------------------------------------------

Dumping basis to NetCDF file O.ion.nc
Dumping basis to NetCDF file N.ion.nc
Dumping basis to NetCDF file Si.ion.nc
Dumping basis to NetCDF file H.ion.nc
coor:   Atomic-coordinates input format  =     Cartesian coordinates
coor:                                          (in Angstroms)

siesta: Atomic coordinates (Bohr) and species
siesta:      1.61558   7.37525   0.00000  1        1
siesta:     -5.95545   1.55686   0.00000  2        2
siesta:      3.64437   2.21854   0.00000  2        3
siesta:      1.85174  -3.45872   0.00000  2        4
siesta:     -4.08041  -3.83238   0.00000  2        5
siesta:      7.15322  -2.10270   0.00000  2        6
siesta:     -2.54345   1.84485   0.00000  3        7
siesta:     -1.13278  -2.07129   0.00000  3        8
siesta:      0.85639   4.44182   0.00000  3        9
siesta:      4.03136  -1.08945   0.00000  3       10
siesta:     -6.64440  -1.59126   0.00000  3       11
siesta:      5.33759   3.31595   0.00000  4       12
siesta:     -9.21724  -2.77641   0.00000  4       13
siesta:      7.54937  -4.05007   0.00000  4       14
siesta:      8.73225  -0.91400   0.00000  4       15
siesta:     -4.30685  -5.82322   0.00000  4       16
siesta:     13.94348  12.96399  -0.00000  3       17
siesta:     17.47530  15.34438  -0.00000  3       18
siesta:     16.60804   7.78286  -0.00000  3       19
siesta:     20.51523  12.51963  -0.00000  3       20
siesta:     14.05597   9.77989  -0.00000  2       21
siesta:     10.86322  14.15464  -0.00000  2       22
siesta:     19.71454   9.27780  -0.00000  2       23
siesta:     18.00511  18.12270  -0.00000  4       24
siesta:     23.34115  12.93320  -0.00000  4       25
siesta:     10.40126  16.07926  -0.00000  4       26
siesta:      9.30091  12.91337  -0.00000  4       27
siesta:     16.72006   4.79248  -0.00000  1       28
siesta:     21.17276   7.90403  -0.00000  4       29

siesta: Automatic unit cell vectors (Ang):
siesta:   26.540648    0.000000    0.000000
siesta:    0.000000   21.527374    0.000000
siesta:    0.000000    0.000000    9.854683

siesta: System type = molecule  

initatomlists: Number of atoms, orbitals, and projectors:     29   297   394

siesta: ******************** Simulation parameters ****************************
siesta:
siesta: The following are some of the parameters of the simulation.
siesta: A complete list of the parameters used, including default values,
siesta: can be found in file out.fdf
siesta:
redata: Spin configuration                          = spin-orbit
redata: Number of spin components                   = 8
redata: Time-Reversal Symmetry                      = F
redata: Spin spiral                                 = F
############################################################
This spin-orbit implementation uses a local approximation.
From 4.2 and onwards the full non-local approximation is implemented
You are strongly advised to use >=4.2 versions!
############################################################
redata: Long output                                 =   F
redata: Number of Atomic Species                    =        4
redata: Charge density info will appear in .RHO file
redata: Write Mulliken Pop.                         = Atomic and Orbital charges
redata: Matel table size (NRTAB)                    =     1024
redata: Mesh Cutoff                                 =   340.0000 Ry
redata: Net charge of the system                    =     0.0000 |e|
redata: Min. number of SCF Iter                     =        1
redata: Max. number of SCF Iter                     =      200
redata: SCF mix quantity                            = Hamiltonian
redata: Mix DM or H after convergence               =   F
redata: Recompute H after scf cycle                 =   F
redata: Mix DM in first SCF step                    =   T
redata: Write Pulay info on disk                    =   F
redata: New DM Occupancy tolerance                  = 0.000000000001
redata: No kicks to SCF
redata: DM Mixing Weight for Kicks                  =     0.5000
redata: Require Harris convergence for SCF          =   F
redata: Harris energy tolerance for SCF             =     0.000100 eV
redata: Require DM convergence for SCF              =   T
redata: DM tolerance for SCF                        =     0.000008
redata: Require EDM convergence for SCF             =   F
redata: EDM tolerance for SCF                       =     0.001000 eV
redata: Require H convergence for SCF               =   T
redata: Hamiltonian tolerance for SCF               =     0.000001 eV
redata: Require (free) Energy convergence for SCF   =   F
redata: (free) Energy tolerance for SCF             =     0.000100 eV
redata: Using Saved Data (generic)                  =   F
redata: Use continuation files for DM               =   F
redata: Neglect nonoverlap interactions             =   F
redata: Method of Calculation                       = Diagonalization
redata: Electronic Temperature                      =   299.9978 K
redata: Fix the spin of the system                  =   F
redata: Dynamics option                             = Single-point calculation
mix.SCF: Pulay mixing                            = Pulay
mix.SCF:    Variant                              = stable
mix.SCF:    History steps                        = 6
mix.SCF:    Linear mixing weight                 =     0.250000
mix.SCF:    Mixing weight                        =     0.250000
mix.SCF:    SVD condition                        = 0.1000E-07
mix.SCF:    Restart steps                        = 24
mix.SCF:    Restart save steps                   = 3
mix.SCF: Spin-component mixing                   all
redata: Save all siesta data in one NC              =   F
redata: ***********************************************************************

%block SCF.Mixers
  Pulay
%endblock SCF.Mixers

%block SCF.Mixer.Pulay
  # Mixing method
  method pulay
  variant stable

  # Mixing options
  weight 0.2500
  weight.linear 0.2500
  history 6
  restart 24
  restart.save 3
%endblock SCF.Mixer.Pulay

DM_history_depth set to one: no extrapolation allowed by default for geometry relaxation
Size of DM history Fstack: 1
Total number of electrons:    98.000000
Total ionic charge:    98.000000

* ProcessorY, Blocksize:    2  24


* Orbital distribution balance (max,min):    81    72


Time-reversal symmetry not used.

siesta: k-grid: Number of k-points =     1
siesta: k-grid: Cutoff (effective) =     4.927 Ang
siesta: k-grid: Supercell and displacements
siesta: k-grid:    1   0   0      0.000
siesta: k-grid:    0   1   0      0.000
siesta: k-grid:    0   0   1      0.000

diag: Algorithm                                     = ELPA-1stage
diag: Parallel over k                               =   F
diag: Use parallel 2D distribution                  =   T
diag: Parallel block-size                           = 24
diag: Parallel distribution                         =     2 x     2
diag: Used triangular part                          = Lower
diag: Absolute tolerance                            =  0.100E-15
diag: Orthogonalization factor                      =  0.100E-05
diag: Memory factor                                 =  1.0000


ts: **************************************************************
ts: Save H and S matrices                           =    F
ts: Save DM and EDM matrices                        =    F
ts: Only save the overlap matrix S                  =    F
ts: **************************************************************

************************ Begin: TS CHECKS AND WARNINGS ************************
************************ End: TS CHECKS AND WARNINGS **************************


                     ====================================
                        Single-point calculation
                     ====================================

outcoor: Atomic coordinates (Ang):                          
    0.85492771    3.90281136    0.00000000   1       1  O
   -3.15148660    0.82385413    0.00000000   2       2  N
    1.92851868    1.17400090    0.00000000   2       3  N
    0.97989950   -1.83027589    0.00000000   2       4  N
   -2.15925893   -2.02800480    0.00000000   2       5  N
    3.78531977   -1.11270066    0.00000000   2       6  N
   -1.34593381    0.97625025    0.00000000   3       7  Si
   -0.59943988   -1.09607717    0.00000000   3       8  Si
    0.45318289    2.35051023    0.00000000   3       9  Si
    2.13330203   -0.57651080    0.00000000   3      10  Si
   -3.51606566   -0.84205651    0.00000000   3      11  Si
    2.82452783    1.75472311    0.00000000   4      12  H
   -4.87755169   -1.46921466    0.00000000   4      13  H
    3.99495202   -2.14320400    0.00000000   4      14  H
    4.62090361   -0.48366606    0.00000000   4      15  H
   -2.27908518   -3.08151409    0.00000000   4      16  H
    7.37856721    6.86024783    0.00000000   3      17  Si
    9.24752670    8.11989145    0.00000000   3      18  Si
    8.78859432    4.11850960    0.00000000   3      19  Si
   10.85618704    6.62510082    0.00000000   3      20  Si
    7.43809716    5.17529537    0.00000000   2      21  N
    5.74856801    7.49030805    0.00000000   2      22  N
   10.43248319    4.90960001    0.00000000   2      23  N
    9.52789040    9.59011397    0.00000000   4      24  H
   12.35159842    6.84395336    0.00000000   4      25  H
    5.50410902    8.50877400    0.00000000   4      26  H
    4.92182683    6.83345992    0.00000000   4      27  H
    8.84787008    2.53606758    0.00000000   1      28  O
   11.20413878    4.18263265    0.00000000   4      29  H

outcell: Unit cell vectors (Ang):
       26.540648    0.000000    0.000000
        0.000000   21.527374    0.000000
        0.000000    0.000000    9.854683

outcell: Cell vector modules (Ang)   :   26.540648   21.527374    9.854683
outcell: Cell angles (23,13,12) (deg):     90.0000     90.0000     90.0000
outcell: Cell volume (Ang**3)        :   5630.4777
<dSpData1D:S at geom step 0
  <sparsity:sparsity for geom step 0
    nrows_g=297 nrows=81 sparsity=.1451 nnzs=12801, refcount: 8>
  <dData1D:(new from dSpData1D) n=12801, refcount: 1>
refcount: 1>
new_DM -- step:     1
Initializing Density Matrix...
DM filled with atomic data:
<dSpData2D:DM initialized from atoms
  <sparsity:sparsity for geom step 0
    nrows_g=297 nrows=81 sparsity=.1451 nnzs=12801, refcount: 9>
  <dData2D:DM n=12801 m=8, refcount: 1>
refcount: 1>
     spin moment: S , {S} =   56.00000   0.00000   0.00000  56.00000
No. of atoms with KB's overlaping orbs in proc 0. Max # of overlaps:      29     142

Initializing spin-orbit part of the Hamiltonian
  Adding spin-orbit effects for O 
  Adding spin-orbit effects for N 
  Adding spin-orbit effects for Si
  Adding spin-orbit effects for H 


New grid distribution:   1
           1       1:  150    1:   60    1:   30
           2       1:  150    1:   60   31:   60
           3       1:  150   61:  120    1:   30
           4       1:  150   61:  120   31:   60

InitMesh: MESH =   300 x   240 x   120 =     8640000
InitMesh: (bp) =   150 x   120 x    60 =     1080000
InitMesh: Mesh cutoff (required, used) =   340.000   343.512 Ry
ExtMesh (bp) on 0 =   254 x   160 x   142 =     5770880
New grid distribution:   2
           1      51:  150    1:   36    1:   60
           2       1:   50    1:   35    1:   60
           3      51:  150   37:  120    1:   60
           4       1:   50   36:  120    1:   60
New grid distribution:   3
           1      53:  150    1:   39    1:   60
           2       1:   52    1:   39    1:   60
           3      53:  150   40:  120    1:   60
           4       1:   52   40:  120    1:   60
Setting up quadratic distribution...
ExtMesh (bp) on 0 =   204 x   136 x   172 =     4771968
PhiOnMesh: Number of (b)points on node 0 =               216000
PhiOnMesh: nlist on node 0 =              2454858

stepf: Fermi-Dirac step function

siesta: Program's energy decomposition (eV):
siesta: Ebs     =      -621.395022
siesta: Eions   =      3585.165840
siesta: Ena     =       384.948849
siesta: Ekin    =      3376.807090
siesta: Enl     =     -3308.518485
siesta: Eso     =        -0.003377
siesta: Edftu   =         0.000000
siesta: DEna    =       154.802053
siesta: DUscf   =        82.381748
siesta: DUext   =         0.000000
siesta: Exc     =     -1205.450418
siesta: eta*DQ  =         0.000000
siesta: Emadel  =         0.000000
siesta: Emeta   =         0.000000
siesta: Emolmec =         0.000000
siesta: Ekinion =         0.000000
siesta: Eharris =     -4019.952997
siesta: Etot    =     -4100.198381
siesta: FreeEng =     -4100.199892

        iscf     Eharris(eV)        E_KS(eV)     FreeEng(eV)     dDmax    Ef(eV) dHmax(eV)
   scf:    1    -4019.952997    -4100.198381    -4100.199892  0.965168 -4.889080 21.616756
     spin moment: S , {S} =    2.00783   0.00000   0.00000   2.00783
timer: Routine,Calls,Time,% = IterSCF        1      12.651  17.76
   scf:    2    -4148.003006    -4136.188136    -4136.193022  0.456109 -4.237967 11.544936
     spin moment: S , {S} =    1.96262   0.00000   0.00000   1.96262
   scf:    3    -4104.876368    -4132.697538    -4132.725224  0.429069 -4.361026 12.236705
     spin moment: S , {S} =    2.26383  -0.00000   0.00000   2.26383
   scf:    4    -4150.026329    -4145.072928    -4145.072929  0.310226 -3.941121  5.941140
     spin moment: S , {S} =    0.00010  -0.00000  -0.00000   0.00010
   scf:    5    -4146.419485    -4145.862057    -4145.862057  0.039928 -3.753646  4.153597
     spin moment: S , {S} =    0.00006  -0.00000  -0.00000   0.00006
   scf:    6    -4146.594251    -4146.234732    -4146.234732  0.023396 -3.568868  2.193817
     spin moment: S , {S} =    0.00003   0.00000  -0.00000   0.00003
   scf:    7    -4146.609977    -4146.419694    -4146.419694  0.023019 -3.755975  0.875032
     spin moment: S , {S} =    0.00001  -0.00000   0.00000   0.00001
   scf:    8    -4146.532106    -4146.474290    -4146.474290  0.012084 -3.685108  0.516345
     spin moment: S , {S} =    0.00000  -0.00000   0.00000   0.00000
   scf:    9    -4146.516717    -4146.494720    -4146.494720  0.007234 -3.656168  0.372433
     spin moment: S , {S} =    0.00000   0.00000  -0.00000   0.00000
   scf:   10    -4146.547141    -4146.514466    -4146.514466  0.021640 -3.818493  0.234856
     spin moment: S , {S} =    0.00000   0.00000   0.00000  -0.00000
   scf:   11    -4146.517982    -4146.516187    -4146.516187  0.006008 -3.803596  0.067585
     spin moment: S , {S} =    0.00000   0.00000  -0.00000  -0.00000
   scf:   12    -4146.517477    -4146.516848    -4146.516848  0.001112 -3.801190  0.027199
     spin moment: S , {S} =    0.00000  -0.00000  -0.00000  -0.00000
   scf:   13    -4146.517316    -4146.517078    -4146.517078  0.001311 -3.798102  0.018039
     spin moment: S , {S} =    0.00000   0.00000  -0.00000  -0.00000
   scf:   14    -4146.517343    -4146.517204    -4146.517204  0.001011 -3.796300  0.011305
     spin moment: S , {S} =    0.00000   0.00000   0.00000  -0.00000
   scf:   15    -4146.517317    -4146.517257    -4146.517257  0.000922 -3.796271  0.008611
     spin moment: S , {S} =    0.00000  -0.00000   0.00000  -0.00000
   scf:   16    -4146.517327    -4146.517288    -4146.517288  0.000884 -3.796347  0.006165
     spin moment: S , {S} =    0.00000   0.00000   0.00000   0.00000
   scf:   17    -4146.517311    -4146.517298    -4146.517298  0.000506 -3.796341  0.004509
     spin moment: S , {S} =    0.00000   0.00000   0.00000   0.00000
   scf:   18    -4146.517309    -4146.517303    -4146.517303  0.000350 -3.796291  0.002910
     spin moment: S , {S} =    0.00000   0.00000   0.00000   0.00000
   scf:   19    -4146.517308    -4146.517305    -4146.517305  0.000262 -3.796290  0.001921
     spin moment: S , {S} =    0.00000   0.00000   0.00000   0.00000
   scf:   20    -4146.517307    -4146.517306    -4146.517306  0.000156 -3.796317  0.001293
     spin moment: S , {S} =    0.00000   0.00000   0.00000   0.00000
   scf:   21    -4146.517308    -4146.517307    -4146.517307  0.000188 -3.796350  0.000647
     spin moment: S , {S} =    0.00000   0.00000   0.00000   0.00000
   scf:   22    -4146.517308    -4146.517307    -4146.517307  0.000121 -3.796390  0.000258
     spin moment: S , {S} =    0.00000   0.00000   0.00000   0.00000
   scf:   23    -4146.517307    -4146.517307    -4146.517307  0.000033 -3.796398  0.000202
     spin moment: S , {S} =    0.00000   0.00000   0.00000   0.00000
   scf:   24    -4146.517307    -4146.517307    -4146.517307  0.000011 -3.796394  0.000117
     spin moment: S , {S} =    0.00000   0.00000   0.00000   0.00000
mix: Pulay -- resetting history
   scf:   25    -4146.517307    -4146.517307    -4146.517307  0.000007 -3.796384  0.000049
     spin moment: S , {S} =    0.00000   0.00000   0.00000   0.00000
   scf:   26    -4146.517307    -4146.517307    -4146.517307  0.000005 -3.796377  0.000033
     spin moment: S , {S} =    0.00000   0.00000   0.00000   0.00000
   scf:   27    -4146.517307    -4146.517307    -4146.517307  0.000002 -3.796376  0.000022
     spin moment: S , {S} =    0.00000   0.00000   0.00000   0.00000
   scf:   28    -4146.517307    -4146.517307    -4146.517307  0.000002 -3.796374  0.000011
     spin moment: S , {S} =    0.00000   0.00000   0.00000  -0.00000
   scf:   29    -4146.517307    -4146.517307    -4146.517307  0.000001 -3.796373  0.000008
     spin moment: S , {S} =    0.00000   0.00000   0.00000  -0.00000
   scf:   30    -4146.517307    -4146.517307    -4146.517307  0.000001 -3.796372  0.000004
     spin moment: S , {S} =    0.00000   0.00000   0.00000  -0.00000
   scf:   31    -4146.517307    -4146.517307    -4146.517307  0.000001 -3.796372  0.000002
     spin moment: S , {S} =    0.00000   0.00000   0.00000  -0.00000
   scf:   32    -4146.517307    -4146.517307    -4146.517307  0.000000 -3.796372  0.000001
     spin moment: S , {S} =    0.00000   0.00000   0.00000  -0.00000
   scf:   33    -4146.517307    -4146.517307    -4146.517307  0.000000 -3.796372  0.000001
     spin moment: S , {S} =    0.00000   0.00000   0.00000  -0.00000

SCF Convergence by DM+H criterion
max |DM_out - DM_in|         :     0.0000001640
max |H_out - H_in|      (eV) :     0.0000006801
SCF cycle converged after 33 iterations

Using DM_out to compute the final energy and forces
No. of atoms with KB's overlaping orbs in proc 0. Max # of overlaps:      29     142

siesta: E_KS(eV) =            -4146.5173

siesta: E_KS - E_eggbox =     -4146.5173
     spin moment: S , {S} =    0.00000   0.00000   0.00000  -0.00000

siesta: Atomic forces (eV/Ang):
     1    3.748699    0.458691   -0.000000
     2   -0.003308   -0.010978    0.000000
     3   -0.088448    0.037915   -0.000000
     4   -0.054002   -0.041929    0.000000
     5   -0.005662   -0.018912    0.000000
     6   -0.087815   -0.015850    0.000000
     7   -0.006830   -0.000228   -0.000000
     8    0.040709    0.029658    0.000000
     9    0.065087   -0.015579    0.000000
    10    0.142041    0.027711   -0.000000
    11   -0.028449    0.030069    0.000000
    12   -0.104885   -0.026835   -0.000000
    13    0.046053    0.137704    0.000000
    14   -0.089253   -0.053013    0.000000
    15    0.163989    0.132772   -0.000000
    16    0.003040    0.184501   -0.000000
    17   -0.091386    0.020063   -0.000000
    18    0.011495   -0.012544   -0.000000
    19   -0.005740    0.053028   -0.000000
    20   -0.016678    0.007493    0.000000
    21    0.038198   -0.055073   -0.000000
    22    0.073571   -0.000821    0.000000
    23   -0.003238   -0.018876    0.000000
    24    0.033824    0.126245    0.000000
    25   -0.073966   -0.011191   -0.000000
    26   -0.130327    0.206992    0.000000
    27    0.105404   -0.012819   -0.000000
    28   -0.256940   -3.496202    0.000000
    29    0.084834    0.056285   -0.000000
----------------------------------------
   Tot    3.510013   -2.281726   -0.000000
----------------------------------------
   Max    3.748699
   Res    0.555573    sqrt( Sum f_i^2 / 3N )
----------------------------------------
   Max    3.748699    constrained

Stress tensor Voigt[x,y,z,yz,xz,xy] (kbar):        0.19        0.22       -0.08        0.00       -0.00        0.39
(Free)E + p*V (eV/cell)    -4146.9080
Target enthalpy (eV/cell)    -4146.5173

mulliken: Atomic and Orbital Populations:

Species: O                   

Atom      Orb        Charge      Spin       Svec
----------------------------------------------------------------
    1  1 2s         1.75044   0.00000      0.000  -0.000   0.000
    1  2 2s         0.06222   0.00000     -0.000   0.000   0.000
    1  3 2py        1.42848   0.00000      0.000  -0.000  -0.000
    1  4 2pz        1.54141   0.00000     -0.000   0.000   0.000
    1  5 2px        1.61566   0.00000      0.000   0.000  -0.000
    1  6 2py        0.04161   0.00000     -0.000  -0.000   0.000
    1  7 2pz       -0.00367   0.00000     -0.000  -0.000   0.000
    1  8 2px        0.00860   0.00000     -0.000  -0.000   0.000
    1  9 3Pdxy      0.00751   0.00000      0.000   0.000   0.000
    1 10 3Pdyz      0.00949   0.00000      0.000  -0.000  -0.000
    1 11 3Pdz2      0.00172   0.00000     -0.000   0.000   0.000
    1 12 3Pdxz      0.00043   0.00000      0.000  -0.000   0.000
    1 13 3Pdx2-y2   0.00717   0.00000      0.000   0.000  -0.000
    1     Total     6.47108   0.00000      0.000   0.000   0.000

   28  1 2s         1.73376   0.00000      0.000   0.000   0.000
   28  2 2s         0.07282   0.00000     -0.000  -0.000   0.000
   28  3 2py        1.42013   0.00000     -0.000  -0.000   0.000
   28  4 2pz        1.53650   0.00000      0.000  -0.000   0.000
   28  5 2px        1.63269   0.00000     -0.000   0.000   0.000
   28  6 2py        0.04527   0.00000     -0.000   0.000   0.000
   28  7 2pz       -0.00082   0.00000     -0.000   0.000   0.000
   28  8 2px        0.01483   0.00000      0.000  -0.000   0.000
   28  9 3Pdxy      0.00712   0.00000     -0.000  -0.000  -0.000
   28 10 3Pdyz      0.01039   0.00000     -0.000   0.000   0.000
   28 11 3Pdz2      0.00130   0.00000     -0.000  -0.000  -0.000
   28 12 3Pdxz     -0.00017   0.00000     -0.000   0.000  -0.000
   28 13 3Pdx2-y2   0.00781   0.00000      0.000   0.000  -0.000
   28     Total     6.48160   0.00000     -0.000  -0.000   0.000

----------------------------------------------------------------
Total              12.95268   0.00000     -0.000  -0.000   0.000


Species: N                   

Atom      Orb        Charge      Spin       Svec
----------------------------------------------------------------
    2  1 2s         1.55007   0.00000     -0.000  -0.000  -0.000
    2  2 2s         0.08423   0.00000      0.000   0.000   0.000
    2  3 2py        1.03160   0.00000      0.000   0.000  -0.000
    2  4 2pz        1.22386   0.00000     -0.000   0.000  -0.000
    2  5 2px        1.00499   0.00000     -0.000  -0.000  -0.000
    2  6 2py        0.19291   0.00000     -0.000  -0.000   0.000
    2  7 2pz        0.05464   0.00000      0.000   0.000   0.000
    2  8 2px        0.19082   0.00000     -0.000   0.000   0.000
    2  9 3Pdxy      0.00843   0.00000     -0.000  -0.000   0.000
    2 10 3Pdyz      0.01083   0.00000     -0.000  -0.000   0.000
    2 11 3Pdz2      0.00196   0.00000     -0.000   0.000   0.000
    2 12 3Pdxz      0.00754   0.00000      0.000  -0.000   0.000
    2 13 3Pdx2-y2   0.00892   0.00000     -0.000   0.000  -0.000
    2     Total     5.37079   0.00000     -0.000   0.000  -0.000

    3  1 2s         1.40749   0.00000      0.000   0.000  -0.000
    3  2 2s         0.11426   0.00000      0.000  -0.000   0.000
    3  3 2py        0.93995   0.00000     -0.000  -0.000  -0.000
    3  4 2pz        1.53825   0.00000     -0.000  -0.000  -0.000
    3  5 2px        1.09760   0.00000     -0.000  -0.000  -0.000
    3  6 2py        0.24809   0.00000      0.000   0.000   0.000
    3  7 2pz        0.00880   0.00000      0.000  -0.000   0.000
    3  8 2px        0.16914   0.00000      0.000   0.000   0.000
    3  9 3Pdxy      0.00429   0.00000      0.000   0.000   0.000
    3 10 3Pdyz      0.00417   0.00000      0.000   0.000  -0.000
    3 11 3Pdz2      0.00083   0.00000     -0.000  -0.000   0.000
    3 12 3Pdxz      0.00267   0.00000      0.000  -0.000  -0.000
    3 13 3Pdx2-y2   0.00306   0.00000      0.000  -0.000  -0.000
    3     Total     5.53860   0.00000     -0.000  -0.000  -0.000

    4  1 2s         1.46855   0.00000      0.000   0.000  -0.000
    4  2 2s         0.11680   0.00000     -0.000  -0.000   0.000
    4  3 2py        1.10506   0.00000      0.000   0.000  -0.000
    4  4 2pz        1.29254   0.00000      0.000  -0.000  -0.000
    4  5 2px        0.84201   0.00000      0.000  -0.000  -0.000
    4  6 2py        0.15556   0.00000      0.000  -0.000   0.000
    4  7 2pz        0.05376   0.00000     -0.000   0.000   0.000
    4  8 2px        0.28652   0.00000     -0.000  -0.000   0.000
    4  9 3Pdxy      0.00854   0.00000     -0.000  -0.000  -0.000
    4 10 3Pdyz      0.01079   0.00000     -0.000  -0.000   0.000
    4 11 3Pdz2      0.00132   0.00000     -0.000  -0.000  -0.000
    4 12 3Pdxz      0.00495   0.00000     -0.000   0.000  -0.000
    4 13 3Pdx2-y2   0.00851   0.00000      0.000  -0.000  -0.000
    4     Total     5.35490   0.00000      0.000   0.000  -0.000

    5  1 2s         1.37370   0.00000      0.000  -0.000  -0.000
    5  2 2s         0.12888   0.00000     -0.000   0.000   0.000
    5  3 2py        1.02736   0.00000      0.000  -0.000  -0.000
    5  4 2pz        1.50101   0.00000      0.000   0.000  -0.000
    5  5 2px        1.05901   0.00000     -0.000  -0.000  -0.000
    5  6 2py        0.20312   0.00000     -0.000   0.000   0.000
    5  7 2pz        0.01355   0.00000     -0.000  -0.000   0.000
    5  8 2px        0.20239   0.00000      0.000   0.000   0.000
    5  9 3Pdxy      0.00369   0.00000      0.000  -0.000  -0.000
    5 10 3Pdyz      0.00249   0.00000      0.000   0.000   0.000
    5 11 3Pdz2      0.00138   0.00000     -0.000  -0.000  -0.000
    5 12 3Pdxz      0.00686   0.00000     -0.000  -0.000   0.000
    5 13 3Pdx2-y2   0.00572   0.00000     -0.000  -0.000   0.000
    5     Total     5.52916   0.00000      0.000  -0.000  -0.000

    6  1 2s         1.26670   0.00000      0.000  -0.000  -0.000
    6  2 2s         0.17997   0.00000     -0.000   0.000   0.000
    6  3 2py        1.08020   0.00000     -0.000  -0.000  -0.000
    6  4 2pz        1.57652   0.00000     -0.000  -0.000  -0.000
    6  5 2px        0.97163   0.00000      0.000  -0.000  -0.000
    6  6 2py        0.18747   0.00000      0.000   0.000   0.000
    6  7 2pz        0.02933   0.00000      0.000   0.000   0.000
    6  8 2px        0.25267   0.00000     -0.000   0.000   0.000
    6  9 3Pdxy      0.00266   0.00000      0.000   0.000   0.000
    6 10 3Pdyz      0.00013   0.00000      0.000  -0.000  -0.000
    6 11 3Pdz2      0.00166   0.00000     -0.000  -0.000   0.000
    6 12 3Pdxz      0.00289   0.00000      0.000  -0.000  -0.000
    6 13 3Pdx2-y2   0.00300   0.00000      0.000   0.000   0.000
    6     Total     5.55482   0.00000     -0.000  -0.000  -0.000

   21  1 2s         1.41176   0.00000      0.000   0.000  -0.000
   21  2 2s         0.13227   0.00000     -0.000  -0.000   0.000
   21  3 2py        0.87149   0.00000      0.000  -0.000  -0.000
   21  4 2pz        1.29345   0.00000      0.000   0.000  -0.000
   21  5 2px        1.15596   0.00000      0.000   0.000  -0.000
   21  6 2py        0.28089   0.00000     -0.000   0.000   0.000
   21  7 2pz        0.05010   0.00000      0.000  -0.000   0.000
   21  8 2px        0.16531   0.00000      0.000   0.000   0.000
   21  9 3Pdxy      0.00655   0.00000      0.000  -0.000   0.000
   21 10 3Pdyz      0.00522   0.00000     -0.000   0.000  -0.000
   21 11 3Pdz2     -0.00003   0.00000      0.000   0.000   0.000
   21 12 3Pdxz      0.00580   0.00000     -0.000   0.000  -0.000
   21 13 3Pdx2-y2   0.00558   0.00000     -0.000  -0.000  -0.000
   21     Total     5.38437   0.00000      0.000   0.000  -0.000

   22  1 2s         1.28685   0.00000      0.000   0.000   0.000
   22  2 2s         0.17096   0.00000     -0.000  -0.000  -0.000
   22  3 2py        1.06930   0.00000     -0.000  -0.000  -0.000
   22  4 2pz        1.56045   0.00000     -0.000  -0.000  -0.000
   22  5 2px        1.00270   0.00000      0.000  -0.000  -0.000
   22  6 2py        0.19317   0.00000     -0.000   0.000   0.000
   22  7 2pz        0.02778   0.00000      0.000   0.000   0.000
   22  8 2px        0.23267   0.00000     -0.000  -0.000   0.000
   22  9 3Pdxy      0.00357   0.00000     -0.000  -0.000   0.000
   22 10 3Pdyz      0.00013   0.00000     -0.000   0.000   0.000
   22 11 3Pdz2      0.00259   0.00000     -0.000   0.000  -0.000
   22 12 3Pdxz      0.00280   0.00000     -0.000   0.000  -0.000
   22 13 3Pdx2-y2   0.00335   0.00000      0.000   0.000  -0.000
   22     Total     5.55632   0.00000      0.000  -0.000  -0.000

   23  1 2s         1.39847   0.00000      0.000  -0.000  -0.000
   23  2 2s         0.11700   0.00000     -0.000   0.000  -0.000
   23  3 2py        0.99606   0.00000      0.000   0.000  -0.000
   23  4 2pz        1.51864   0.00000     -0.000   0.000  -0.000
   23  5 2px        1.07582   0.00000      0.000  -0.000  -0.000
   23  6 2py        0.22135   0.00000     -0.000  -0.000   0.000
   23  7 2pz        0.00546   0.00000      0.000  -0.000   0.000
   23  8 2px        0.19211   0.00000     -0.000   0.000   0.000
   23  9 3Pdxy      0.00527   0.00000      0.000   0.000   0.000
   23 10 3Pdyz      0.00451   0.00000     -0.000  -0.000  -0.000
   23 11 3Pdz2      0.00050   0.00000     -0.000  -0.000   0.000
   23 12 3Pdxz      0.00229   0.00000     -0.000   0.000  -0.000
   23 13 3Pdx2-y2   0.00119   0.00000     -0.000  -0.000  -0.000
   23     Total     5.53868   0.00000     -0.000  -0.000  -0.000

----------------------------------------------------------------
Total              56.78033   0.00000      0.000  -0.000  -0.000


Species: Si                  

Atom      Orb        Charge      Spin       Svec
----------------------------------------------------------------
    7  1 3s         0.68889   0.00000     -0.000   0.000   0.000
    7  2 3s         0.35789   0.00000      0.000  -0.000   0.000
    7  3 3py        0.47600   0.00000      0.000  -0.000   0.000
    7  4 3pz        0.70001   0.00000     -0.000  -0.000   0.000
    7  5 3px        0.13681   0.00000     -0.000   0.000   0.000
    7  6 3py        0.27078   0.00000     -0.000   0.000   0.000
    7  7 3pz        0.25779   0.00000      0.000   0.000   0.000
    7  8 3px        0.42199   0.00000      0.000   0.000   0.000
    7  9 3Pdxy      0.24279   0.00000     -0.000  -0.000   0.000
    7 10 3Pdyz      0.03037   0.00000     -0.000  -0.000  -0.000
    7 11 3Pdz2      0.01206   0.00000      0.000  -0.000  -0.000
    7 12 3Pdxz      0.13855   0.00000      0.000  -0.000  -0.000
    7 13 3Pdx2-y2   0.11316   0.00000      0.000   0.000  -0.000
    7     Total     3.84709   0.00000     -0.000  -0.000   0.000

    8  1 3s         0.64830   0.00000      0.000  -0.000   0.000
    8  2 3s         0.37125   0.00000      0.000   0.000  -0.000
    8  3 3py        0.38683   0.00000     -0.000   0.000  -0.000
    8  4 3pz        0.52649   0.00000      0.000   0.000  -0.000
    8  5 3px       -0.03189   0.00000     -0.000  -0.000   0.000
    8  6 3py        0.30468   0.00000      0.000   0.000   0.000
    8  7 3pz        0.20224   0.00000      0.000   0.000   0.000
    8  8 3px        0.52014   0.00000      0.000   0.000   0.000
    8  9 3Pdxy      0.25859   0.00000     -0.000  -0.000  -0.000
    8 10 3Pdyz      0.11052   0.00000      0.000   0.000  -0.000
    8 11 3Pdz2      0.01335   0.00000      0.000  -0.000   0.000
    8 12 3Pdxz      0.15571   0.00000     -0.000  -0.000   0.000
    8 13 3Pdx2-y2   0.18799   0.00000     -0.000  -0.000   0.000
    8     Total     3.65418   0.00000     -0.000   0.000  -0.000

    9  1 3s         0.62976   0.00000     -0.000   0.000   0.000
    9  2 3s         0.35570   0.00000      0.000  -0.000  -0.000
    9  3 3py        0.08561   0.00000      0.000   0.000  -0.000
    9  4 3pz        0.48301   0.00000     -0.000   0.000  -0.000
    9  5 3px        0.37141   0.00000      0.000   0.000  -0.000
    9  6 3py        0.43895   0.00000     -0.000  -0.000  -0.000
    9  7 3pz        0.18459   0.00000      0.000  -0.000  -0.000
    9  8 3px        0.26765   0.00000     -0.000  -0.000   0.000
    9  9 3Pdxy      0.31404   0.00000     -0.000   0.000  -0.000
    9 10 3Pdyz      0.19166   0.00000      0.000  -0.000  -0.000
    9 11 3Pdz2      0.01619   0.00000     -0.000  -0.000  -0.000
    9 12 3Pdxz      0.08772   0.00000     -0.000  -0.000  -0.000
    9 13 3Pdx2-y2   0.15475   0.00000     -0.000  -0.000   0.000
    9     Total     3.58104   0.00000     -0.000   0.000  -0.000

   10  1 3s         0.48356   0.00000      0.000  -0.000   0.000
   10  2 3s         0.37969   0.00000     -0.000   0.000   0.000
   10  3 3py        0.23970   0.00000      0.000   0.000   0.000
   10  4 3pz        0.40987   0.00000     -0.000  -0.000   0.000
   10  5 3px        0.10262   0.00000     -0.000  -0.000   0.000
   10  6 3py        0.33612   0.00000     -0.000  -0.000   0.000
   10  7 3pz        0.22073   0.00000      0.000   0.000   0.000
   10  8 3px        0.42196   0.00000      0.000   0.000  -0.000
   10  9 3Pdxy      0.16305   0.00000     -0.000   0.000  -0.000
   10 10 3Pdyz      0.14945   0.00000      0.000   0.000   0.000
   10 11 3Pdz2      0.01137   0.00000      0.000   0.000   0.000
   10 12 3Pdxz      0.16973   0.00000      0.000   0.000   0.000
   10 13 3Pdx2-y2   0.32175   0.00000      0.000  -0.000  -0.000
   10     Total     3.40961   0.00000      0.000   0.000   0.000

   11  1 3s         0.55845   0.00000      0.000  -0.000   0.000
   11  2 3s         0.38209   0.00000     -0.000   0.000   0.000
   11  3 3py        0.30403   0.00000     -0.000   0.000   0.000
   11  4 3pz        0.54298   0.00000      0.000  -0.000   0.000
   11  5 3px        0.13801   0.00000     -0.000   0.000   0.000
   11  6 3py        0.30302   0.00000      0.000   0.000   0.000
   11  7 3pz        0.17699   0.00000     -0.000  -0.000   0.000
   11  8 3px        0.43223   0.00000      0.000  -0.000   0.000
   11  9 3Pdxy      0.24370   0.00000      0.000   0.000   0.000
   11 10 3Pdyz      0.12467   0.00000     -0.000   0.000   0.000
   11 11 3Pdz2      0.00938   0.00000      0.000  -0.000   0.000
   11 12 3Pdxz      0.05258   0.00000      0.000   0.000   0.000
   11 13 3Pdx2-y2   0.18371   0.00000     -0.000  -0.000   0.000
   11     Total     3.45185   0.00000     -0.000   0.000   0.000

   17  1 3s         0.64884   0.00000      0.000  -0.000   0.000
   17  2 3s         0.35788   0.00000     -0.000   0.000  -0.000
   17  3 3py        0.25076   0.00000     -0.000  -0.000   0.000
   17  4 3pz        0.42739   0.00000     -0.000  -0.000   0.000
   17  5 3px        0.22821   0.00000     -0.000  -0.000   0.000
   17  6 3py        0.37044   0.00000     -0.000   0.000  -0.000
   17  7 3pz        0.21277   0.00000      0.000   0.000   0.000
   17  8 3px        0.37608   0.00000     -0.000   0.000  -0.000
   17  9 3Pdxy      0.29600   0.00000      0.000  -0.000   0.000
   17 10 3Pdyz      0.13988   0.00000      0.000   0.000   0.000
   17 11 3Pdz2      0.00981   0.00000      0.000   0.000   0.000
   17 12 3Pdxz      0.14750   0.00000      0.000   0.000   0.000
   17 13 3Pdx2-y2   0.16960   0.00000     -0.000  -0.000   0.000
   17     Total     3.63515   0.00000     -0.000  -0.000   0.000

   18  1 3s         0.74664   0.00000     -0.000   0.000   0.000
   18  2 3s         0.33787   0.00000      0.000  -0.000   0.000
   18  3 3py        0.08982   0.00000      0.000   0.000   0.000
   18  4 3pz        0.83250   0.00000     -0.000  -0.000   0.000
   18  5 3px        0.54556   0.00000     -0.000  -0.000   0.000
   18  6 3py        0.51298   0.00000     -0.000   0.000   0.000
   18  7 3pz        0.19701   0.00000      0.000   0.000   0.000
   18  8 3px        0.25190   0.00000     -0.000   0.000   0.000
   18  9 3Pdxy      0.10899   0.00000     -0.000  -0.000  -0.000
   18 10 3Pdyz      0.02765   0.00000     -0.000  -0.000  -0.000
   18 11 3Pdz2      0.00942   0.00000     -0.000   0.000  -0.000
   18 12 3Pdxz      0.02914   0.00000      0.000   0.000  -0.000
   18 13 3Pdx2-y2   0.10673   0.00000     -0.000   0.000   0.000
   18     Total     3.79620   0.00000     -0.000   0.000   0.000

   19  1 3s         0.45420   0.00000      0.000  -0.000   0.000
   19  2 3s         0.36535   0.00000     -0.000   0.000  -0.000
   19  3 3py        0.07957   0.00000     -0.000   0.000   0.000
   19  4 3pz        0.41905   0.00000      0.000   0.000  -0.000
   19  5 3px        0.34721   0.00000     -0.000   0.000   0.000
   19  6 3py        0.47035   0.00000      0.000   0.000  -0.000
   19  7 3pz        0.18719   0.00000      0.000   0.000   0.000
   19  8 3px        0.24256   0.00000      0.000  -0.000  -0.000
   19  9 3Pdxy      0.34873   0.00000      0.000   0.000  -0.000
   19 10 3Pdyz      0.18967   0.00000     -0.000  -0.000   0.000
   19 11 3Pdz2      0.01587   0.00000      0.000  -0.000   0.000
   19 12 3Pdxz      0.08407   0.00000     -0.000  -0.000  -0.000
   19 13 3Pdx2-y2   0.22791   0.00000      0.000  -0.000  -0.000
   19     Total     3.43173   0.00000      0.000   0.000  -0.000

   20  1 3s         0.67293   0.00000      0.000  -0.000  -0.000
   20  2 3s         0.37995   0.00000     -0.000  -0.000  -0.000
   20  3 3py        0.33855   0.00000     -0.000   0.000  -0.000
   20  4 3pz        0.57894   0.00000      0.000  -0.000  -0.000
   20  5 3px        0.13792   0.00000     -0.000  -0.000  -0.000
   20  6 3py        0.29037   0.00000      0.000   0.000   0.000
   20  7 3pz        0.16348   0.00000     -0.000   0.000  -0.000
   20  8 3px        0.49946   0.00000      0.000   0.000   0.000
   20  9 3Pdxy      0.10294   0.00000     -0.000   0.000  -0.000
   20 10 3Pdyz      0.13516   0.00000      0.000   0.000  -0.000
   20 11 3Pdz2      0.00731   0.00000     -0.000  -0.000   0.000
   20 12 3Pdxz      0.02692   0.00000      0.000   0.000  -0.000
   20 13 3Pdx2-y2   0.17061   0.00000      0.000   0.000   0.000
   20     Total     3.50455   0.00000      0.000   0.000  -0.000

----------------------------------------------------------------
Total              89.09173   0.00000     -0.000  -0.000   0.000


Species: H                   

Atom      Orb        Charge      Spin       Svec
----------------------------------------------------------------
   12  1 1s         0.49121   0.00000      0.000   0.000  -0.000
   12  2 1s         0.18580   0.00000     -0.000   0.000   0.000
   12  3 2Ppy       0.02876   0.00000      0.000  -0.000   0.000
   12  4 2Ppz       0.03567   0.00000      0.000   0.000  -0.000
   12  5 2Ppx       0.02319   0.00000      0.000   0.000  -0.000
   12     Total     0.76463   0.00000      0.000   0.000  -0.000

   13  1 1s         1.02032   0.00000      0.000  -0.000  -0.000
   13  2 1s         0.09460   0.00000     -0.000  -0.000   0.000
   13  3 2Ppy       0.01984   0.00000     -0.000   0.000   0.000
   13  4 2Ppz       0.02013   0.00000      0.000   0.000   0.000
   13  5 2Ppx       0.03324   0.00000     -0.000   0.000   0.000
   13     Total     1.18813   0.00000      0.000  -0.000  -0.000

   14  1 1s         0.46455   0.00000      0.000   0.000  -0.000
   14  2 1s         0.19981   0.00000     -0.000  -0.000   0.000
   14  3 2Ppy       0.01830   0.00000      0.000   0.000  -0.000
   14  4 2Ppz       0.04709   0.00000      0.000   0.000  -0.000
   14  5 2Ppx       0.01735   0.00000      0.000   0.000  -0.000
   14     Total     0.74710   0.00000      0.000   0.000  -0.000

   15  1 1s         0.46761   0.00000      0.000   0.000  -0.000
   15  2 1s         0.19942   0.00000      0.000  -0.000   0.000
   15  3 2Ppy       0.00523   0.00000      0.000   0.000  -0.000
   15  4 2Ppz       0.04865   0.00000      0.000   0.000  -0.000
   15  5 2Ppx       0.02782   0.00000      0.000   0.000  -0.000
   15     Total     0.74873   0.00000      0.000   0.000   0.000

   16  1 1s         0.50800   0.00000     -0.000  -0.000  -0.000
   16  2 1s         0.18749   0.00000     -0.000   0.000   0.000
   16  3 2Ppy       0.03004   0.00000     -0.000  -0.000   0.000
   16  4 2Ppz       0.03955   0.00000     -0.000  -0.000  -0.000
   16  5 2Ppx       0.02321   0.00000     -0.000  -0.000  -0.000
   16     Total     0.78829   0.00000     -0.000  -0.000   0.000

   24  1 1s         1.05780   0.00000     -0.000  -0.000  -0.000
   24  2 1s         0.07630   0.00000      0.000   0.000   0.000
   24  3 2Ppy       0.03143   0.00000      0.000  -0.000   0.000
   24  4 2Ppz       0.03142   0.00000      0.000   0.000  -0.000
   24  5 2Ppx       0.01751   0.00000      0.000   0.000  -0.000
   24     Total     1.21445   0.00000     -0.000  -0.000  -0.000

   25  1 1s         1.04787   0.00000      0.000   0.000  -0.000
   25  2 1s         0.08398   0.00000     -0.000  -0.000  -0.000
   25  3 2Ppy       0.01171   0.00000     -0.000   0.000  -0.000
   25  4 2Ppz       0.01784   0.00000      0.000  -0.000  -0.000
   25  5 2Ppx       0.03643   0.00000      0.000   0.000   0.000
   25     Total     1.19783   0.00000      0.000   0.000  -0.000

   26  1 1s         0.47681   0.00000      0.000   0.000   0.000
   26  2 1s         0.19875   0.00000     -0.000  -0.000   0.000
   26  3 2Ppy       0.01870   0.00000      0.000  -0.000   0.000
   26  4 2Ppz       0.05193   0.00000     -0.000  -0.000  -0.000
   26  5 2Ppx       0.01618   0.00000      0.000   0.000  -0.000
   26     Total     0.76237   0.00000      0.000  -0.000   0.000

   27  1 1s         0.46730   0.00000      0.000   0.000  -0.000
   27  2 1s         0.19683   0.00000     -0.000  -0.000   0.000
   27  3 2Ppy       0.00596   0.00000     -0.000  -0.000  -0.000
   27  4 2Ppz       0.04388   0.00000     -0.000   0.000  -0.000
   27  5 2Ppx       0.02860   0.00000     -0.000   0.000  -0.000
   27     Total     0.74257   0.00000      0.000   0.000  -0.000

   29  1 1s         0.48269   0.00000     -0.000  -0.000   0.000
   29  2 1s         0.18840   0.00000      0.000   0.000   0.000
   29  3 2Ppy       0.02520   0.00000      0.000   0.000  -0.000
   29  4 2Ppz       0.03407   0.00000     -0.000  -0.000  -0.000
   29  5 2Ppx       0.02380   0.00000      0.000   0.000   0.000
   29     Total     0.75416   0.00000     -0.000  -0.000   0.000

----------------------------------------------------------------
Total              98.00000   0.00000      0.000   0.000  -0.000


siesta: Eigenvalues (eV):
ik =     1
  -21.9877  -21.9877  -21.8905  -21.8905  -21.7144  -21.7144  -21.5004  -21.5004  -21.3137  -21.3137
  -21.0545  -21.0545  -20.8175  -20.8175  -19.8631  -19.8631  -19.4753  -19.4753  -19.3793  -19.3793
  -14.7088  -14.7088  -13.9011  -13.9011  -13.2946  -13.2946  -13.1724  -13.1724  -13.1249  -13.1249
  -12.8190  -12.8190  -12.7941  -12.7941  -12.4802  -12.4802  -12.3599  -12.3599  -11.9423  -11.9423
  -11.4337  -11.4337  -10.7669  -10.7669  -10.7454  -10.7454  -10.6741  -10.6741  -10.0688  -10.0688
   -9.5550   -9.5550   -9.1921   -9.1921   -8.9775   -8.9775   -8.7640   -8.7640   -8.6220   -8.6220
   -8.6198   -8.6198   -8.3878   -8.3877   -8.2029   -8.2029   -7.7779   -7.7779   -7.6942   -7.6942
   -7.6789   -7.6789   -7.4344   -7.4344   -7.2735   -7.2735   -6.8359   -6.8359   -6.7632   -6.7632
   -6.5595   -6.5595   -6.5280   -6.5280   -6.2711   -6.2711   -6.1907   -6.1907   -6.1536   -6.1536
   -5.8844   -5.8844   -5.8839   -5.8839   -5.4380   -5.4380   -4.3837   -4.3837   -3.2055   -3.2055
   -2.4018   -2.4018   -2.3095   -2.3095   -2.2441   -2.2441   -1.9795   -1.9795   -1.8629   -1.8629
   -1.8593   -1.8593   -1.7574   -1.7574   -1.5795   -1.5795   -1.5082   -1.5082   -1.2547   -1.2547
   -0.9395   -0.9395   -0.7990   -0.7990   -0.4701   -0.4701   -0.1714   -0.1714    0.2947    0.2947
    0.3176    0.3176    0.3202    0.3202    0.6283    0.6283    0.7771    0.7771    0.8086    0.8086
    1.1879    1.1879    1.3173    1.3173    1.4111    1.4111    1.4620    1.4620    1.5035    1.5035
    1.6911    1.6911    1.9123    1.9123    2.2549    2.2549    2.4023    2.4023    2.6294    2.6294
    2.6918    2.6918    2.9624    2.9624    3.0484    3.0484    3.1396    3.1396    3.3021    3.3021
    3.3739    3.3739    3.7433    3.7433    3.8925    3.8925    4.1477    4.1477    4.3460    4.3460
    4.4536    4.4536    4.5230    4.5230    4.5540    4.5540    4.7325    4.7325    4.7633    4.7633
    4.8593    4.8593    5.1266    5.1266    5.2177    5.2177    5.5433    5.5433    5.5915    5.5915
    5.5964    5.5964    5.8007    5.8007    5.9403    5.9403    5.9461    5.9461    6.0899    6.0899
    6.2396    6.2396    6.3094    6.3094    6.5988    6.5988    6.6060    6.6060    6.8644    6.8644
    7.1231    7.1231    7.1753    7.1753    7.2506    7.2506    7.4911    7.4911    7.7755    7.7755
    7.7996    7.7996    8.0361    8.0361    8.1243    8.1243    8.1902    8.1902    8.2861    8.2861
    8.5753    8.5753    8.6754    8.6754    8.6804    8.6804    8.9453    8.9453    9.1487    9.1487
    9.2060    9.2060    9.2756    9.2756    9.7327    9.7327    9.7382    9.7382    9.7728    9.7728
    9.7885    9.7885   10.1917   10.1917   10.3326   10.3326   10.8004   10.8004   10.8583   10.8583
   10.9821   10.9821   10.9921   10.9921   11.0783   11.0783   11.8250   11.8250   11.9375   11.9375
   11.9690   11.9690   12.0006   12.0006   12.0755   12.0755   12.3326   12.3326   12.3982   12.3982
   12.7890   12.7890   12.8242   12.8242   13.3659   13.3659   13.5896   13.5896   13.7262   13.7262
   13.9391   13.9391   14.0479   14.0479   14.0729   14.0729   14.1156   14.1156   14.6623   14.6623
   15.0452   15.0452   15.5413   15.5413   15.8137   15.8137   16.1667   16.1667   16.7674   16.7674
   16.9141   16.9141   17.3678   17.3678   18.0977   18.0977   18.2229   18.2229   18.3467   18.3467
   18.4814   18.4814   19.2276   19.2276   19.4987   19.4987   20.0904   20.0904   20.2178   20.2178
   20.9900   20.9900   21.2049   21.2049   21.7988   21.7988   22.3725   22.3725   22.5519   22.5519
   23.0089   23.0089   23.1336   23.1336   23.5795   23.5795   23.7609   23.7609   23.9259   23.9259
   24.7740   24.7740   24.7971   24.7971   26.2686   26.2686   26.9078   26.9078   28.8245   28.8245
   28.9012   28.9012   28.9241   28.9241   29.4435   29.4435   29.7856   29.7856   29.9998   29.9998
   30.2752   30.2752   30.4071   30.4071   30.7941   30.7941   30.8846   30.8846   30.9774   30.9774
   31.0352   31.0352   31.2275   31.2275   31.5220   31.5220   31.7154   31.7154   32.3759   32.3759
   32.7647   32.7647   34.1000   34.1000   34.2588   34.2588   34.5824   34.5824   34.8313   34.8313
   35.1202   35.1202   35.1648   35.1648   35.3129   35.3129   35.4399   35.4399   36.0111   36.0111
   36.5989   36.5989   36.8872   36.8872   37.2614   37.2614   37.3420   37.3420   37.6245   37.6245
   38.0445   38.0445   38.2235   38.2235   39.1973   39.1973   39.3792   39.3792   39.9409   39.9409
   40.1130   40.1130   40.7072   40.7072   40.8186   40.8186   40.8597   40.8597   41.1762   41.1762
   41.3483   41.3483   41.3793   41.3793   42.5217   42.5217   42.9051   42.9051   43.2451   43.2451
   43.2847   43.2847   43.6979   43.6979   43.9329   43.9329   43.9925   43.9925   44.1207   44.1207
   44.6731   44.6731   44.6937   44.6937   44.8530   44.8530   45.3573   45.3573   46.3067   46.3067
   46.4458   46.4458   46.7464   46.7464   47.3818   47.3818   49.0966   49.0966   49.1910   49.1910
   49.3634   49.3634   50.3968   50.3968   50.9286   50.9286   51.0010   51.0010   51.1485   51.1485
   51.2756   51.2756   51.7978   51.7978   52.4987   52.4987   52.8599   52.8599   54.6467   54.6467
   54.8560   54.8560   54.9374   54.9374   55.2566   55.2566   55.7498   55.7498   55.7926   55.7926
   55.9640   55.9640   56.4737   56.4737   56.7234   56.7234   58.1694   58.1694   58.7131   58.7131
   59.1748   59.1748   60.2179   60.2179   60.3140   60.3140   60.9930   60.9930   61.4416   61.4416
   61.8419   61.8419   62.0054   62.0054   62.2053   62.2053   64.2803   64.2803   66.3668   66.3668
   67.1455   67.1455   67.2023   67.2023   68.7159   68.7159   68.9236   68.9236   70.6593   70.6593
   73.4135   73.4135   80.7783   80.7783   90.1125   90.1125   91.7200   91.7200   93.3905   93.3905
   98.2850   98.2850   99.2912   99.2912  100.3185  100.3185  103.2887  103.2887  103.5089  103.5089
  110.4455  110.4455  111.2825  111.2825  123.8365  123.8365  126.2245  126.2245  130.8528  130.8528
  139.8503  139.8503  141.1987  141.1987
siesta: Fermi energy =      -3.796372 eV

siesta: Program's energy decomposition (eV):
siesta: Ebs     =     -1136.709406
siesta: Eions   =      3585.165840
siesta: Ena     =       384.948849
siesta: Ekin    =      2907.560240
siesta: Enl     =     -2794.983299
siesta: Eso     =        -0.004257
siesta: Edftu   =         0.000000
siesta: DEna    =        47.462767
siesta: DUscf   =        14.362128
siesta: DUext   =         0.000000
siesta: Exc     =     -1120.697897
siesta: eta*DQ  =         0.000000
siesta: Emadel  =         0.000000
siesta: Emeta   =         0.000000
siesta: Emolmec =         0.000000
siesta: Ekinion =         0.000000
siesta: Eharris =     -4146.517307
siesta: Etot    =     -4146.517307
siesta: FreeEng =     -4146.517307

siesta: Final energy (eV):
siesta:  Band Struct. =   -1136.709406
siesta:       Kinetic =    2907.560240
siesta:       Hartree =    8212.135356
siesta:       Edftu   =       0.000000
siesta:       Eso     =      -0.004257
siesta:    Ext. field =       0.000000
siesta:   Exch.-corr. =   -1120.697897
siesta:  Ion-electron =  -19013.736090
siesta:       Ion-ion =    4868.225339
siesta:       Ekinion =       0.000000
siesta:         Total =   -4146.517307
siesta:         Fermi =      -3.796372

siesta: Atomic forces (eV/Ang):
siesta:      1    3.748699    0.458691   -0.000000
siesta:      2   -0.003308   -0.010978    0.000000
siesta:      3   -0.088448    0.037915   -0.000000
siesta:      4   -0.054002   -0.041929    0.000000
siesta:      5   -0.005662   -0.018912    0.000000
siesta:      6   -0.087815   -0.015850    0.000000
siesta:      7   -0.006830   -0.000228   -0.000000
siesta:      8    0.040709    0.029658    0.000000
siesta:      9    0.065087   -0.015579    0.000000
siesta:     10    0.142041    0.027711   -0.000000
siesta:     11   -0.028449    0.030069    0.000000
siesta:     12   -0.104885   -0.026835   -0.000000
siesta:     13    0.046053    0.137704    0.000000
siesta:     14   -0.089253   -0.053013    0.000000
siesta:     15    0.163989    0.132772   -0.000000
siesta:     16    0.003040    0.184501   -0.000000
siesta:     17   -0.091386    0.020063   -0.000000
siesta:     18    0.011495   -0.012544   -0.000000
siesta:     19   -0.005740    0.053028   -0.000000
siesta:     20   -0.016678    0.007493    0.000000
siesta:     21    0.038198   -0.055073   -0.000000
siesta:     22    0.073571   -0.000821    0.000000
siesta:     23   -0.003238   -0.018876    0.000000
siesta:     24    0.033824    0.126245    0.000000
siesta:     25   -0.073966   -0.011191   -0.000000
siesta:     26   -0.130327    0.206992    0.000000
siesta:     27    0.105404   -0.012819   -0.000000
siesta:     28   -0.256940   -3.496202    0.000000
siesta:     29    0.084834    0.056285   -0.000000
siesta: ----------------------------------------
siesta:    Tot    3.510013   -2.281726   -0.000000

siesta: Stress tensor (static) (eV/Ang**3):
siesta:     0.000121    0.000243    0.000000
siesta:     0.000243    0.000137    0.000000
siesta:    -0.000000    0.000000   -0.000050

siesta: Cell volume =       5630.477680 Ang**3

siesta: Pressure (static):
siesta:                Solid            Molecule  Units
siesta:          -0.00000076          0.00000697  Ry/Bohr**3
siesta:          -0.00006939          0.00063997  eV/Ang**3
siesta:          -0.11118232          1.02536141  kBar
(Free)E+ p_basis*V_orbitals  =       -4126.666890
(Free)Eharris+ p_basis*V_orbitals  =       -4126.666890
     spin moment: S , {S} =    0.00000   0.00000   0.00000  -0.00000

siesta: Electric dipole (a.u.)  =    1.401276   -0.008060    0.000000
siesta: Electric dipole (Debye) =    3.561691   -0.020487    0.000000

cite: Please see "GC.bib" for an exhaustive BiBTeX file.
cite: Please clearly indicate Siesta version in published work: v4.1.5-1-g384057250
cite: This calculation has made use of the following articles
cite: which are encouraged to be cited in a published work.
        Primary SIESTA paper
          DOI: www.doi.org/10.1088/0953-8984/14/11/302
        Spin-orbit coupling (on-site approximation)
          DOI: www.doi.org/10.1088/0953-8984/19/19/489001


WARNING: alloc-realloc-dealloc name mismatch
         Name: atomlist isa
         Size:              -116. Bytes
         Node:     0
         Subsequent mismatches will not be reported
>> End of run:  22-MAY-2023  19:36:30
Job completed
