Siesta Version  : v4.1.5-1-g384057250
Architecture    : gcc
Compiler version: GNU Fortran (Ubuntu 11.3.0-1ubuntu1~22.04) 11.3.0
Compiler flags  : mpifort -O2 -fPIC -ftree-vectorize -fallow-argument-mismatch
PP flags        : -DFC_HAVE_ABORT -DMPI -DSIESTA__FLOOK -DSIESTA__METIS -DSIESTA__MUMPS -DCDF -DNCDF -DNCDF_4 -DNCDF_PARALLEL -DSIESTA__MRRR -DSIESTA__ELPA
Libraries       : libncdf.a libfdict.a  -lflookall -ldl -lnetcdff -lnetcdf -lhdf5_hl -lhdf5 -lhdf5_fortran -lz -lscalapack-openmpi -lopenblas -lmetis -lzmumps -lcmumps -ldmumps -lmumps_common -lpord -lsmumps -lesmumps -lscotch -lscotcherr -fopenmp -lelpa
PARALLEL version
NetCDF support
NetCDF-4 support
NetCDF-4 MPI-IO support
METIS ordering support
Lua support

* Running on 4 nodes in parallel
>> Start of run:   4-JUL-2023   9:03:33

                           ***********************       
                           *  WELCOME TO SIESTA  *       
                           ***********************       

reinit: Reading from standard input
reinit: Dumped input in INPUT_TMP.40409
************************** Dump of input data file ****************************
SystemLabel      GC
NumberOfAtoms    29
NumberOfSpecies  4
%block ChemicalSpeciesLabel
    1    8  O
    2    7  N
    3   14  Si
    4    1  H
%endblock ChemicalSpeciesLabel
# Single point calculation
MD.TypeOfRun                CG
MD.Steps                    0
SCF.MustConverge            F # In case it does not. There can be 2 very close atoms
AtomicCoordinatesFormat NotScaledCartesianAng
%block AtomicCoordinatesAndAtomicSpecies
0.958671510    3.803529300    0.000000000       1
-3.038688210   0.998073330    0.000000000       2
2.066567750    1.099065770    0.000000000       2
1.029569860    -1.834680850   0.000000000       2
-2.108567660   -1.881798240   0.000000000       2
3.912411070    -1.180894430   0.000000000       2
-1.235636790   1.044983000    0.000000000       3
-0.501909240   -1.031832280   0.000000000       3
0.629463280    2.232755840    0.000000000       3
2.280054370    -0.658293540   0.000000000       3
-3.424812990   -0.662324160   0.000000000       3
2.965974160    1.682263990    0.000000000       4
-4.796229390   -1.238728480   0.000000000       4
4.096559410    -2.214148760   0.000000000       4
4.792108680    -0.529147250   0.000000000       4
-2.266861300   -2.922393730   0.000000000       4
4.383574950    4.708629115    0.000000000       3
6.309052700    5.900258445    0.000000000       3
5.844246310    1.974074745    0.000000000       3
7.915426230    4.421121335    0.000000000       3
4.485859490    2.999274425    0.000000000       2
2.804196860    5.378858605    0.000000000       2
7.497316210    2.689238425    0.000000000       2
6.617543520    7.364919805    0.000000000       4
9.407099140    4.621100795    0.000000000       4
2.619570420    6.413732335    0.000000000       4
1.912105070    4.707569875    0.000000000       4
5.834115710    0.375846225    0.000000000       1
8.273914590    1.967408225    0.000000000       4
%endblock AtomicCoordinatesAndAtomicSpecies
%include ../../../Defaults.fdf
************************** End of input data file *****************************

reinit: -----------------------------------------------------------------------
reinit: System Name: 
reinit: -----------------------------------------------------------------------
reinit: System Label: GC
reinit: -----------------------------------------------------------------------

initatom: Reading input for the pseudopotentials and atomic orbitals ----------
Species number:   1 Atomic number:    8 Label: O
Species number:   2 Atomic number:    7 Label: N
Species number:   3 Atomic number:   14 Label: Si
Species number:   4 Atomic number:    1 Label: H

Ground state valence configuration:   2s02  2p04
Reading pseudopotential information in formatted form from O.psf

Pseudopotential generated from a relativistic atomic calculation

Valence configuration for pseudopotential generation:
2s( 2.00) rc: 0.45
2p( 4.00) rc: 0.92
3d( 0.00) rc: 2.24
4f( 0.00) rc: 0.25
Ground state valence configuration:   2s02  2p03
Reading pseudopotential information in formatted form from N.psf

Pseudopotential generated from a relativistic atomic calculation

Valence configuration for pseudopotential generation:
2s( 2.00) rc: 0.94
2p( 3.00) rc: 0.59
3d( 0.00) rc: 3.46
4f( 0.00) rc: 2.47
Ground state valence configuration:   3s02  3p02
Reading pseudopotential information in formatted form from Si.psf

Pseudopotential generated from a relativistic atomic calculation

Valence configuration for pseudopotential generation:
3s( 2.00) rc: 1.67
3p( 2.00) rc: 2.04
3d( 0.00) rc: 2.89
4f( 0.00) rc: 2.49
Ground state valence configuration:   1s01
Reading pseudopotential information in formatted form from H.psf

Pseudopotential generated from a relativistic atomic calculation

Valence configuration for pseudopotential generation:
1s( 1.00) rc: 0.01
2p( 0.00) rc: 0.60
3d( 0.00) rc: 1.99
4f( 0.00) rc: 2.49
For O, standard SIESTA heuristics set lmxkb to 3
 (one more than the basis l, including polarization orbitals).
Use PS.lmax or PS.KBprojectors blocks to override.
For N, standard SIESTA heuristics set lmxkb to 3
 (one more than the basis l, including polarization orbitals).
Use PS.lmax or PS.KBprojectors blocks to override.
For Si, standard SIESTA heuristics set lmxkb to 3
 (one more than the basis l, including polarization orbitals).
Use PS.lmax or PS.KBprojectors blocks to override.
For H, standard SIESTA heuristics set lmxkb to 2
 (one more than the basis l, including polarization orbitals).
Use PS.lmax or PS.KBprojectors blocks to override.

<basis_specs>
===============================================================================
O                    Z=   8    Mass=  16.000        Charge= 0.17977+309
Lmxo=1 Lmxkb= 3    BasisType=split      Semic=F
L=0  Nsemic=0  Cnfigmx=2
          i=1  nzeta=2  polorb=0  (2s)
            splnorm:   0.28000    
               vcte:    0.0000    
               rinn:    0.0000    
               qcoe:    0.0000    
               qyuk:    0.0000    
               qwid:   0.10000E-01
                rcs:    0.0000      0.0000    
            lambdas:    1.0000      1.0000    
L=1  Nsemic=0  Cnfigmx=2
          i=1  nzeta=2  polorb=1  (2p)
            splnorm:   0.28000    
               vcte:    0.0000    
               rinn:    0.0000    
               qcoe:    0.0000    
               qyuk:    0.0000    
               qwid:   0.10000E-01
                rcs:    0.0000      0.0000    
            lambdas:    1.0000      1.0000    
-------------------------------------------------------------------------------
L=0  Nkbl=1  erefs: 0.17977+309
L=1  Nkbl=1  erefs: 0.17977+309
L=2  Nkbl=1  erefs: 0.17977+309
L=3  Nkbl=1  erefs: 0.17977+309
===============================================================================
</basis_specs>

atom: Called for O                     (Z =   8)

read_vps: Pseudopotential generation method:
read_vps: ATM4.2.7  Troullier-Martins                       
Valence charge for ps generation:    6.00000

xc_check: Exchange-correlation functional:
xc_check: GGA Perdew, Burke & Ernzerhof 1996
V l=0 = -2*Zval/r beyond r=  1.1000
V l=1 = -2*Zval/r beyond r=  1.1000
V l=2 = -2*Zval/r beyond r=  2.2154
V l=3 = -2*Zval/r beyond r=  1.1000
All V_l potentials equal beyond r=  2.2154
This should be close to max(r_c) in ps generation
All pots = -2*Zval/r beyond r=  2.2154

VLOCAL1: 99.0% of the norm of Vloc inside      8.845 Ry
VLOCAL1: 99.9% of the norm of Vloc inside     20.157 Ry
atom: Maximum radius for 4*pi*r*r*local-pseudopot. charge    2.67231
atom: Maximum radius for r*vlocal+2*Zval:    2.32897
GHOST: No ghost state for L =  0
GHOST: No ghost state for L =  1
GHOST: No ghost state for L =  2
GHOST: No ghost state for L =  3

KBgen: Kleinman-Bylander projectors: 
   l= 0   rc=  2.243238   el= -1.759686   Ekb=**********   kbcos= -0.171774
   l= 1   rc=  2.328968   el= -0.663873   Ekb=-14.506792   kbcos= -0.519897
   l= 2   rc=  2.573941   el=  0.002031   Ekb= -1.137373   kbcos= -0.019581
   l= 3   rc=  2.606321   el=  0.003153   Ekb= -1.013546   kbcos= -0.003122

KBgen: Total number of Kleinman-Bylander projectors:   16
atom: -------------------------------------------------------------------------

atom: SANKEY-TYPE ORBITALS:
atom: Selected multiple-zeta basis: split     

SPLIT: Orbitals with angular momentum L= 0

SPLIT: Basis orbitals for state 2s

SPLIT: PAO cut-off radius determined from an
SPLIT: energy shift=  0.002000 Ry

   izeta = 1
                 lambda =    1.000000
                     rc =    4.243912
                 energy =   -1.758270
                kinetic =    3.286084
    potential(screened) =   -5.044353
       potential(ionic) =  -12.921184

   izeta = 2
                 rmatch =    2.187845
              splitnorm =    0.280000
                 energy =   -0.885018
                kinetic =    8.134434
    potential(screened) =   -9.019452
       potential(ionic) =  -17.710645

SPLIT: Orbitals with angular momentum L= 1

SPLIT: Basis orbitals for state 2p

SPLIT: PAO cut-off radius determined from an
SPLIT: energy shift=  0.002000 Ry

   izeta = 1
                 lambda =    1.000000
                     rc =    5.314825
                 energy =   -0.661986
                kinetic =    4.917472
    potential(screened) =   -5.579458
       potential(ionic) =  -13.236259

   izeta = 2
                 rmatch =    2.160663
              splitnorm =    0.280000
                 energy =   -0.068760
                kinetic =    9.183374
    potential(screened) =   -9.252135
       potential(ionic) =  -18.274251

POLgen: Perturbative polarization orbital with L=  2

POLgen: Polarization orbital for state 2p

   izeta = 1
                     rc =    5.314825
                 energy =    1.970580
                kinetic =    3.886128
    potential(screened) =   -1.915547
       potential(ionic) =   -7.749584
atom: Total number of Sankey-type orbitals: 13

atm_pop: Valence configuration (for local Pseudopot. screening):
 2s( 2.00)                                                            
 2p( 4.00)                                                            
Vna: chval, zval:    6.00000   6.00000

Vna:  Cut-off radius for the neutral-atom potential:   5.314825

atom: _________________________________________________________________________

<basis_specs>
===============================================================================
N                    Z=   7    Mass=  14.010        Charge= 0.17977+309
Lmxo=1 Lmxkb= 3    BasisType=split      Semic=F
L=0  Nsemic=0  Cnfigmx=2
          i=1  nzeta=2  polorb=0  (2s)
            splnorm:   0.28000    
               vcte:    0.0000    
               rinn:    0.0000    
               qcoe:    0.0000    
               qyuk:    0.0000    
               qwid:   0.10000E-01
                rcs:    0.0000      0.0000    
            lambdas:    1.0000      1.0000    
L=1  Nsemic=0  Cnfigmx=2
          i=1  nzeta=2  polorb=1  (2p)
            splnorm:   0.28000    
               vcte:    0.0000    
               rinn:    0.0000    
               qcoe:    0.0000    
               qyuk:    0.0000    
               qwid:   0.10000E-01
                rcs:    0.0000      0.0000    
            lambdas:    1.0000      1.0000    
-------------------------------------------------------------------------------
L=0  Nkbl=1  erefs: 0.17977+309
L=1  Nkbl=1  erefs: 0.17977+309
L=2  Nkbl=1  erefs: 0.17977+309
L=3  Nkbl=1  erefs: 0.17977+309
===============================================================================
</basis_specs>

atom: Called for N                     (Z =   7)

read_vps: Pseudopotential generation method:
read_vps: ATM4.2.7  Troullier-Martins                       
Valence charge for ps generation:    5.00000

xc_check: Exchange-correlation functional:
xc_check: GGA Perdew, Burke & Ernzerhof 1996
V l=0 = -2*Zval/r beyond r=  1.2889
V l=1 = -2*Zval/r beyond r=  1.2889
V l=2 = -2*Zval/r beyond r=  3.4178
V l=3 = -2*Zval/r beyond r=  2.4084
All V_l potentials equal beyond r=  3.3753
This should be close to max(r_c) in ps generation
All pots = -2*Zval/r beyond r=  3.4178

VLOCAL1: 99.0% of the norm of Vloc inside      3.810 Ry
VLOCAL1: 99.9% of the norm of Vloc inside      8.683 Ry
atom: Maximum radius for 4*pi*r*r*local-pseudopot. charge    4.02088
atom: Maximum radius for r*vlocal+2*Zval:    3.54838
GHOST: No ghost state for L =  0
GHOST: No ghost state for L =  1
GHOST: No ghost state for L =  2
GHOST: No ghost state for L =  3

KBgen: Kleinman-Bylander projectors: 
   l= 0   rc=  3.417763   el= -1.365098   Ekb= -4.433130   kbcos= -0.707855
   l= 1   rc=  3.375302   el= -0.521201   Ekb=-13.264039   kbcos= -0.535594
   l= 2   rc=  3.872880   el=  0.001991   Ekb= -0.641094   kbcos= -0.062456
   l= 3   rc=  3.970931   el=  0.003093   Ekb= -0.474517   kbcos= -0.018236

KBgen: Total number of Kleinman-Bylander projectors:   16
atom: -------------------------------------------------------------------------

atom: SANKEY-TYPE ORBITALS:
atom: Selected multiple-zeta basis: split     

SPLIT: Orbitals with angular momentum L= 0

SPLIT: Basis orbitals for state 2s

SPLIT: PAO cut-off radius determined from an
SPLIT: energy shift=  0.002000 Ry

   izeta = 1
                 lambda =    1.000000
                     rc =    4.730425
                 energy =   -1.363399
                kinetic =    1.245246
    potential(screened) =   -2.608645
       potential(ionic) =   -8.121105

   izeta = 2
                 rmatch =    2.531849
              splitnorm =    0.280000
                 energy =   -0.959908
                kinetic =    2.409435
    potential(screened) =   -3.369343
       potential(ionic) =   -9.427975

SPLIT: Orbitals with angular momentum L= 1

SPLIT: Basis orbitals for state 2p

SPLIT: PAO cut-off radius determined from an
SPLIT: energy shift=  0.002000 Ry

   izeta = 1
                 lambda =    1.000000
                     rc =    5.924108
                 energy =   -0.519262
                kinetic =    3.672940
    potential(screened) =   -4.192202
       potential(ionic) =   -9.518354

   izeta = 2
                 rmatch =    2.531849
              splitnorm =    0.280000
                 energy =   -0.104258
                kinetic =    6.807538
    potential(screened) =   -6.911796
       potential(ionic) =  -13.149920

POLgen: Perturbative polarization orbital with L=  2

POLgen: Polarization orbital for state 2p

   izeta = 1
                     rc =    5.924108
                 energy =    1.427508
                kinetic =    2.872379
    potential(screened) =   -1.444871
       potential(ionic) =   -5.563644
atom: Total number of Sankey-type orbitals: 13

atm_pop: Valence configuration (for local Pseudopot. screening):
 2s( 2.00)                                                            
 2p( 3.00)                                                            
Vna: chval, zval:    5.00000   5.00000

Vna:  Cut-off radius for the neutral-atom potential:   5.924108

atom: _________________________________________________________________________

<basis_specs>
===============================================================================
Si                   Z=  14    Mass=  28.090        Charge= 0.17977+309
Lmxo=1 Lmxkb= 3    BasisType=split      Semic=F
L=0  Nsemic=0  Cnfigmx=3
          i=1  nzeta=2  polorb=0  (3s)
            splnorm:   0.28000    
               vcte:    0.0000    
               rinn:    0.0000    
               qcoe:    0.0000    
               qyuk:    0.0000    
               qwid:   0.10000E-01
                rcs:    0.0000      0.0000    
            lambdas:    1.0000      1.0000    
L=1  Nsemic=0  Cnfigmx=3
          i=1  nzeta=2  polorb=1  (3p)
            splnorm:   0.28000    
               vcte:    0.0000    
               rinn:    0.0000    
               qcoe:    0.0000    
               qyuk:    0.0000    
               qwid:   0.10000E-01
                rcs:    0.0000      0.0000    
            lambdas:    1.0000      1.0000    
-------------------------------------------------------------------------------
L=0  Nkbl=1  erefs: 0.17977+309
L=1  Nkbl=1  erefs: 0.17977+309
L=2  Nkbl=1  erefs: 0.17977+309
L=3  Nkbl=1  erefs: 0.17977+309
===============================================================================
</basis_specs>

atom: Called for Si                    (Z =  14)

read_vps: Pseudopotential generation method:
read_vps: ATM4.2.7  Troullier-Martins                       
Valence charge for ps generation:    4.00000

xc_check: Exchange-correlation functional:
xc_check: GGA Perdew, Burke & Ernzerhof 1996
V l=0 = -2*Zval/r beyond r=  2.7826
V l=1 = -2*Zval/r beyond r=  2.7826
V l=2 = -2*Zval/r beyond r=  2.9253
V l=3 = -2*Zval/r beyond r=  2.7826
All V_l potentials equal beyond r=  2.8530
This should be close to max(r_c) in ps generation
All pots = -2*Zval/r beyond r=  2.9253

VLOCAL1: 99.0% of the norm of Vloc inside      5.333 Ry
VLOCAL1: 99.9% of the norm of Vloc inside     12.154 Ry
atom: Maximum radius for 4*pi*r*r*local-pseudopot. charge    3.39869
atom: Maximum radius for r*vlocal+2*Zval:    2.96205
GHOST: No ghost state for L =  0
GHOST: No ghost state for L =  1
GHOST: No ghost state for L =  2
GHOST: No ghost state for L =  3

KBgen: Kleinman-Bylander projectors: 
   l= 0   rc=  3.075247   el= -0.794092   Ekb=  5.879390   kbcos=  0.167461
   l= 1   rc=  3.153101   el= -0.300068   Ekb=  2.642817   kbcos=  0.058301
   l= 2   rc=  3.273594   el=  0.001958   Ekb= -1.185135   kbcos= -0.104411
   l= 3   rc=  3.232927   el=  0.003046   Ekb= -0.497174   kbcos= -0.015889

KBgen: Total number of Kleinman-Bylander projectors:   16
atom: -------------------------------------------------------------------------

atom: SANKEY-TYPE ORBITALS:
atom: Selected multiple-zeta basis: split     

SPLIT: Orbitals with angular momentum L= 0

SPLIT: Basis orbitals for state 3s

SPLIT: PAO cut-off radius determined from an
SPLIT: energy shift=  0.002000 Ry

   izeta = 1
                 lambda =    1.000000
                     rc =    6.429618
                 energy =   -0.792283
                kinetic =    0.525293
    potential(screened) =   -1.317576
       potential(ionic) =   -3.744923

   izeta = 2
                 rmatch =    3.998416
              splitnorm =    0.280000
                 energy =   -0.583081
                kinetic =    1.069570
    potential(screened) =   -1.652651
       potential(ionic) =   -4.235185

SPLIT: Orbitals with angular momentum L= 1

SPLIT: Basis orbitals for state 3p

SPLIT: PAO cut-off radius determined from an
SPLIT: energy shift=  0.002000 Ry

   izeta = 1
                 lambda =    1.000000
                     rc =    8.464845
                 energy =   -0.298236
                kinetic =    0.785360
    potential(screened) =   -1.083596
       potential(ionic) =   -3.273779

   izeta = 2
                 rmatch =    4.587816
              splitnorm =    0.280000
                 energy =   -0.131871
                kinetic =    1.403687
    potential(screened) =   -1.535557
       potential(ionic) =   -4.015310

POLgen: Perturbative polarization orbital with L=  2

POLgen: Polarization orbital for state 3p

   izeta = 1
                     rc =    8.464845
                 energy =    0.321949
                kinetic =    1.055677
    potential(screened) =   -0.733728
       potential(ionic) =   -2.672950
atom: Total number of Sankey-type orbitals: 13

atm_pop: Valence configuration (for local Pseudopot. screening):
 3s( 2.00)                                                            
 3p( 2.00)                                                            
Vna: chval, zval:    4.00000   4.00000

Vna:  Cut-off radius for the neutral-atom potential:   8.464845

atom: _________________________________________________________________________

<basis_specs>
===============================================================================
H                    Z=   1    Mass=  1.0100        Charge= 0.17977+309
Lmxo=0 Lmxkb= 2    BasisType=split      Semic=F
L=0  Nsemic=0  Cnfigmx=1
          i=1  nzeta=2  polorb=1  (1s)
            splnorm:   0.62000    
               vcte:    0.0000    
               rinn:    0.0000    
               qcoe:    0.0000    
               qyuk:    0.0000    
               qwid:   0.10000E-01
                rcs:    0.0000      0.0000    
            lambdas:    1.0000      1.0000    
-------------------------------------------------------------------------------
L=0  Nkbl=1  erefs: 0.17977+309
L=1  Nkbl=1  erefs: 0.17977+309
L=2  Nkbl=1  erefs: 0.17977+309
===============================================================================
</basis_specs>

atom: Called for H                     (Z =   1)

read_vps: Pseudopotential generation method:
read_vps: ATM4.2.7  Troullier-Martins                       
Valence charge for ps generation:    1.00000

xc_check: Exchange-correlation functional:
xc_check: GGA Perdew, Burke & Ernzerhof 1996
V l=0 = -2*Zval/r beyond r=  0.0098
V l=1 = -2*Zval/r beyond r=  0.5817
V l=2 = -2*Zval/r beyond r=  1.9372
All V_l potentials equal beyond r=  1.9372
This should be close to max(r_c) in ps generation
All pots = -2*Zval/r beyond r=  1.9372

VLOCAL1: 99.0% of the norm of Vloc inside     11.567 Ry
VLOCAL1: 99.9% of the norm of Vloc inside     26.362 Ry
atom: Maximum radius for 4*pi*r*r*local-pseudopot. charge    2.25106
atom: Maximum radius for r*vlocal+2*Zval:    1.91306
GHOST: No ghost state for L =  0
GHOST: No ghost state for L =  1
GHOST: No ghost state for L =  2

KBgen: Kleinman-Bylander projectors: 
   l= 0   rc=  2.036604   el= -0.477180   Ekb= -6.081590   kbcos= -0.277285
   l= 1   rc=  2.195416   el=  0.001076   Ekb= -0.926943   kbcos= -0.034643
   l= 2   rc=  2.251056   el=  0.002010   Ekb= -0.130941   kbcos= -0.009788

KBgen: Total number of Kleinman-Bylander projectors:    9
atom: -------------------------------------------------------------------------

atom: SANKEY-TYPE ORBITALS:
atom: Selected multiple-zeta basis: split     

SPLIT: Orbitals with angular momentum L= 0

SPLIT: Basis orbitals for state 1s

SPLIT: PAO cut-off radius determined from an
SPLIT: energy shift=  0.002000 Ry

   izeta = 1
                 lambda =    1.000000
                     rc =    6.518340
                 energy =   -0.475305
                kinetic =    0.912139
    potential(screened) =   -1.387444
       potential(ionic) =   -1.907295

   izeta = 2
                 rmatch =    2.141150
              splitnorm =    0.620000
                 energy =    0.566467
                kinetic =    3.772856
    potential(screened) =   -3.206389
       potential(ionic) =   -3.759093

POLgen: Perturbative polarization orbital with L=  1

POLgen: Polarization orbital for state 1s

   izeta = 1
                     rc =    6.518340
                 energy =    0.533861
                kinetic =    1.121086
    potential(screened) =   -0.587225
       potential(ionic) =   -1.053027
atom: Total number of Sankey-type orbitals:  5

atm_pop: Valence configuration (for local Pseudopot. screening):
 1s( 1.00)                                                            
Vna: chval, zval:    1.00000   1.00000

Vna:  Cut-off radius for the neutral-atom potential:   6.518340

atom: _________________________________________________________________________

prinput: Basis input ----------------------------------------------------------

PAO.BasisType split     

%block ChemicalSpeciesLabel
    1    8 O                       # Species index, atomic number, species label
    2    7 N                       # Species index, atomic number, species label
    3   14 Si                      # Species index, atomic number, species label
    4    1 H                       # Species index, atomic number, species label
%endblock ChemicalSpeciesLabel

%block PAO.Basis                 # Define Basis set
O                     2                    # Species label, number of l-shells
 n=2   0   2                         # n, l, Nzeta 
   4.244      2.188   
   1.000      1.000   
 n=2   1   2 P   1                   # n, l, Nzeta, Polarization, NzetaPol
   5.315      2.161   
   1.000      1.000   
N                     2                    # Species label, number of l-shells
 n=2   0   2                         # n, l, Nzeta 
   4.730      2.532   
   1.000      1.000   
 n=2   1   2 P   1                   # n, l, Nzeta, Polarization, NzetaPol
   5.924      2.532   
   1.000      1.000   
Si                    2                    # Species label, number of l-shells
 n=3   0   2                         # n, l, Nzeta 
   6.430      3.998   
   1.000      1.000   
 n=3   1   2 P   1                   # n, l, Nzeta, Polarization, NzetaPol
   8.465      4.588   
   1.000      1.000   
H                     1                    # Species label, number of l-shells
 n=1   0   2 P   1                   # n, l, Nzeta, Polarization, NzetaPol
   6.518      2.141   
   1.000      1.000   
%endblock PAO.Basis

prinput: ----------------------------------------------------------------------

Dumping basis to NetCDF file O.ion.nc
Dumping basis to NetCDF file N.ion.nc
Dumping basis to NetCDF file Si.ion.nc
Dumping basis to NetCDF file H.ion.nc
coor:   Atomic-coordinates input format  =     Cartesian coordinates
coor:                                          (in Angstroms)

siesta: Atomic coordinates (Bohr) and species
siesta:      1.81163   7.18763   0.00000  1        1
siesta:     -5.74229   1.88609   0.00000  2        2
siesta:      3.90525   2.07693   0.00000  2        3
siesta:      1.94561  -3.46705   0.00000  2        4
siesta:     -3.98462  -3.55608   0.00000  2        5
siesta:      7.39339  -2.23157   0.00000  2        6
siesta:     -2.33502   1.97473   0.00000  3        7
siesta:     -0.94847  -1.94988   0.00000  3        8
siesta:      1.18951   4.21930   0.00000  3        9
siesta:      4.30868  -1.24399   0.00000  3       10
siesta:     -6.47196  -1.25161   0.00000  3       11
siesta:      5.60488   3.17902   0.00000  4       12
siesta:     -9.06356  -2.34086   0.00000  4       13
siesta:      7.74138  -4.18414   0.00000  4       14
siesta:      9.05578  -0.99994   0.00000  4       15
siesta:     -4.28375  -5.52253   0.00000  4       16
siesta:      8.28376   8.89802   0.00000  3       17
siesta:     11.92239  11.14988   0.00000  3       18
siesta:     11.04403   3.73046   0.00000  3       19
siesta:     14.95799   8.35471   0.00000  3       20
siesta:      8.47705   5.66781   0.00000  2       21
siesta:      5.29917  10.16457   0.00000  2       22
siesta:     14.16788   5.08193   0.00000  2       23
siesta:     12.50535  13.91769   0.00000  4       24
siesta:     17.77685   8.73262   0.00000  4       25
siesta:      4.95027  12.12020   0.00000  4       26
siesta:      3.61336   8.89602   0.00000  4       27
siesta:     11.02489   0.71025   0.00000  1       28
siesta:     15.63544   3.71786   0.00000  4       29

siesta: Automatic unit cell vectors (Ang):
siesta:   23.212244    0.000000    0.000000
siesta:    0.000000   18.904628    0.000000
siesta:    0.000000    0.000000    9.854683

siesta: System type = molecule  

initatomlists: Number of atoms, orbitals, and projectors:     29   297   394

siesta: ******************** Simulation parameters ****************************
siesta:
siesta: The following are some of the parameters of the simulation.
siesta: A complete list of the parameters used, including default values,
siesta: can be found in file out.fdf
siesta:
redata: Spin configuration                          = spin-orbit
redata: Number of spin components                   = 8
redata: Time-Reversal Symmetry                      = F
redata: Spin spiral                                 = F
############################################################
This spin-orbit implementation uses a local approximation.
From 4.2 and onwards the full non-local approximation is implemented
You are strongly advised to use >=4.2 versions!
############################################################
redata: Long output                                 =   F
redata: Number of Atomic Species                    =        4
redata: Charge density info will appear in .RHO file
redata: Write Mulliken Pop.                         = Atomic and Orbital charges
redata: Matel table size (NRTAB)                    =     1024
redata: Mesh Cutoff                                 =   340.0000 Ry
redata: Net charge of the system                    =     0.0000 |e|
redata: Min. number of SCF Iter                     =        1
redata: Max. number of SCF Iter                     =      200
redata: SCF mix quantity                            = Hamiltonian
redata: Mix DM or H after convergence               =   F
redata: Recompute H after scf cycle                 =   F
redata: Mix DM in first SCF step                    =   T
redata: Write Pulay info on disk                    =   F
redata: New DM Occupancy tolerance                  = 0.000000000001
redata: No kicks to SCF
redata: DM Mixing Weight for Kicks                  =     0.5000
redata: Require Harris convergence for SCF          =   F
redata: Harris energy tolerance for SCF             =     0.000100 eV
redata: Require DM convergence for SCF              =   T
redata: DM tolerance for SCF                        =     0.000008
redata: Require EDM convergence for SCF             =   F
redata: EDM tolerance for SCF                       =     0.001000 eV
redata: Require H convergence for SCF               =   T
redata: Hamiltonian tolerance for SCF               =     0.000001 eV
redata: Require (free) Energy convergence for SCF   =   F
redata: (free) Energy tolerance for SCF             =     0.000100 eV
redata: Using Saved Data (generic)                  =   F
redata: Use continuation files for DM               =   F
redata: Neglect nonoverlap interactions             =   F
redata: Method of Calculation                       = Diagonalization
redata: Electronic Temperature                      =   299.9978 K
redata: Fix the spin of the system                  =   F
redata: Dynamics option                             = Single-point calculation
mix.SCF: Pulay mixing                            = Pulay
mix.SCF:    Variant                              = stable
mix.SCF:    History steps                        = 6
mix.SCF:    Linear mixing weight                 =     0.250000
mix.SCF:    Mixing weight                        =     0.250000
mix.SCF:    SVD condition                        = 0.1000E-07
mix.SCF:    Restart steps                        = 24
mix.SCF:    Restart save steps                   = 3
mix.SCF: Spin-component mixing                   all
redata: Save all siesta data in one NC              =   F
redata: ***********************************************************************

%block SCF.Mixers
  Pulay
%endblock SCF.Mixers

%block SCF.Mixer.Pulay
  # Mixing method
  method pulay
  variant stable

  # Mixing options
  weight 0.2500
  weight.linear 0.2500
  history 6
  restart 24
  restart.save 3
%endblock SCF.Mixer.Pulay

DM_history_depth set to one: no extrapolation allowed by default for geometry relaxation
Size of DM history Fstack: 1
Total number of electrons:    98.000000
Total ionic charge:    98.000000

* ProcessorY, Blocksize:    2  24


* Orbital distribution balance (max,min):    81    72


Time-reversal symmetry not used.

siesta: k-grid: Number of k-points =     1
siesta: k-grid: Cutoff (effective) =     4.927 Ang
siesta: k-grid: Supercell and displacements
siesta: k-grid:    1   0   0      0.000
siesta: k-grid:    0   1   0      0.000
siesta: k-grid:    0   0   1      0.000

diag: Algorithm                                     = ELPA-1stage
diag: Parallel over k                               =   F
diag: Use parallel 2D distribution                  =   T
diag: Parallel block-size                           = 24
diag: Parallel distribution                         =     2 x     2
diag: Used triangular part                          = Lower
diag: Absolute tolerance                            =  0.100E-15
diag: Orthogonalization factor                      =  0.100E-05
diag: Memory factor                                 =  1.0000


ts: **************************************************************
ts: Save H and S matrices                           =    F
ts: Save DM and EDM matrices                        =    F
ts: Only save the overlap matrix S                  =    F
ts: **************************************************************

************************ Begin: TS CHECKS AND WARNINGS ************************
************************ End: TS CHECKS AND WARNINGS **************************


                     ====================================
                        Single-point calculation
                     ====================================

outcoor: Atomic coordinates (Ang):                          
    0.95867151    3.80352930    0.00000000   1       1  O
   -3.03868821    0.99807333    0.00000000   2       2  N
    2.06656775    1.09906577    0.00000000   2       3  N
    1.02956986   -1.83468085    0.00000000   2       4  N
   -2.10856766   -1.88179824    0.00000000   2       5  N
    3.91241107   -1.18089443    0.00000000   2       6  N
   -1.23563679    1.04498300    0.00000000   3       7  Si
   -0.50190924   -1.03183228    0.00000000   3       8  Si
    0.62946328    2.23275584    0.00000000   3       9  Si
    2.28005437   -0.65829354    0.00000000   3      10  Si
   -3.42481299   -0.66232416    0.00000000   3      11  Si
    2.96597416    1.68226399    0.00000000   4      12  H
   -4.79622939   -1.23872848    0.00000000   4      13  H
    4.09655941   -2.21414876    0.00000000   4      14  H
    4.79210868   -0.52914725    0.00000000   4      15  H
   -2.26686130   -2.92239373    0.00000000   4      16  H
    4.38357495    4.70862911    0.00000000   3      17  Si
    6.30905270    5.90025845    0.00000000   3      18  Si
    5.84424631    1.97407475    0.00000000   3      19  Si
    7.91542623    4.42112133    0.00000000   3      20  Si
    4.48585949    2.99927442    0.00000000   2      21  N
    2.80419686    5.37885860    0.00000000   2      22  N
    7.49731621    2.68923843    0.00000000   2      23  N
    6.61754352    7.36491981    0.00000000   4      24  H
    9.40709914    4.62110080    0.00000000   4      25  H
    2.61957042    6.41373233    0.00000000   4      26  H
    1.91210507    4.70756988    0.00000000   4      27  H
    5.83411571    0.37584622    0.00000000   1      28  O
    8.27391459    1.96740823    0.00000000   4      29  H

outcell: Unit cell vectors (Ang):
       23.212244    0.000000    0.000000
        0.000000   18.904628    0.000000
        0.000000    0.000000    9.854683

outcell: Cell vector modules (Ang)   :   23.212244   18.904628    9.854683
outcell: Cell angles (23,13,12) (deg):     90.0000     90.0000     90.0000
outcell: Cell volume (Ang**3)        :   4324.4206
<dSpData1D:S at geom step 0
  <sparsity:sparsity for geom step 0
    nrows_g=297 nrows=81 sparsity=.2391 nnzs=21091, refcount: 8>
  <dData1D:(new from dSpData1D) n=21091, refcount: 1>
refcount: 1>
new_DM -- step:     1
Initializing Density Matrix...
DM filled with atomic data:
<dSpData2D:DM initialized from atoms
  <sparsity:sparsity for geom step 0
    nrows_g=297 nrows=81 sparsity=.2391 nnzs=21091, refcount: 9>
  <dData2D:DM n=21091 m=8, refcount: 1>
refcount: 1>
     spin moment: S , {S} =   56.00000   0.00000   0.00000  56.00000
No. of atoms with KB's overlaping orbs in proc 0. Max # of overlaps:      29     214

Initializing spin-orbit part of the Hamiltonian
  Adding spin-orbit effects for O 
  Adding spin-orbit effects for N 
  Adding spin-orbit effects for Si
  Adding spin-orbit effects for H 


New grid distribution:   1
           1       1:  135    1:   54    1:   30
           2       1:  135    1:   54   31:   60
           3       1:  135   55:  108    1:   30
           4       1:  135   55:  108   31:   60

InitMesh: MESH =   270 x   216 x   120 =     6998400
InitMesh: (bp) =   135 x   108 x    60 =      874800
InitMesh: Mesh cutoff (required, used) =   340.000   360.805 Ry
ExtMesh (bp) on 0 =   243 x   158 x   142 =     5451948
New grid distribution:   2
           1      31:  135    1:   24    1:   60
           2       1:   30    1:   22    1:   60
           3      31:  135   25:  108    1:   60
           4       1:   30   23:  108    1:   60
New grid distribution:   3
           1      44:  135    1:   32    1:   60
           2       1:   43    1:   37    1:   60
           3      44:  135   33:  108    1:   60
           4       1:   43   38:  108    1:   60
Setting up quadratic distribution...
ExtMesh (bp) on 0 =   213 x   128 x   172 =     4689408
PhiOnMesh: Number of (b)points on node 0 =               151200
PhiOnMesh: nlist on node 0 =              2652646

stepf: Fermi-Dirac step function

siesta: Program's energy decomposition (eV):
siesta: Ebs     =      -609.502869
siesta: Eions   =      3585.165840
siesta: Ena     =       383.394183
siesta: Ekin    =      3374.930716
siesta: Enl     =     -3304.924293
siesta: Eso     =        -0.003484
siesta: Edftu   =         0.000000
siesta: DEna    =       155.853382
siesta: DUscf   =        78.454193
siesta: DUext   =         0.000000
siesta: Exc     =     -1206.602638
siesta: eta*DQ  =         0.000000
siesta: Emadel  =         0.000000
siesta: Emeta   =         0.000000
siesta: Emolmec =         0.000000
siesta: Ekinion =         0.000000
siesta: Eharris =     -4024.525079
siesta: Etot    =     -4104.063781
siesta: FreeEng =     -4104.065508

        iscf     Eharris(eV)        E_KS(eV)     FreeEng(eV)     dDmax    Ef(eV) dHmax(eV)
   scf:    1    -4024.525079    -4104.063781    -4104.065508  0.955278 -4.904652 19.581930
     spin moment: S , {S} =    2.01057   0.00000   0.00000   2.01057
timer: Routine,Calls,Time,% = IterSCF        1      13.066  18.03
   scf:    2    -4150.802623    -4138.463602    -4138.465300  0.465837 -4.195336 10.820332
     spin moment: S , {S} =    1.99009  -0.00000  -0.00000   1.99009
   scf:    3    -4112.465570    -4135.793507    -4135.814036  0.427509 -4.242393 11.295170
     spin moment: S , {S} =    2.00013  -0.00000  -0.00000   2.00013
   scf:    4    -4151.176850    -4146.322734    -4146.322735  0.302383 -3.860657  5.748858
     spin moment: S , {S} =    0.00009   0.00000   0.00000   0.00009
   scf:    5    -4147.472275    -4146.988288    -4146.988288  0.037829 -3.671865  4.379124
     spin moment: S , {S} =    0.00006   0.00000   0.00000   0.00006
   scf:    6    -4147.801860    -4147.397460    -4147.397460  0.026923 -3.643258  2.079296
     spin moment: S , {S} =    0.00003  -0.00000  -0.00000   0.00003
   scf:    7    -4147.751550    -4147.575627    -4147.575627  0.021368 -3.684296  0.819698
     spin moment: S , {S} =    0.00001  -0.00000  -0.00000   0.00001
   scf:    8    -4147.690039    -4147.631464    -4147.631464  0.012291 -3.775083  0.419849
     spin moment: S , {S} =    0.00000  -0.00000  -0.00000   0.00000
   scf:    9    -4147.668298    -4147.649370    -4147.649370  0.006812 -3.774523  0.275703
     spin moment: S , {S} =    0.00000   0.00000  -0.00000   0.00000
   scf:   10    -4147.691771    -4147.667949    -4147.667949  0.014474 -3.791862  0.122293
     spin moment: S , {S} =    0.00000  -0.00000  -0.00000  -0.00000
   scf:   11    -4147.672183    -4147.669923    -4147.669923  0.004958 -3.786016  0.055674
     spin moment: S , {S} =    0.00000   0.00000  -0.00000   0.00000
   scf:   12    -4147.671260    -4147.670565    -4147.670565  0.002675 -3.782178  0.033986
     spin moment: S , {S} =    0.00000   0.00000  -0.00000   0.00000
   scf:   13    -4147.671359    -4147.670937    -4147.670937  0.002177 -3.780600  0.028369
     spin moment: S , {S} =    0.00000   0.00000  -0.00000   0.00000
   scf:   14    -4147.671729    -4147.671281    -4147.671281  0.003149 -3.779609  0.016912
     spin moment: S , {S} =    0.00000   0.00000   0.00000   0.00000
   scf:   15    -4147.671645    -4147.671428    -4147.671428  0.002671 -3.779984  0.008431
     spin moment: S , {S} =    0.00000   0.00000   0.00000   0.00000
   scf:   16    -4147.671498    -4147.671456    -4147.671456  0.001213 -3.780377  0.004769
     spin moment: S , {S} =    0.00000   0.00000   0.00000   0.00000
   scf:   17    -4147.671470    -4147.671462    -4147.671462  0.000507 -3.780582  0.002818
     spin moment: S , {S} =    0.00000   0.00000   0.00000   0.00000
   scf:   18    -4147.671469    -4147.671465    -4147.671465  0.000311 -3.780659  0.001491
     spin moment: S , {S} =    0.00000   0.00000   0.00000  -0.00000
   scf:   19    -4147.671468    -4147.671466    -4147.671466  0.000198 -3.780652  0.000684
     spin moment: S , {S} =    0.00000   0.00000   0.00000  -0.00000
   scf:   20    -4147.671467    -4147.671466    -4147.671466  0.000084 -3.780587  0.000379
     spin moment: S , {S} =    0.00000   0.00000   0.00000  -0.00000
   scf:   21    -4147.671467    -4147.671467    -4147.671467  0.000089 -3.780537  0.000211
     spin moment: S , {S} =    0.00000   0.00000   0.00000  -0.00000
   scf:   22    -4147.671467    -4147.671467    -4147.671467  0.000014 -3.780519  0.000100
     spin moment: S , {S} =    0.00000   0.00000   0.00000  -0.00000
   scf:   23    -4147.671467    -4147.671467    -4147.671467  0.000007 -3.780515  0.000053
     spin moment: S , {S} =    0.00000   0.00000   0.00000  -0.00000
   scf:   24    -4147.671467    -4147.671467    -4147.671467  0.000008 -3.780512  0.000022
     spin moment: S , {S} =    0.00000   0.00000   0.00000  -0.00000
mix: Pulay -- resetting history
   scf:   25    -4147.671467    -4147.671467    -4147.671467  0.000003 -3.780511  0.000016
     spin moment: S , {S} =    0.00000   0.00000   0.00000   0.00000
   scf:   26    -4147.671467    -4147.671467    -4147.671467  0.000001 -3.780511  0.000011
     spin moment: S , {S} =    0.00000   0.00000   0.00000   0.00000
   scf:   27    -4147.671467    -4147.671467    -4147.671467  0.000001 -3.780512  0.000006
     spin moment: S , {S} =    0.00000   0.00000   0.00000   0.00000
   scf:   28    -4147.671467    -4147.671467    -4147.671467  0.000000 -3.780512  0.000002
     spin moment: S , {S} =    0.00000   0.00000   0.00000  -0.00000
   scf:   29    -4147.671467    -4147.671467    -4147.671467  0.000000 -3.780512  0.000001
     spin moment: S , {S} =    0.00000   0.00000   0.00000  -0.00000
   scf:   30    -4147.671467    -4147.671467    -4147.671467  0.000000 -3.780512  0.000001
     spin moment: S , {S} =    0.00000   0.00000   0.00000  -0.00000

SCF Convergence by DM+H criterion
max |DM_out - DM_in|         :     0.0000002354
max |H_out - H_in|      (eV) :     0.0000007471
SCF cycle converged after 30 iterations

Using DM_out to compute the final energy and forces
No. of atoms with KB's overlaping orbs in proc 0. Max # of overlaps:      29     214

siesta: E_KS(eV) =            -4147.6715

siesta: E_KS - E_eggbox =     -4147.6715
     spin moment: S , {S} =    0.00000   0.00000   0.00000  -0.00000

siesta: Atomic forces (eV/Ang):
     1   -4.038956   -0.914461   -0.000000
     2   -0.025882   -0.006097    0.000000
     3   -0.327531   -0.000254    0.000000
     4   -0.263826    0.064857   -0.000000
     5   -0.010699    0.037454    0.000000
     6   -1.212729   -0.791850   -0.000000
     7   -0.007200    0.080456    0.000000
     8    0.116346   -0.095471    0.000000
     9   -0.011084   -0.464481    0.000000
    10    0.260639   -0.175513    0.000000
    11    0.008395    0.005142   -0.000000
    12    0.245798    0.164828    0.000000
    13   -0.234621    0.049104    0.000000
    14   -0.079747   -0.194536    0.000000
    15    0.165006    0.264503    0.000000
    16   -0.017032   -0.153614   -0.000000
    17   -0.257568    0.416281   -0.000000
    18    0.067540   -0.070559   -0.000000
    19    0.141536    0.363298    0.000000
    20    0.013192    0.136324   -0.000000
    21    0.190671   -0.219603   -0.000000
    22    1.507409    1.025403    0.000000
    23   -0.106114   -0.184924    0.000000
    24   -0.019160   -0.033853    0.000000
    25   -0.019298    0.006976   -0.000000
    26    0.164922    0.137684   -0.000000
    27   -0.326768   -0.372855    0.000000
    28    3.359941   -2.076743   -0.000000
    29   -0.031971    0.024929   -0.000000
----------------------------------------
   Tot   -0.748791   -2.977577    0.000000
----------------------------------------
   Max    4.038956
   Res    0.676842    sqrt( Sum f_i^2 / 3N )
----------------------------------------
   Max    4.038956    constrained

Stress tensor Voigt[x,y,z,yz,xz,xy] (kbar):       -2.30       -2.21       -0.10        0.00        0.00       -2.09
(Free)E + p*V (eV/cell)    -4143.5285
Target enthalpy (eV/cell)    -4147.6715

mulliken: Atomic and Orbital Populations:

Species: O                   

Atom      Orb        Charge      Spin       Svec
----------------------------------------------------------------
    1  1 2s         1.68570   0.00000      0.000   0.000   0.000
    1  2 2s         0.07600   0.00000     -0.000  -0.000   0.000
    1  3 2py        1.31253   0.00000      0.000   0.000  -0.000
    1  4 2pz        1.64078   0.00000      0.000   0.000   0.000
    1  5 2px        1.64533   0.00000      0.000  -0.000  -0.000
    1  6 2py        0.11010   0.00000     -0.000   0.000   0.000
    1  7 2pz       -0.01932   0.00000     -0.000  -0.000   0.000
    1  8 2px        0.00264   0.00000     -0.000   0.000   0.000
    1  9 3Pdxy      0.01076   0.00000      0.000  -0.000  -0.000
    1 10 3Pdyz      0.00698   0.00000      0.000   0.000   0.000
    1 11 3Pdz2      0.00250   0.00000      0.000  -0.000   0.000
    1 12 3Pdxz      0.00008   0.00000      0.000  -0.000  -0.000
    1 13 3Pdx2-y2   0.00479   0.00000     -0.000  -0.000  -0.000
    1     Total     6.47888   0.00000      0.000   0.000   0.000

   28  1 2s         1.70900   0.00000     -0.000  -0.000   0.000
   28  2 2s         0.06886   0.00000      0.000   0.000  -0.000
   28  3 2py        1.31846   0.00000      0.000   0.000  -0.000
   28  4 2pz        1.62535   0.00000     -0.000   0.000   0.000
   28  5 2px        1.66721   0.00000      0.000   0.000  -0.000
   28  6 2py        0.10016   0.00000     -0.000  -0.000   0.000
   28  7 2pz       -0.01725   0.00000      0.000  -0.000   0.000
   28  8 2px       -0.00402   0.00000     -0.000  -0.000   0.000
   28  9 3Pdxy      0.01084   0.00000      0.000   0.000  -0.000
   28 10 3Pdyz      0.00799   0.00000     -0.000  -0.000  -0.000
   28 11 3Pdz2      0.00217   0.00000      0.000  -0.000   0.000
   28 12 3Pdxz      0.00009   0.00000     -0.000   0.000   0.000
   28 13 3Pdx2-y2   0.00620   0.00000     -0.000   0.000   0.000
   28     Total     6.49506   0.00000     -0.000  -0.000   0.000

----------------------------------------------------------------
Total              12.97394   0.00000     -0.000  -0.000   0.000


Species: N                   

Atom      Orb        Charge      Spin       Svec
----------------------------------------------------------------
    2  1 2s         1.55348   0.00000      0.000   0.000   0.000
    2  2 2s         0.08372   0.00000     -0.000  -0.000   0.000
    2  3 2py        1.04109   0.00000     -0.000   0.000   0.000
    2  4 2pz        1.22493   0.00000     -0.000  -0.000   0.000
    2  5 2px        0.98807   0.00000      0.000  -0.000   0.000
    2  6 2py        0.18847   0.00000      0.000  -0.000  -0.000
    2  7 2pz        0.05629   0.00000      0.000   0.000  -0.000
    2  8 2px        0.19554   0.00000     -0.000   0.000  -0.000
    2  9 3Pdxy      0.00855   0.00000      0.000  -0.000   0.000
    2 10 3Pdyz      0.01120   0.00000      0.000   0.000  -0.000
    2 11 3Pdz2      0.00192   0.00000     -0.000  -0.000  -0.000
    2 12 3Pdxz      0.00760   0.00000     -0.000   0.000  -0.000
    2 13 3Pdx2-y2   0.00930   0.00000     -0.000   0.000   0.000
    2     Total     5.37015   0.00000     -0.000  -0.000   0.000

    3  1 2s         1.37811   0.00000      0.000   0.000  -0.000
    3  2 2s         0.12536   0.00000     -0.000  -0.000   0.000
    3  3 2py        0.93443   0.00000      0.000   0.000  -0.000
    3  4 2pz        1.53333   0.00000      0.000   0.000  -0.000
    3  5 2px        1.06197   0.00000      0.000  -0.000  -0.000
    3  6 2py        0.25821   0.00000      0.000  -0.000   0.000
    3  7 2pz        0.00603   0.00000     -0.000  -0.000   0.000
    3  8 2px        0.19445   0.00000     -0.000  -0.000   0.000
    3  9 3Pdxy      0.00415   0.00000     -0.000   0.000  -0.000
    3 10 3Pdyz      0.00385   0.00000     -0.000   0.000   0.000
    3 11 3Pdz2      0.00040   0.00000     -0.000  -0.000  -0.000
    3 12 3Pdxz      0.00286   0.00000     -0.000   0.000   0.000
    3 13 3Pdx2-y2   0.00241   0.00000     -0.000  -0.000  -0.000
    3     Total     5.50557   0.00000      0.000   0.000  -0.000

    4  1 2s         1.46325   0.00000     -0.000   0.000  -0.000
    4  2 2s         0.11892   0.00000      0.000  -0.000   0.000
    4  3 2py        1.12889   0.00000     -0.000  -0.000  -0.000
    4  4 2pz        1.28841   0.00000      0.000   0.000  -0.000
    4  5 2px        0.82555   0.00000     -0.000   0.000  -0.000
    4  6 2py        0.15108   0.00000     -0.000   0.000   0.000
    4  7 2pz        0.05389   0.00000      0.000  -0.000   0.000
    4  8 2px        0.29131   0.00000      0.000  -0.000   0.000
    4  9 3Pdxy      0.00873   0.00000      0.000   0.000  -0.000
    4 10 3Pdyz      0.01048   0.00000      0.000  -0.000   0.000
    4 11 3Pdz2      0.00130   0.00000      0.000   0.000  -0.000
    4 12 3Pdxz      0.00474   0.00000      0.000  -0.000  -0.000
    4 13 3Pdx2-y2   0.00793   0.00000      0.000  -0.000   0.000
    4     Total     5.35447   0.00000     -0.000   0.000  -0.000

    5  1 2s         1.37153   0.00000     -0.000   0.000   0.000
    5  2 2s         0.12994   0.00000      0.000  -0.000  -0.000
    5  3 2py        1.02766   0.00000      0.000  -0.000   0.000
    5  4 2pz        1.49836   0.00000      0.000  -0.000   0.000
    5  5 2px        1.05671   0.00000     -0.000  -0.000   0.000
    5  6 2py        0.20566   0.00000     -0.000   0.000  -0.000
    5  7 2pz        0.01374   0.00000     -0.000  -0.000  -0.000
    5  8 2px        0.20548   0.00000      0.000   0.000  -0.000
    5  9 3Pdxy      0.00387   0.00000     -0.000   0.000  -0.000
    5 10 3Pdyz      0.00244   0.00000     -0.000   0.000  -0.000
    5 11 3Pdz2      0.00141   0.00000     -0.000  -0.000  -0.000
    5 12 3Pdxz      0.00659   0.00000      0.000  -0.000  -0.000
    5 13 3Pdx2-y2   0.00556   0.00000      0.000  -0.000   0.000
    5     Total     5.52896   0.00000     -0.000  -0.000   0.000

    6  1 2s         1.27764   0.00000     -0.000   0.000  -0.000
    6  2 2s         0.17719   0.00000      0.000  -0.000   0.000
    6  3 2py        1.06926   0.00000     -0.000   0.000  -0.000
    6  4 2pz        1.48801   0.00000     -0.000   0.000   0.000
    6  5 2px        0.98510   0.00000      0.000  -0.000  -0.000
    6  6 2py        0.19595   0.00000      0.000  -0.000   0.000
    6  7 2pz        0.03695   0.00000      0.000  -0.000   0.000
    6  8 2px        0.25527   0.00000     -0.000   0.000   0.000
    6  9 3Pdxy      0.00381   0.00000     -0.000  -0.000   0.000
    6 10 3Pdyz      0.00000   0.00000      0.000  -0.000   0.000
    6 11 3Pdz2      0.00202   0.00000      0.000   0.000  -0.000
    6 12 3Pdxz      0.00423   0.00000      0.000  -0.000  -0.000
    6 13 3Pdx2-y2   0.00459   0.00000      0.000   0.000   0.000
    6     Total     5.50003   0.00000     -0.000  -0.000   0.000

   21  1 2s         1.41279   0.00000      0.000   0.000  -0.000
   21  2 2s         0.12704   0.00000     -0.000  -0.000   0.000
   21  3 2py        0.90067   0.00000      0.000   0.000   0.000
   21  4 2pz        1.33670   0.00000     -0.000  -0.000  -0.000
   21  5 2px        1.15585   0.00000     -0.000  -0.000   0.000
   21  6 2py        0.26954   0.00000     -0.000  -0.000   0.000
   21  7 2pz        0.03949   0.00000      0.000  -0.000   0.000
   21  8 2px        0.16205   0.00000      0.000   0.000  -0.000
   21  9 3Pdxy      0.00663   0.00000     -0.000   0.000  -0.000
   21 10 3Pdyz      0.00442   0.00000     -0.000   0.000   0.000
   21 11 3Pdz2     -0.00001   0.00000      0.000  -0.000  -0.000
   21 12 3Pdxz      0.00563   0.00000      0.000   0.000  -0.000
   21 13 3Pdx2-y2   0.00580   0.00000      0.000  -0.000   0.000
   21     Total     5.42660   0.00000      0.000  -0.000   0.000

   22  1 2s         1.30333   0.00000      0.000   0.000   0.000
   22  2 2s         0.16826   0.00000     -0.000  -0.000  -0.000
   22  3 2py        1.06887   0.00000      0.000  -0.000   0.000
   22  4 2pz        1.44039   0.00000     -0.000  -0.000  -0.000
   22  5 2px        1.03054   0.00000      0.000  -0.000  -0.000
   22  6 2py        0.19854   0.00000     -0.000   0.000  -0.000
   22  7 2pz        0.03647   0.00000      0.000   0.000   0.000
   22  8 2px        0.22942   0.00000     -0.000   0.000   0.000
   22  9 3Pdxy      0.00534   0.00000     -0.000  -0.000  -0.000
   22 10 3Pdyz      0.00008   0.00000      0.000   0.000  -0.000
   22 11 3Pdz2      0.00271   0.00000     -0.000  -0.000  -0.000
   22 12 3Pdxz      0.00460   0.00000      0.000   0.000  -0.000
   22 13 3Pdx2-y2   0.00503   0.00000      0.000  -0.000  -0.000
   22     Total     5.49357   0.00000      0.000  -0.000  -0.000

   23  1 2s         1.36246   0.00000     -0.000   0.000   0.000
   23  2 2s         0.13439   0.00000      0.000  -0.000  -0.000
   23  3 2py        1.01050   0.00000     -0.000  -0.000  -0.000
   23  4 2pz        1.53780   0.00000      0.000  -0.000   0.000
   23  5 2px        1.04302   0.00000      0.000  -0.000   0.000
   23  6 2py        0.21713   0.00000      0.000   0.000   0.000
   23  7 2pz        0.00439   0.00000     -0.000   0.000   0.000
   23  8 2px        0.20677   0.00000     -0.000   0.000   0.000
   23  9 3Pdxy      0.00520   0.00000     -0.000  -0.000  -0.000
   23 10 3Pdyz      0.00465   0.00000     -0.000   0.000   0.000
   23 11 3Pdz2      0.00074   0.00000      0.000  -0.000  -0.000
   23 12 3Pdxz      0.00241   0.00000      0.000   0.000   0.000
   23 13 3Pdx2-y2   0.00149   0.00000     -0.000   0.000  -0.000
   23     Total     5.53096   0.00000     -0.000  -0.000   0.000

----------------------------------------------------------------
Total              56.68425   0.00000      0.000  -0.000   0.000


Species: Si                  

Atom      Orb        Charge      Spin       Svec
----------------------------------------------------------------
    7  1 3s         0.64057   0.00000      0.000  -0.000  -0.000
    7  2 3s         0.37685   0.00000     -0.000  -0.000  -0.000
    7  3 3py        0.46407   0.00000      0.000   0.000   0.000
    7  4 3pz        0.68469   0.00000      0.000  -0.000  -0.000
    7  5 3px        0.10935   0.00000      0.000  -0.000  -0.000
    7  6 3py        0.28303   0.00000     -0.000  -0.000  -0.000
    7  7 3pz        0.26741   0.00000     -0.000   0.000  -0.000
    7  8 3px        0.45097   0.00000     -0.000   0.000  -0.000
    7  9 3Pdxy      0.25256   0.00000     -0.000  -0.000  -0.000
    7 10 3Pdyz      0.02860   0.00000     -0.000   0.000  -0.000
    7 11 3Pdz2      0.01073   0.00000      0.000   0.000  -0.000
    7 12 3Pdxz      0.15352   0.00000      0.000   0.000   0.000
    7 13 3Pdx2-y2   0.11137   0.00000      0.000  -0.000   0.000
    7     Total     3.83370   0.00000      0.000  -0.000  -0.000

    8  1 3s         0.65282   0.00000     -0.000   0.000  -0.000
    8  2 3s         0.37029   0.00000     -0.000  -0.000   0.000
    8  3 3py        0.39892   0.00000      0.000  -0.000   0.000
    8  4 3pz        0.49508   0.00000      0.000  -0.000  -0.000
    8  5 3px       -0.01594   0.00000     -0.000  -0.000   0.000
    8  6 3py        0.30387   0.00000     -0.000   0.000  -0.000
    8  7 3pz        0.20715   0.00000     -0.000  -0.000  -0.000
    8  8 3px        0.51175   0.00000      0.000   0.000   0.000
    8  9 3Pdxy      0.25001   0.00000     -0.000  -0.000   0.000
    8 10 3Pdyz      0.11154   0.00000     -0.000   0.000   0.000
    8 11 3Pdz2      0.01389   0.00000      0.000  -0.000  -0.000
    8 12 3Pdxz      0.15828   0.00000      0.000  -0.000  -0.000
    8 13 3Pdx2-y2   0.20346   0.00000      0.000   0.000  -0.000
    8     Total     3.66113   0.00000      0.000  -0.000  -0.000

    9  1 3s         0.58044   0.00000     -0.000  -0.000   0.000
    9  2 3s         0.37657   0.00000      0.000   0.000   0.000
    9  3 3py        0.11531   0.00000      0.000   0.000   0.000
    9  4 3pz        0.46417   0.00000      0.000   0.000   0.000
    9  5 3px        0.33411   0.00000     -0.000  -0.000   0.000
    9  6 3py        0.39426   0.00000      0.000   0.000   0.000
    9  7 3pz        0.19828   0.00000     -0.000  -0.000   0.000
    9  8 3px        0.30057   0.00000      0.000   0.000   0.000
    9  9 3Pdxy      0.27981   0.00000     -0.000  -0.000   0.000
    9 10 3Pdyz      0.18608   0.00000     -0.000   0.000   0.000
    9 11 3Pdz2      0.00978   0.00000     -0.000  -0.000   0.000
    9 12 3Pdxz      0.11099   0.00000     -0.000   0.000   0.000
    9 13 3Pdx2-y2   0.18042   0.00000      0.000  -0.000  -0.000
    9     Total     3.53081   0.00000     -0.000   0.000   0.000

   10  1 3s         0.49018   0.00000     -0.000  -0.000   0.000
   10  2 3s         0.37384   0.00000      0.000   0.000  -0.000
   10  3 3py        0.24579   0.00000     -0.000  -0.000   0.000
   10  4 3pz        0.42745   0.00000     -0.000   0.000   0.000
   10  5 3px        0.09238   0.00000     -0.000   0.000  -0.000
   10  6 3py        0.31690   0.00000     -0.000   0.000  -0.000
   10  7 3pz        0.21405   0.00000      0.000   0.000   0.000
   10  8 3px        0.45255   0.00000      0.000  -0.000   0.000
   10  9 3Pdxy      0.18200   0.00000     -0.000  -0.000   0.000
   10 10 3Pdyz      0.12785   0.00000     -0.000  -0.000  -0.000
   10 11 3Pdz2      0.00918   0.00000      0.000  -0.000   0.000
   10 12 3Pdxz      0.18770   0.00000      0.000  -0.000   0.000
   10 13 3Pdx2-y2   0.30813   0.00000     -0.000  -0.000   0.000
   10     Total     3.42800   0.00000     -0.000  -0.000   0.000

   11  1 3s         0.55136   0.00000     -0.000   0.000  -0.000
   11  2 3s         0.38669   0.00000      0.000  -0.000  -0.000
   11  3 3py        0.31103   0.00000      0.000   0.000  -0.000
   11  4 3pz        0.52810   0.00000     -0.000   0.000  -0.000
   11  5 3px        0.13151   0.00000      0.000  -0.000  -0.000
   11  6 3py        0.29932   0.00000     -0.000  -0.000  -0.000
   11  7 3pz        0.17984   0.00000      0.000   0.000  -0.000
   11  8 3px        0.44297   0.00000     -0.000   0.000   0.000
   11  9 3Pdxy      0.23606   0.00000      0.000   0.000  -0.000
   11 10 3Pdyz      0.12963   0.00000      0.000   0.000  -0.000
   11 11 3Pdz2      0.00998   0.00000     -0.000   0.000   0.000
   11 12 3Pdxz      0.05431   0.00000      0.000   0.000  -0.000
   11 13 3Pdx2-y2   0.19836   0.00000      0.000   0.000  -0.000
   11     Total     3.45917   0.00000      0.000   0.000  -0.000

   17  1 3s         0.64500   0.00000      0.000  -0.000   0.000
   17  2 3s         0.35473   0.00000     -0.000   0.000  -0.000
   17  3 3py        0.23278   0.00000     -0.000  -0.000   0.000
   17  4 3pz        0.43312   0.00000      0.000   0.000   0.000
   17  5 3px        0.22463   0.00000     -0.000  -0.000  -0.000
   17  6 3py        0.36058   0.00000      0.000   0.000   0.000
   17  7 3pz        0.21280   0.00000     -0.000  -0.000   0.000
   17  8 3px        0.39475   0.00000      0.000   0.000   0.000
   17  9 3Pdxy      0.27469   0.00000     -0.000   0.000  -0.000
   17 10 3Pdyz      0.12939   0.00000      0.000  -0.000  -0.000
   17 11 3Pdz2      0.00751   0.00000     -0.000  -0.000  -0.000
   17 12 3Pdxz      0.15072   0.00000      0.000  -0.000  -0.000
   17 13 3Pdx2-y2   0.18453   0.00000     -0.000  -0.000  -0.000
   17     Total     3.60524   0.00000     -0.000  -0.000   0.000

   18  1 3s         0.75453   0.00000     -0.000   0.000  -0.000
   18  2 3s         0.33931   0.00000      0.000  -0.000   0.000
   18  3 3py        0.08190   0.00000     -0.000  -0.000  -0.000
   18  4 3pz        0.80028   0.00000     -0.000   0.000  -0.000
   18  5 3px        0.53998   0.00000      0.000   0.000  -0.000
   18  6 3py        0.51686   0.00000      0.000   0.000  -0.000
   18  7 3pz        0.19530   0.00000      0.000  -0.000  -0.000
   18  8 3px        0.26195   0.00000     -0.000  -0.000  -0.000
   18  9 3Pdxy      0.10611   0.00000     -0.000   0.000   0.000
   18 10 3Pdyz      0.02645   0.00000     -0.000   0.000   0.000
   18 11 3Pdz2      0.00905   0.00000     -0.000   0.000   0.000
   18 12 3Pdxz      0.03354   0.00000     -0.000   0.000   0.000
   18 13 3Pdx2-y2   0.10411   0.00000     -0.000   0.000  -0.000
   18     Total     3.76939   0.00000     -0.000   0.000  -0.000

   19  1 3s         0.45062   0.00000     -0.000  -0.000   0.000
   19  2 3s         0.36556   0.00000      0.000   0.000  -0.000
   19  3 3py        0.08217   0.00000      0.000  -0.000  -0.000
   19  4 3pz        0.39209   0.00000      0.000   0.000  -0.000
   19  5 3px        0.23859   0.00000     -0.000  -0.000   0.000
   19  6 3py        0.44348   0.00000     -0.000  -0.000   0.000
   19  7 3pz        0.19891   0.00000     -0.000   0.000  -0.000
   19  8 3px        0.31290   0.00000      0.000   0.000  -0.000
   19  9 3Pdxy      0.30961   0.00000      0.000  -0.000  -0.000
   19 10 3Pdyz      0.17942   0.00000      0.000  -0.000  -0.000
   19 11 3Pdz2      0.00979   0.00000     -0.000   0.000   0.000
   19 12 3Pdxz      0.10562   0.00000     -0.000   0.000  -0.000
   19 13 3Pdx2-y2   0.24210   0.00000      0.000   0.000  -0.000
   19     Total     3.33085   0.00000      0.000   0.000  -0.000

   20  1 3s         0.68231   0.00000     -0.000  -0.000   0.000
   20  2 3s         0.37518   0.00000      0.000   0.000   0.000
   20  3 3py        0.33986   0.00000     -0.000   0.000   0.000
   20  4 3pz        0.61624   0.00000      0.000  -0.000   0.000
   20  5 3px        0.13990   0.00000      0.000   0.000   0.000
   20  6 3py        0.28005   0.00000     -0.000   0.000  -0.000
   20  7 3pz        0.15983   0.00000      0.000   0.000   0.000
   20  8 3px        0.50180   0.00000     -0.000  -0.000  -0.000
   20  9 3Pdxy      0.09869   0.00000     -0.000  -0.000   0.000
   20 10 3Pdyz      0.12760   0.00000      0.000   0.000   0.000
   20 11 3Pdz2      0.00755   0.00000     -0.000   0.000  -0.000
   20 12 3Pdxz      0.02681   0.00000     -0.000  -0.000  -0.000
   20 13 3Pdx2-y2   0.17654   0.00000      0.000  -0.000   0.000
   20     Total     3.53236   0.00000      0.000  -0.000   0.000

----------------------------------------------------------------
Total              88.83490   0.00000      0.000   0.000  -0.000


Species: H                   

Atom      Orb        Charge      Spin       Svec
----------------------------------------------------------------
   12  1 1s         0.48220   0.00000     -0.000   0.000  -0.000
   12  2 1s         0.17766   0.00000      0.000  -0.000  -0.000
   12  3 2Ppy       0.05024   0.00000      0.000   0.000  -0.000
   12  4 2Ppz       0.03306   0.00000      0.000  -0.000  -0.000
   12  5 2Ppx       0.05675   0.00000      0.000   0.000   0.000
   12     Total     0.79991   0.00000     -0.000   0.000  -0.000

   13  1 1s         1.01853   0.00000     -0.000  -0.000   0.000
   13  2 1s         0.09725   0.00000      0.000   0.000  -0.000
   13  3 2Ppy       0.01914   0.00000     -0.000   0.000   0.000
   13  4 2Ppz       0.02009   0.00000      0.000   0.000  -0.000
   13  5 2Ppx       0.03328   0.00000     -0.000   0.000   0.000
   13     Total     1.18830   0.00000     -0.000   0.000   0.000

   14  1 1s         0.49673   0.00000      0.000  -0.000  -0.000
   14  2 1s         0.19459   0.00000      0.000   0.000  -0.000
   14  3 2Ppy       0.02134   0.00000      0.000  -0.000   0.000
   14  4 2Ppz       0.04942   0.00000      0.000  -0.000  -0.000
   14  5 2Ppx       0.02366   0.00000     -0.000   0.000   0.000
   14     Total     0.78573   0.00000      0.000  -0.000  -0.000

   15  1 1s         0.40049   0.00000      0.000  -0.000  -0.000
   15  2 1s         0.18807   0.00000     -0.000   0.000  -0.000
   15  3 2Ppy       0.06764   0.00000     -0.000  -0.000   0.000
   15  4 2Ppz       0.05342   0.00000      0.000   0.000   0.000
   15  5 2Ppx       0.10759   0.00000     -0.000   0.000  -0.000
   15     Total     0.81720   0.00000      0.000  -0.000  -0.000

   16  1 1s         0.50357   0.00000      0.000  -0.000  -0.000
   16  2 1s         0.19050   0.00000     -0.000   0.000  -0.000
   16  3 2Ppy       0.02897   0.00000      0.000  -0.000  -0.000
   16  4 2Ppz       0.03941   0.00000     -0.000  -0.000  -0.000
   16  5 2Ppx       0.02418   0.00000      0.000  -0.000  -0.000
   16     Total     0.78664   0.00000      0.000  -0.000  -0.000

   24  1 1s         1.05764   0.00000     -0.000  -0.000   0.000
   24  2 1s         0.07618   0.00000      0.000   0.000   0.000
   24  3 2Ppy       0.03073   0.00000     -0.000   0.000  -0.000
   24  4 2Ppz       0.02996   0.00000     -0.000   0.000  -0.000
   24  5 2Ppx       0.01790   0.00000     -0.000  -0.000   0.000
   24     Total     1.21241   0.00000     -0.000   0.000   0.000

   25  1 1s         1.04582   0.00000     -0.000   0.000  -0.000
   25  2 1s         0.08514   0.00000      0.000   0.000   0.000
   25  3 2Ppy       0.01141   0.00000     -0.000   0.000  -0.000
   25  4 2Ppz       0.01917   0.00000     -0.000  -0.000   0.000
   25  5 2Ppx       0.03583   0.00000      0.000   0.000   0.000
   25     Total     1.19738   0.00000     -0.000   0.000  -0.000

   26  1 1s         0.50178   0.00000      0.000   0.000   0.000
   26  2 1s         0.19305   0.00000      0.000  -0.000  -0.000
   26  3 2Ppy       0.02427   0.00000      0.000  -0.000  -0.000
   26  4 2Ppz       0.04869   0.00000     -0.000  -0.000  -0.000
   26  5 2Ppx       0.02355   0.00000     -0.000  -0.000  -0.000
   26     Total     0.79134   0.00000      0.000   0.000  -0.000

   27  1 1s         0.38503   0.00000     -0.000   0.000   0.000
   27  2 1s         0.18922   0.00000     -0.000  -0.000  -0.000
   27  3 2Ppy       0.07934   0.00000      0.000  -0.000  -0.000
   27  4 2Ppz       0.05318   0.00000      0.000  -0.000  -0.000
   27  5 2Ppx       0.11359   0.00000      0.000   0.000  -0.000
   27     Total     0.82037   0.00000     -0.000  -0.000   0.000

   29  1 1s         0.49009   0.00000     -0.000   0.000  -0.000
   29  2 1s         0.18811   0.00000      0.000  -0.000  -0.000
   29  3 2Ppy       0.02473   0.00000     -0.000   0.000   0.000
   29  4 2Ppz       0.03502   0.00000     -0.000  -0.000  -0.000
   29  5 2Ppx       0.02787   0.00000      0.000  -0.000  -0.000
   29     Total     0.76581   0.00000     -0.000  -0.000  -0.000

----------------------------------------------------------------
Total              98.00000   0.00000      0.000   0.000  -0.000


siesta: Eigenvalues (eV):
ik =     1
  -23.2741  -23.2741  -22.9014  -22.9014  -21.5167  -21.5167  -21.2736  -21.2736  -20.8406  -20.8406
  -20.5249  -20.5249  -20.0901  -20.0901  -19.6631  -19.6631  -19.4603  -19.4603  -19.3768  -19.3768
  -14.7659  -14.7659  -13.8756  -13.8756  -13.3037  -13.3037  -13.1451  -13.1451  -13.1020  -13.1020
  -12.7702  -12.7702  -12.5069  -12.5069  -12.1242  -12.1242  -11.9982  -11.9982  -11.8735  -11.8735
  -10.9799  -10.9799  -10.7997  -10.7997  -10.5625  -10.5625  -10.2700  -10.2700  -10.1694  -10.1694
   -9.7340   -9.7340   -9.1534   -9.1534   -8.9423   -8.9423   -8.8290   -8.8290   -8.7785   -8.7785
   -8.4389   -8.4389   -8.4129   -8.4129   -8.2912   -8.2912   -7.9734   -7.9734   -7.7885   -7.7885
   -7.5977   -7.5977   -7.4835   -7.4835   -7.3975   -7.3975   -7.2127   -7.2127   -6.9678   -6.9678
   -6.7974   -6.7974   -6.6776   -6.6776   -6.4956   -6.4956   -6.4221   -6.4221   -6.2110   -6.2110
   -5.9660   -5.9660   -5.9046   -5.9046   -5.5274   -5.5274   -4.3260   -4.3260   -3.2346   -3.2346
   -2.3678   -2.3678   -2.2534   -2.2534   -2.1685   -2.1685   -1.9044   -1.9044   -1.9001   -1.9001
   -1.8272   -1.8272   -1.6499   -1.6499   -1.5641   -1.5641   -1.1741   -1.1741   -1.0391   -1.0391
   -0.9289   -0.9289   -0.5034   -0.5034   -0.4288   -0.4288   -0.2974   -0.2974    0.4255    0.4255
    0.5095    0.5095    0.5468    0.5468    0.7252    0.7252    1.0571    1.0571    1.1508    1.1508
    1.3842    1.3842    1.4100    1.4100    1.5579    1.5579    1.6495    1.6495    2.0607    2.0607
    2.1531    2.1531    2.6624    2.6624    2.7095    2.7095    2.7749    2.7749    2.9092    2.9092
    3.0422    3.0422    3.1958    3.1958    3.4403    3.4403    3.5021    3.5021    3.7486    3.7486
    3.9043    3.9043    4.0737    4.0737    4.1425    4.1425    4.3005    4.3005    4.5874    4.5874
    4.5901    4.5901    4.8007    4.8007    4.8891    4.8891    5.0066    5.0066    5.3203    5.3203
    5.3391    5.3391    5.5962    5.5962    5.7388    5.7388    5.9111    5.9111    5.9774    5.9774
    6.0622    6.0622    6.4226    6.4226    6.4428    6.4428    6.5414    6.5414    6.7139    6.7139
    6.9414    6.9414    7.1376    7.1376    7.2189    7.2189    7.2631    7.2631    7.2779    7.2779
    7.5327    7.5327    7.7249    7.7249    7.7678    7.7678    8.0526    8.0526    8.0868    8.0868
    8.2664    8.2664    8.5999    8.5999    8.6489    8.6489    8.7881    8.7881    8.8134    8.8134
    8.9305    8.9305    9.1254    9.1254    9.3740    9.3740    9.5539    9.5539    9.7374    9.7374
    9.8762    9.8762    9.8964    9.8964   10.0471   10.0471   10.2595   10.2595   10.3627   10.3627
   10.6507   10.6507   10.8170   10.8170   11.1149   11.1149   11.3228   11.3228   11.4283   11.4283
   11.4474   11.4474   11.7010   11.7010   12.3738   12.3738   12.5299   12.5299   12.5674   12.5674
   12.6354   12.6354   12.8280   12.8280   13.2922   13.2922   13.3909   13.3909   13.4802   13.4802
   13.6701   13.6701   13.9199   13.9199   14.1642   14.1642   14.2313   14.2313   14.3370   14.3370
   14.7706   14.7706   14.8883   14.8883   15.2165   15.2165   15.4242   15.4242   15.4669   15.4669
   15.7732   15.7732   16.6555   16.6555   16.7726   16.7726   17.0654   17.0654   17.2597   17.2597
   17.4495   17.4495   17.8503   17.8503   18.7699   18.7699   18.9617   18.9617   19.2639   19.2639
   19.7466   19.7466   20.2508   20.2508   20.3370   20.3370   20.9057   20.9057   21.0200   21.0200
   21.3833   21.3833   22.1166   22.1166   22.4983   22.4983   23.1364   23.1364   23.4498   23.4498
   23.8773   23.8773   24.1222   24.1222   24.3624   24.3624   24.9299   24.9299   25.2524   25.2524
   26.2941   26.2941   26.4540   26.4540   27.1389   27.1389   28.0426   28.0426   29.0056   29.0056
   29.4734   29.4734   29.6366   29.6366   30.2433   30.2433   30.4106   30.4106   30.9136   30.9136
   30.9468   30.9468   30.9738   30.9738   31.4621   31.4621   31.7555   31.7555   31.8400   31.8400
   33.3406   33.3406   33.9316   33.9316   34.0263   34.0263   34.2287   34.2287   35.1594   35.1594
   35.5013   35.5013   35.6157   35.6157   36.4544   36.4544   36.6747   36.6747   36.7914   36.7914
   37.1314   37.1314   37.5184   37.5184   37.7548   37.7548   38.0989   38.0989   38.9607   38.9607
   39.1960   39.1960   39.5710   39.5710   39.6597   39.6597   40.2747   40.2747   40.5112   40.5112
   40.9677   40.9677   41.1236   41.1236   41.9295   41.9295   41.9550   41.9550   42.2135   42.2135
   42.5426   42.5426   43.2344   43.2344   43.4532   43.4532   43.5750   43.5750   43.9355   43.9355
   44.4241   44.4241   44.6057   44.6057   44.8194   44.8194   45.0227   45.0227   45.3654   45.3654
   45.4893   45.4893   46.1681   46.1681   46.5841   46.5841   46.9168   46.9168   47.0045   47.0045
   47.9986   47.9986   48.0672   48.0672   49.8612   49.8612   50.1421   50.1421   50.1799   50.1799
   50.5884   50.5884   50.6702   50.6702   50.7327   50.7327   51.6158   51.6158   52.3877   52.3877
   52.7982   52.7982   53.2519   53.2519   53.6040   53.6040   54.3634   54.3634   54.6997   54.6997
   54.8753   54.8753   55.5272   55.5272   55.9108   55.9108   56.4469   56.4469   57.0403   57.0403
   57.2009   57.2009   57.6968   57.6968   58.8035   58.8035   59.2561   59.2561   60.5318   60.5318
   60.5735   60.5735   60.6847   60.6847   61.4810   61.4810   62.5132   62.5132   62.7175   62.7175
   63.7919   63.7919   64.1322   64.1322   64.7343   64.7343   65.7880   65.7880   66.7041   66.7041
   68.1691   68.1691   68.6536   68.6536   71.1407   71.1407   71.9060   71.9060   72.9621   72.9621
   74.0266   74.0266   75.7036   75.7036   77.0045   77.0045   77.2965   77.2965   89.3421   89.3421
   91.7546   91.7546   92.3022   92.3022   95.5582   95.5582   98.6819   98.6819   98.9117   98.9117
  102.6549  102.6549  103.8143  103.8143  105.5709  105.5709  108.8643  108.8643  109.4784  109.4784
  117.6909  117.6909  119.4562  119.4562  126.2259  126.2259  129.1336  129.1336  140.8604  140.8604
  145.9745  145.9745  148.5413  148.5413
siesta: Fermi energy =      -3.780512 eV

siesta: Program's energy decomposition (eV):
siesta: Ebs     =     -1136.994306
siesta: Eions   =      3585.165840
siesta: Ena     =       383.394183
siesta: Ekin    =      2921.031821
siesta: Enl     =     -2803.826245
siesta: Eso     =        -0.004369
siesta: Edftu   =         0.000000
siesta: DEna    =        48.381769
siesta: DUscf   =        13.790487
siesta: DUext   =         0.000000
siesta: Exc     =     -1125.273273
siesta: eta*DQ  =         0.000000
siesta: Emadel  =         0.000000
siesta: Emeta   =         0.000000
siesta: Emolmec =         0.000000
siesta: Ekinion =         0.000000
siesta: Eharris =     -4147.671467
siesta: Etot    =     -4147.671467
siesta: FreeEng =     -4147.671467

siesta: Final energy (eV):
siesta:  Band Struct. =   -1136.994306
siesta:       Kinetic =    2921.031821
siesta:       Hartree =    9206.920734
siesta:       Edftu   =       0.000000
siesta:       Eso     =      -0.004369
siesta:    Ext. field =       0.000000
siesta:   Exch.-corr. =   -1125.273273
siesta:  Ion-electron =  -21010.810456
siesta:       Ion-ion =    5860.464077
siesta:       Ekinion =       0.000000
siesta:         Total =   -4147.671467
siesta:         Fermi =      -3.780512

siesta: Atomic forces (eV/Ang):
siesta:      1   -4.038956   -0.914461   -0.000000
siesta:      2   -0.025882   -0.006097    0.000000
siesta:      3   -0.327531   -0.000254    0.000000
siesta:      4   -0.263826    0.064857   -0.000000
siesta:      5   -0.010699    0.037454    0.000000
siesta:      6   -1.212729   -0.791850   -0.000000
siesta:      7   -0.007200    0.080456    0.000000
siesta:      8    0.116346   -0.095471    0.000000
siesta:      9   -0.011084   -0.464481    0.000000
siesta:     10    0.260639   -0.175513    0.000000
siesta:     11    0.008395    0.005142   -0.000000
siesta:     12    0.245798    0.164828    0.000000
siesta:     13   -0.234621    0.049104    0.000000
siesta:     14   -0.079747   -0.194536    0.000000
siesta:     15    0.165006    0.264503    0.000000
siesta:     16   -0.017032   -0.153614   -0.000000
siesta:     17   -0.257568    0.416281   -0.000000
siesta:     18    0.067540   -0.070559   -0.000000
siesta:     19    0.141536    0.363298    0.000000
siesta:     20    0.013192    0.136324   -0.000000
siesta:     21    0.190671   -0.219603   -0.000000
siesta:     22    1.507409    1.025403    0.000000
siesta:     23   -0.106114   -0.184924    0.000000
siesta:     24   -0.019160   -0.033853    0.000000
siesta:     25   -0.019298    0.006976   -0.000000
siesta:     26    0.164922    0.137684   -0.000000
siesta:     27   -0.326768   -0.372855    0.000000
siesta:     28    3.359941   -2.076743   -0.000000
siesta:     29   -0.031971    0.024929   -0.000000
siesta: ----------------------------------------
siesta:    Tot   -0.748791   -2.977577    0.000000

siesta: Stress tensor (static) (eV/Ang**3):
siesta:    -0.001437   -0.001305    0.000000
siesta:    -0.001305   -0.001376    0.000000
siesta:     0.000000    0.000000   -0.000061

siesta: Cell volume =       4324.420625 Ang**3

siesta: Pressure (static):
siesta:                Solid            Molecule  Units
siesta:           0.00001043         -0.00001209  Ry/Bohr**3
siesta:           0.00095803         -0.00111047  eV/Ang**3
siesta:           1.53495324         -1.77919424  kBar
(Free)E+ p_basis*V_orbitals  =       -4127.821049
(Free)Eharris+ p_basis*V_orbitals  =       -4127.821049
     spin moment: S , {S} =    0.00000   0.00000   0.00000  -0.00000

siesta: Electric dipole (a.u.)  =    1.610137    0.177157   -0.000000
siesta: Electric dipole (Debye) =    4.092563    0.450288   -0.000000

cite: Please see "GC.bib" for an exhaustive BiBTeX file.
cite: Please clearly indicate Siesta version in published work: v4.1.5-1-g384057250
cite: This calculation has made use of the following articles
cite: which are encouraged to be cited in a published work.
        Primary SIESTA paper
          DOI: www.doi.org/10.1088/0953-8984/14/11/302
        Spin-orbit coupling (on-site approximation)
          DOI: www.doi.org/10.1088/0953-8984/19/19/489001


WARNING: alloc-realloc-dealloc name mismatch
         Name: atomlist isa
         Size:              -116. Bytes
         Node:     0
         Subsequent mismatches will not be reported
>> End of run:   4-JUL-2023   9:08:14
Job completed
