Siesta Version  : v4.1.5-1-g384057250
Architecture    : gcc
Compiler version: GNU Fortran (Ubuntu 11.4.0-1ubuntu1~22.04) 11.4.0
Compiler flags  : mpifort -O2 -fPIC -ftree-vectorize -fallow-argument-mismatch
PP flags        : -DFC_HAVE_ABORT -DMPI -DSIESTA__FLOOK -DSIESTA__METIS -DSIESTA__MUMPS -DCDF -DNCDF -DNCDF_4 -DNCDF_PARALLEL -DSIESTA__MRRR -DSIESTA__ELPA
Libraries       : libncdf.a libfdict.a  -lflookall -ldl -lnetcdff -lnetcdf -lhdf5_hl -lhdf5 -lhdf5_fortran -lz -lscalapack-openmpi -lopenblas -lmetis -lzmumps -lcmumps -ldmumps -lmumps_common -lpord -lsmumps -lesmumps -lscotch -lscotcherr -fopenmp -lelpa
PARALLEL version
NetCDF support
NetCDF-4 support
NetCDF-4 MPI-IO support
METIS ordering support
Lua support

* Running on 8 nodes in parallel
>> Start of run:   1-FEB-2024  18:39:29

                           ***********************       
                           *  WELCOME TO SIESTA  *       
                           ***********************       

reinit: Reading from standard input
reinit: Dumped input in INPUT_TMP.59274
************************** Dump of input data file ****************************
# mpirun -np 4 siesta-4.1.5 < AT.fdf > AT.out &
SystemLabel      AT
NumberOfAtoms    30
NumberOfSpecies  4
%block ChemicalSpeciesLabel
    1    1  H
    2    7  N
    3   14  Si
    4    8  O
%endblock ChemicalSpeciesLabel
############################################
# This overrides Defaults.fdf configuration
############################################
MD.TypeOfRun                Verlet # CG, Verlet
MD.Steps                    0
MaxSCFIterations            200
SCF.MustConverge            F
AtomicCoordinatesFormat NotScaledCartesianAng
%block AtomicCoordinatesAndAtomicSpecies
    2.28494382 -5.19529124 0.0  1  1  H
    1.37433094 -4.6647107 0.0  2  2  N
    -0.21830245 -5.49458215 0.0  3  3  Si
    -0.17484108 -6.98516892 0.0  1  4  H
    -1.66171682 -4.58600741 0.0  2  5  N
    -1.09026419 -2.87456374 0.0  3  6  Si
    -1.53038332 -0.70765692 0.0  3  7  Si
    -3.14415959 -0.09186471 0.0  2  8  N
    -3.40268075 0.95848335 0.0  1  9  H
    -3.95073599 -0.76720972 0.0  1  10  H
    -0.17836637 0.41349951 0.0  2  11  N
    1.49520211 -0.0473996 0.0  3  12  Si
    2.45603905 1.10727302 0.0  1  13  H
    2.30451743 -1.58574382 0.0  2  14  N
    1.10725559 -2.84610319 0.0  3  15  Si
    0.46795389091087974 8.28046369405972 0.0  1  16  H
    -0.34075678908912027 7.588257814059718 0.0  2  17  N
    -1.9973466290891202 8.301377914059719 0.0  3  18  Si
    -1.9004814590891201 9.812103124059718 0.0  1  19  H
    -3.7235029790891203 6.958329784059718 0.0  3  20  Si
    -6.077957229089121 6.950342854059718 0.0  3  21  Si
    -6.640375349089121 7.684832504059718 -1.20183078  1  22  H
    -6.377770979089121 5.471251724059718 -0.08618332  1  23  H
    -6.64048780908912 7.515175314059718 1.28814761  1  24  H
    -2.7941123390891205 4.887758554059718 0.0  3  25  Si
    -3.7435806990891205 3.599222424059718 0.0  4  26  O
    -1.0031674690891204 4.714023084059718 0.0  2  27  N
    -0.6721761090891203 3.681666104059718 0.0  1  28  H
    0.3052907509108797 5.9085695040597175 0.0  3  29  Si
    1.8712276809108797 5.641322654059718 0.0  4  30  O
%endblock AtomicCoordinatesAndAtomicSpecies
#############
# Unit Cell
#############
LatticeConstant 1.0 Ang
%block LatticeVectors
    30.00000    0.000000    0.000000
    0.000000    45.00000    0.000000
    0.000000    0.000000    10.00000
%endblock LatticeVectors
%include ../../../../Defaults.fdf
************************** End of input data file *****************************

reinit: -----------------------------------------------------------------------
reinit: System Name: 
reinit: -----------------------------------------------------------------------
reinit: System Label: AT
reinit: -----------------------------------------------------------------------

initatom: Reading input for the pseudopotentials and atomic orbitals ----------
Species number:   1 Atomic number:    1 Label: H
Species number:   2 Atomic number:    7 Label: N
Species number:   3 Atomic number:   14 Label: Si
Species number:   4 Atomic number:    8 Label: O

Ground state valence configuration:   1s01
Reading pseudopotential information in formatted form from H.psf

Pseudopotential generated from a relativistic atomic calculation

Valence configuration for pseudopotential generation:
1s( 1.00) rc: 0.01
2p( 0.00) rc: 0.60
3d( 0.00) rc: 1.99
4f( 0.00) rc: 2.49
Ground state valence configuration:   2s02  2p03
Reading pseudopotential information in formatted form from N.psf

Pseudopotential generated from a relativistic atomic calculation

Valence configuration for pseudopotential generation:
2s( 2.00) rc: 0.94
2p( 3.00) rc: 0.59
3d( 0.00) rc: 3.46
4f( 0.00) rc: 2.47
Ground state valence configuration:   3s02  3p02
Reading pseudopotential information in formatted form from Si.psf

Pseudopotential generated from a relativistic atomic calculation

Valence configuration for pseudopotential generation:
3s( 2.00) rc: 1.67
3p( 2.00) rc: 2.04
3d( 0.00) rc: 2.89
4f( 0.00) rc: 2.49
Ground state valence configuration:   2s02  2p04
Reading pseudopotential information in formatted form from O.psf

Pseudopotential generated from a relativistic atomic calculation

Valence configuration for pseudopotential generation:
2s( 2.00) rc: 0.45
2p( 4.00) rc: 0.92
3d( 0.00) rc: 2.24
4f( 0.00) rc: 0.25
For H, standard SIESTA heuristics set lmxkb to 2
 (one more than the basis l, including polarization orbitals).
Use PS.lmax or PS.KBprojectors blocks to override.
For N, standard SIESTA heuristics set lmxkb to 3
 (one more than the basis l, including polarization orbitals).
Use PS.lmax or PS.KBprojectors blocks to override.
For Si, standard SIESTA heuristics set lmxkb to 3
 (one more than the basis l, including polarization orbitals).
Use PS.lmax or PS.KBprojectors blocks to override.
For O, standard SIESTA heuristics set lmxkb to 3
 (one more than the basis l, including polarization orbitals).
Use PS.lmax or PS.KBprojectors blocks to override.

<basis_specs>
===============================================================================
H                    Z=   1    Mass=  1.0100        Charge= 0.17977+309
Lmxo=0 Lmxkb= 2    BasisType=split      Semic=F
L=0  Nsemic=0  Cnfigmx=1
          i=1  nzeta=2  polorb=1  (1s)
            splnorm:   0.62000    
               vcte:    0.0000    
               rinn:    0.0000    
               qcoe:    0.0000    
               qyuk:    0.0000    
               qwid:   0.10000E-01
                rcs:    0.0000      0.0000    
            lambdas:    1.0000      1.0000    
-------------------------------------------------------------------------------
L=0  Nkbl=1  erefs: 0.17977+309
L=1  Nkbl=1  erefs: 0.17977+309
L=2  Nkbl=1  erefs: 0.17977+309
===============================================================================
</basis_specs>

atom: Called for H                     (Z =   1)

read_vps: Pseudopotential generation method:
read_vps: ATM4.2.7  Troullier-Martins                       
Valence charge for ps generation:    1.00000

xc_check: Exchange-correlation functional:
xc_check: GGA Perdew, Burke & Ernzerhof 1996
V l=0 = -2*Zval/r beyond r=  0.0098
V l=1 = -2*Zval/r beyond r=  0.5817
V l=2 = -2*Zval/r beyond r=  1.9372
All V_l potentials equal beyond r=  1.9372
This should be close to max(r_c) in ps generation
All pots = -2*Zval/r beyond r=  1.9372

VLOCAL1: 99.0% of the norm of Vloc inside     11.567 Ry
VLOCAL1: 99.9% of the norm of Vloc inside     26.362 Ry
atom: Maximum radius for 4*pi*r*r*local-pseudopot. charge    2.25106
atom: Maximum radius for r*vlocal+2*Zval:    1.91306
GHOST: No ghost state for L =  0
GHOST: No ghost state for L =  1
GHOST: No ghost state for L =  2

KBgen: Kleinman-Bylander projectors: 
   l= 0   rc=  2.036604   el= -0.477180   Ekb= -6.081590   kbcos= -0.277285
   l= 1   rc=  2.195416   el=  0.001076   Ekb= -0.926943   kbcos= -0.034643
   l= 2   rc=  2.251056   el=  0.002010   Ekb= -0.130941   kbcos= -0.009788

KBgen: Total number of Kleinman-Bylander projectors:    9
atom: -------------------------------------------------------------------------

atom: SANKEY-TYPE ORBITALS:
atom: Selected multiple-zeta basis: split     

SPLIT: Orbitals with angular momentum L= 0

SPLIT: Basis orbitals for state 1s

SPLIT: PAO cut-off radius determined from an
SPLIT: energy shift=  0.002000 Ry

   izeta = 1
                 lambda =    1.000000
                     rc =    6.518340
                 energy =   -0.475305
                kinetic =    0.912139
    potential(screened) =   -1.387444
       potential(ionic) =   -1.907295

   izeta = 2
                 rmatch =    2.141150
              splitnorm =    0.620000
                 energy =    0.566467
                kinetic =    3.772856
    potential(screened) =   -3.206389
       potential(ionic) =   -3.759093

POLgen: Perturbative polarization orbital with L=  1

POLgen: Polarization orbital for state 1s

   izeta = 1
                     rc =    6.518340
                 energy =    0.533861
                kinetic =    1.121086
    potential(screened) =   -0.587225
       potential(ionic) =   -1.053027
atom: Total number of Sankey-type orbitals:  5

atm_pop: Valence configuration (for local Pseudopot. screening):
 1s( 1.00)                                                            
Vna: chval, zval:    1.00000   1.00000

Vna:  Cut-off radius for the neutral-atom potential:   6.518340

atom: _________________________________________________________________________

<basis_specs>
===============================================================================
N                    Z=   7    Mass=  14.010        Charge= 0.17977+309
Lmxo=1 Lmxkb= 3    BasisType=split      Semic=F
L=0  Nsemic=0  Cnfigmx=2
          i=1  nzeta=2  polorb=0  (2s)
            splnorm:   0.28000    
               vcte:    0.0000    
               rinn:    0.0000    
               qcoe:    0.0000    
               qyuk:    0.0000    
               qwid:   0.10000E-01
                rcs:    0.0000      0.0000    
            lambdas:    1.0000      1.0000    
L=1  Nsemic=0  Cnfigmx=2
          i=1  nzeta=2  polorb=1  (2p)
            splnorm:   0.28000    
               vcte:    0.0000    
               rinn:    0.0000    
               qcoe:    0.0000    
               qyuk:    0.0000    
               qwid:   0.10000E-01
                rcs:    0.0000      0.0000    
            lambdas:    1.0000      1.0000    
-------------------------------------------------------------------------------
L=0  Nkbl=1  erefs: 0.17977+309
L=1  Nkbl=1  erefs: 0.17977+309
L=2  Nkbl=1  erefs: 0.17977+309
L=3  Nkbl=1  erefs: 0.17977+309
===============================================================================
</basis_specs>

atom: Called for N                     (Z =   7)

read_vps: Pseudopotential generation method:
read_vps: ATM4.2.7  Troullier-Martins                       
Valence charge for ps generation:    5.00000

xc_check: Exchange-correlation functional:
xc_check: GGA Perdew, Burke & Ernzerhof 1996
V l=0 = -2*Zval/r beyond r=  1.2889
V l=1 = -2*Zval/r beyond r=  1.2889
V l=2 = -2*Zval/r beyond r=  3.4178
V l=3 = -2*Zval/r beyond r=  2.4084
All V_l potentials equal beyond r=  3.3753
This should be close to max(r_c) in ps generation
All pots = -2*Zval/r beyond r=  3.4178

VLOCAL1: 99.0% of the norm of Vloc inside      3.810 Ry
VLOCAL1: 99.9% of the norm of Vloc inside      8.683 Ry
atom: Maximum radius for 4*pi*r*r*local-pseudopot. charge    4.02088
atom: Maximum radius for r*vlocal+2*Zval:    3.54838
GHOST: No ghost state for L =  0
GHOST: No ghost state for L =  1
GHOST: No ghost state for L =  2
GHOST: No ghost state for L =  3

KBgen: Kleinman-Bylander projectors: 
   l= 0   rc=  3.417763   el= -1.365098   Ekb= -4.433130   kbcos= -0.707855
   l= 1   rc=  3.375302   el= -0.521201   Ekb=-13.264039   kbcos= -0.535594
   l= 2   rc=  3.872880   el=  0.001991   Ekb= -0.641094   kbcos= -0.062456
   l= 3   rc=  3.970931   el=  0.003093   Ekb= -0.474517   kbcos= -0.018236

KBgen: Total number of Kleinman-Bylander projectors:   16
atom: -------------------------------------------------------------------------

atom: SANKEY-TYPE ORBITALS:
atom: Selected multiple-zeta basis: split     

SPLIT: Orbitals with angular momentum L= 0

SPLIT: Basis orbitals for state 2s

SPLIT: PAO cut-off radius determined from an
SPLIT: energy shift=  0.002000 Ry

   izeta = 1
                 lambda =    1.000000
                     rc =    4.730425
                 energy =   -1.363399
                kinetic =    1.245246
    potential(screened) =   -2.608645
       potential(ionic) =   -8.121105

   izeta = 2
                 rmatch =    2.531849
              splitnorm =    0.280000
                 energy =   -0.959908
                kinetic =    2.409435
    potential(screened) =   -3.369343
       potential(ionic) =   -9.427975

SPLIT: Orbitals with angular momentum L= 1

SPLIT: Basis orbitals for state 2p

SPLIT: PAO cut-off radius determined from an
SPLIT: energy shift=  0.002000 Ry

   izeta = 1
                 lambda =    1.000000
                     rc =    5.924108
                 energy =   -0.519262
                kinetic =    3.672940
    potential(screened) =   -4.192202
       potential(ionic) =   -9.518354

   izeta = 2
                 rmatch =    2.531849
              splitnorm =    0.280000
                 energy =   -0.104258
                kinetic =    6.807538
    potential(screened) =   -6.911796
       potential(ionic) =  -13.149920

POLgen: Perturbative polarization orbital with L=  2

POLgen: Polarization orbital for state 2p

   izeta = 1
                     rc =    5.924108
                 energy =    1.427508
                kinetic =    2.872379
    potential(screened) =   -1.444871
       potential(ionic) =   -5.563644
atom: Total number of Sankey-type orbitals: 13

atm_pop: Valence configuration (for local Pseudopot. screening):
 2s( 2.00)                                                            
 2p( 3.00)                                                            
Vna: chval, zval:    5.00000   5.00000

Vna:  Cut-off radius for the neutral-atom potential:   5.924108

atom: _________________________________________________________________________

<basis_specs>
===============================================================================
Si                   Z=  14    Mass=  28.090        Charge= 0.17977+309
Lmxo=1 Lmxkb= 3    BasisType=split      Semic=F
L=0  Nsemic=0  Cnfigmx=3
          i=1  nzeta=2  polorb=0  (3s)
            splnorm:   0.28000    
               vcte:    0.0000    
               rinn:    0.0000    
               qcoe:    0.0000    
               qyuk:    0.0000    
               qwid:   0.10000E-01
                rcs:    0.0000      0.0000    
            lambdas:    1.0000      1.0000    
L=1  Nsemic=0  Cnfigmx=3
          i=1  nzeta=2  polorb=1  (3p)
            splnorm:   0.28000    
               vcte:    0.0000    
               rinn:    0.0000    
               qcoe:    0.0000    
               qyuk:    0.0000    
               qwid:   0.10000E-01
                rcs:    0.0000      0.0000    
            lambdas:    1.0000      1.0000    
-------------------------------------------------------------------------------
L=0  Nkbl=1  erefs: 0.17977+309
L=1  Nkbl=1  erefs: 0.17977+309
L=2  Nkbl=1  erefs: 0.17977+309
L=3  Nkbl=1  erefs: 0.17977+309
===============================================================================
</basis_specs>

atom: Called for Si                    (Z =  14)

read_vps: Pseudopotential generation method:
read_vps: ATM4.2.7  Troullier-Martins                       
Valence charge for ps generation:    4.00000

xc_check: Exchange-correlation functional:
xc_check: GGA Perdew, Burke & Ernzerhof 1996
V l=0 = -2*Zval/r beyond r=  2.7826
V l=1 = -2*Zval/r beyond r=  2.7826
V l=2 = -2*Zval/r beyond r=  2.9253
V l=3 = -2*Zval/r beyond r=  2.7826
All V_l potentials equal beyond r=  2.8530
This should be close to max(r_c) in ps generation
All pots = -2*Zval/r beyond r=  2.9253

VLOCAL1: 99.0% of the norm of Vloc inside      5.333 Ry
VLOCAL1: 99.9% of the norm of Vloc inside     12.154 Ry
atom: Maximum radius for 4*pi*r*r*local-pseudopot. charge    3.39869
atom: Maximum radius for r*vlocal+2*Zval:    2.96205
GHOST: No ghost state for L =  0
GHOST: No ghost state for L =  1
GHOST: No ghost state for L =  2
GHOST: No ghost state for L =  3

KBgen: Kleinman-Bylander projectors: 
   l= 0   rc=  3.075247   el= -0.794092   Ekb=  5.879390   kbcos=  0.167461
   l= 1   rc=  3.153101   el= -0.300068   Ekb=  2.642817   kbcos=  0.058301
   l= 2   rc=  3.273594   el=  0.001958   Ekb= -1.185135   kbcos= -0.104411
   l= 3   rc=  3.232927   el=  0.003046   Ekb= -0.497174   kbcos= -0.015889

KBgen: Total number of Kleinman-Bylander projectors:   16
atom: -------------------------------------------------------------------------

atom: SANKEY-TYPE ORBITALS:
atom: Selected multiple-zeta basis: split     

SPLIT: Orbitals with angular momentum L= 0

SPLIT: Basis orbitals for state 3s

SPLIT: PAO cut-off radius determined from an
SPLIT: energy shift=  0.002000 Ry

   izeta = 1
                 lambda =    1.000000
                     rc =    6.429618
                 energy =   -0.792283
                kinetic =    0.525293
    potential(screened) =   -1.317576
       potential(ionic) =   -3.744923

   izeta = 2
                 rmatch =    3.998416
              splitnorm =    0.280000
                 energy =   -0.583081
                kinetic =    1.069570
    potential(screened) =   -1.652651
       potential(ionic) =   -4.235185

SPLIT: Orbitals with angular momentum L= 1

SPLIT: Basis orbitals for state 3p

SPLIT: PAO cut-off radius determined from an
SPLIT: energy shift=  0.002000 Ry

   izeta = 1
                 lambda =    1.000000
                     rc =    8.464845
                 energy =   -0.298236
                kinetic =    0.785360
    potential(screened) =   -1.083596
       potential(ionic) =   -3.273779

   izeta = 2
                 rmatch =    4.587816
              splitnorm =    0.280000
                 energy =   -0.131871
                kinetic =    1.403687
    potential(screened) =   -1.535557
       potential(ionic) =   -4.015310

POLgen: Perturbative polarization orbital with L=  2

POLgen: Polarization orbital for state 3p

   izeta = 1
                     rc =    8.464845
                 energy =    0.321949
                kinetic =    1.055677
    potential(screened) =   -0.733728
       potential(ionic) =   -2.672950
atom: Total number of Sankey-type orbitals: 13

atm_pop: Valence configuration (for local Pseudopot. screening):
 3s( 2.00)                                                            
 3p( 2.00)                                                            
Vna: chval, zval:    4.00000   4.00000

Vna:  Cut-off radius for the neutral-atom potential:   8.464845

atom: _________________________________________________________________________

<basis_specs>
===============================================================================
O                    Z=   8    Mass=  16.000        Charge= 0.17977+309
Lmxo=1 Lmxkb= 3    BasisType=split      Semic=F
L=0  Nsemic=0  Cnfigmx=2
          i=1  nzeta=2  polorb=0  (2s)
            splnorm:   0.28000    
               vcte:    0.0000    
               rinn:    0.0000    
               qcoe:    0.0000    
               qyuk:    0.0000    
               qwid:   0.10000E-01
                rcs:    0.0000      0.0000    
            lambdas:    1.0000      1.0000    
L=1  Nsemic=0  Cnfigmx=2
          i=1  nzeta=2  polorb=1  (2p)
            splnorm:   0.28000    
               vcte:    0.0000    
               rinn:    0.0000    
               qcoe:    0.0000    
               qyuk:    0.0000    
               qwid:   0.10000E-01
                rcs:    0.0000      0.0000    
            lambdas:    1.0000      1.0000    
-------------------------------------------------------------------------------
L=0  Nkbl=1  erefs: 0.17977+309
L=1  Nkbl=1  erefs: 0.17977+309
L=2  Nkbl=1  erefs: 0.17977+309
L=3  Nkbl=1  erefs: 0.17977+309
===============================================================================
</basis_specs>

atom: Called for O                     (Z =   8)

read_vps: Pseudopotential generation method:
read_vps: ATM4.2.7  Troullier-Martins                       
Valence charge for ps generation:    6.00000

xc_check: Exchange-correlation functional:
xc_check: GGA Perdew, Burke & Ernzerhof 1996
V l=0 = -2*Zval/r beyond r=  1.1000
V l=1 = -2*Zval/r beyond r=  1.1000
V l=2 = -2*Zval/r beyond r=  2.2154
V l=3 = -2*Zval/r beyond r=  1.1000
All V_l potentials equal beyond r=  2.2154
This should be close to max(r_c) in ps generation
All pots = -2*Zval/r beyond r=  2.2154

VLOCAL1: 99.0% of the norm of Vloc inside      8.845 Ry
VLOCAL1: 99.9% of the norm of Vloc inside     20.157 Ry
atom: Maximum radius for 4*pi*r*r*local-pseudopot. charge    2.67231
atom: Maximum radius for r*vlocal+2*Zval:    2.32897
GHOST: No ghost state for L =  0
GHOST: No ghost state for L =  1
GHOST: No ghost state for L =  2
GHOST: No ghost state for L =  3

KBgen: Kleinman-Bylander projectors: 
   l= 0   rc=  2.243238   el= -1.759686   Ekb=**********   kbcos= -0.171774
   l= 1   rc=  2.328968   el= -0.663873   Ekb=-14.506792   kbcos= -0.519897
   l= 2   rc=  2.573941   el=  0.002031   Ekb= -1.137373   kbcos= -0.019581
   l= 3   rc=  2.606321   el=  0.003153   Ekb= -1.013546   kbcos= -0.003122

KBgen: Total number of Kleinman-Bylander projectors:   16
atom: -------------------------------------------------------------------------

atom: SANKEY-TYPE ORBITALS:
atom: Selected multiple-zeta basis: split     

SPLIT: Orbitals with angular momentum L= 0

SPLIT: Basis orbitals for state 2s

SPLIT: PAO cut-off radius determined from an
SPLIT: energy shift=  0.002000 Ry

   izeta = 1
                 lambda =    1.000000
                     rc =    4.243912
                 energy =   -1.758270
                kinetic =    3.286084
    potential(screened) =   -5.044353
       potential(ionic) =  -12.921184

   izeta = 2
                 rmatch =    2.187845
              splitnorm =    0.280000
                 energy =   -0.885018
                kinetic =    8.134434
    potential(screened) =   -9.019452
       potential(ionic) =  -17.710645

SPLIT: Orbitals with angular momentum L= 1

SPLIT: Basis orbitals for state 2p

SPLIT: PAO cut-off radius determined from an
SPLIT: energy shift=  0.002000 Ry

   izeta = 1
                 lambda =    1.000000
                     rc =    5.314825
                 energy =   -0.661986
                kinetic =    4.917472
    potential(screened) =   -5.579458
       potential(ionic) =  -13.236259

   izeta = 2
                 rmatch =    2.160663
              splitnorm =    0.280000
                 energy =   -0.068760
                kinetic =    9.183374
    potential(screened) =   -9.252135
       potential(ionic) =  -18.274251

POLgen: Perturbative polarization orbital with L=  2

POLgen: Polarization orbital for state 2p

   izeta = 1
                     rc =    5.314825
                 energy =    1.970580
                kinetic =    3.886128
    potential(screened) =   -1.915547
       potential(ionic) =   -7.749584
atom: Total number of Sankey-type orbitals: 13

atm_pop: Valence configuration (for local Pseudopot. screening):
 2s( 2.00)                                                            
 2p( 4.00)                                                            
Vna: chval, zval:    6.00000   6.00000

Vna:  Cut-off radius for the neutral-atom potential:   5.314825

atom: _________________________________________________________________________

prinput: Basis input ----------------------------------------------------------

PAO.BasisType split     

%block ChemicalSpeciesLabel
    1    1 H                       # Species index, atomic number, species label
    2    7 N                       # Species index, atomic number, species label
    3   14 Si                      # Species index, atomic number, species label
    4    8 O                       # Species index, atomic number, species label
%endblock ChemicalSpeciesLabel

%block PAO.Basis                 # Define Basis set
H                     1                    # Species label, number of l-shells
 n=1   0   2 P   1                   # n, l, Nzeta, Polarization, NzetaPol
   6.518      2.141   
   1.000      1.000   
N                     2                    # Species label, number of l-shells
 n=2   0   2                         # n, l, Nzeta 
   4.730      2.532   
   1.000      1.000   
 n=2   1   2 P   1                   # n, l, Nzeta, Polarization, NzetaPol
   5.924      2.532   
   1.000      1.000   
Si                    2                    # Species label, number of l-shells
 n=3   0   2                         # n, l, Nzeta 
   6.430      3.998   
   1.000      1.000   
 n=3   1   2 P   1                   # n, l, Nzeta, Polarization, NzetaPol
   8.465      4.588   
   1.000      1.000   
O                     2                    # Species label, number of l-shells
 n=2   0   2                         # n, l, Nzeta 
   4.244      2.188   
   1.000      1.000   
 n=2   1   2 P   1                   # n, l, Nzeta, Polarization, NzetaPol
   5.315      2.161   
   1.000      1.000   
%endblock PAO.Basis

prinput: ----------------------------------------------------------------------

Dumping basis to NetCDF file H.ion.nc
Dumping basis to NetCDF file N.ion.nc
Dumping basis to NetCDF file Si.ion.nc
Dumping basis to NetCDF file O.ion.nc
coor:   Atomic-coordinates input format  =     Cartesian coordinates
coor:                                          (in Angstroms)

siesta: Atomic coordinates (Bohr) and species
siesta:      4.31792  -9.81768   0.00000  1        1
siesta:      2.59711  -8.81503   0.00000  2        2
siesta:     -0.41253 -10.38326   0.00000  3        3
siesta:     -0.33040 -13.20006   0.00000  1        4
siesta:     -3.14019  -8.66630   0.00000  2        5
siesta:     -2.06030  -5.43214   0.00000  3        6
siesta:     -2.89201  -1.33728   0.00000  3        7
siesta:     -5.94160  -0.17360   0.00000  2        8
siesta:     -6.43014   1.81127   0.00000  1        9
siesta:     -7.46581  -1.44982   0.00000  1       10
siesta:     -0.33706   0.78140   0.00000  2       11
siesta:      2.82552  -0.08957   0.00000  3       12
siesta:      4.64124   2.09244   0.00000  1       13
siesta:      4.35491  -2.99662   0.00000  2       14
siesta:      2.09241  -5.37836   0.00000  3       15
siesta:      0.88431  15.64781   0.00000  1       16
siesta:     -0.64394  14.33973   0.00000  2       17
siesta:     -3.77444  15.68734   0.00000  3       18
siesta:     -3.59139  18.54220   0.00000  1       19
siesta:     -7.03640  13.14934   0.00000  3       20
siesta:    -11.48568  13.13425   0.00000  3       21
siesta:    -12.54850  14.52223  -2.27113  1       22
siesta:    -12.05225  10.33917  -0.16286  1       23
siesta:    -12.54871  14.20163   2.43425  1       24
siesta:     -5.28011   9.23653   0.00000  3       25
siesta:     -7.07435   6.80155   0.00000  4       26
siesta:     -1.89571   8.90822   0.00000  2       27
siesta:     -1.27023   6.95734   0.00000  1       28
siesta:      0.57692  11.16558   0.00000  3       29
siesta:      3.53611  10.66056   0.00000  4       30

siesta: System type = molecule  

initatomlists: Number of atoms, orbitals, and projectors:     30   302   403

siesta: ******************** Simulation parameters ****************************
siesta:
siesta: The following are some of the parameters of the simulation.
siesta: A complete list of the parameters used, including default values,
siesta: can be found in file out.fdf
siesta:
redata: Spin configuration                          = spin-orbit
redata: Number of spin components                   = 8
redata: Time-Reversal Symmetry                      = F
redata: Spin spiral                                 = F
############################################################
This spin-orbit implementation uses a local approximation.
From 4.2 and onwards the full non-local approximation is implemented
You are strongly advised to use >=4.2 versions!
############################################################
redata: Long output                                 =   F
redata: Number of Atomic Species                    =        4
redata: Charge density info will appear in .RHO file
redata: Write Mulliken Pop.                         = NO
redata: Matel table size (NRTAB)                    =     1024
redata: Mesh Cutoff                                 =   340.0000 Ry
redata: Net charge of the system                    =     0.0000 |e|
redata: Min. number of SCF Iter                     =        1
redata: Max. number of SCF Iter                     =      200
redata: SCF mix quantity                            = Hamiltonian
redata: Mix DM or H after convergence               =   F
redata: Recompute H after scf cycle                 =   F
redata: Mix DM in first SCF step                    =   T
redata: Write Pulay info on disk                    =   F
redata: New DM Occupancy tolerance                  = 0.000000000001
redata: No kicks to SCF
redata: DM Mixing Weight for Kicks                  =     0.5000
redata: Require Harris convergence for SCF          =   F
redata: Harris energy tolerance for SCF             =     0.000100 eV
redata: Require DM convergence for SCF              =   T
redata: DM tolerance for SCF                        =     0.000008
redata: Require EDM convergence for SCF             =   F
redata: EDM tolerance for SCF                       =     0.001000 eV
redata: Require H convergence for SCF               =   T
redata: Hamiltonian tolerance for SCF               =     0.000001 eV
redata: Require (free) Energy convergence for SCF   =   F
redata: (free) Energy tolerance for SCF             =     0.000100 eV
redata: Using Saved Data (generic)                  =   F
redata: Use continuation files for DM               =   T
redata: Neglect nonoverlap interactions             =   F
redata: Method of Calculation                       = Diagonalization
redata: Electronic Temperature                      =   299.9978 K
redata: Fix the spin of the system                  =   F
redata: Dynamics option                             = Verlet MD run
redata: Initial MD time step                        =        1
redata:   Final MD time step                        =        1
redata: Length of MD time step                      =     0.5000 fs
redata: Initial Temperature of MD run               =     0.0000 K
redata: Perform a MD quench                         =   F
mix.SCF: Pulay mixing                            = Pulay
mix.SCF:    Variant                              = stable
mix.SCF:    History steps                        = 6
mix.SCF:    Linear mixing weight                 =     0.250000
mix.SCF:    Mixing weight                        =     0.250000
mix.SCF:    SVD condition                        = 0.1000E-07
mix.SCF:    Restart steps                        = 24
mix.SCF:    Restart save steps                   = 3
mix.SCF: Spin-component mixing                   all
redata: Save all siesta data in one NC              =   F
redata: ***********************************************************************

%block SCF.Mixers
  Pulay
%endblock SCF.Mixers

%block SCF.Mixer.Pulay
  # Mixing method
  method pulay
  variant stable

  # Mixing options
  weight 0.2500
  weight.linear 0.2500
  history 6
  restart 24
  restart.save 3
%endblock SCF.Mixer.Pulay

Size of DM history Fstack: 3
Total number of electrons:    98.000000
Total ionic charge:    98.000000

* ProcessorY, Blocksize:    2  24


* Orbital distribution balance (max,min):    48    24


Time-reversal symmetry not used.

siesta: k-grid: Number of k-points =     1
siesta: k-grid: Cutoff (effective) =     5.000 Ang
siesta: k-grid: Supercell and displacements
siesta: k-grid:    1   0   0      0.000
siesta: k-grid:    0   1   0      0.000
siesta: k-grid:    0   0   1      0.000

diag: Algorithm                                     = ELPA-1stage
diag: Parallel over k                               =   F
diag: Use parallel 2D distribution                  =   T
diag: Parallel block-size                           = 24
diag: Parallel distribution                         =     2 x     4
diag: Used triangular part                          = Lower
diag: Absolute tolerance                            =  0.100E-15
diag: Orthogonalization factor                      =  0.100E-05
diag: Memory factor                                 =  1.0000


ts: **************************************************************
ts: Save H and S matrices                           =    F
ts: Save DM and EDM matrices                        =    F
ts: Only save the overlap matrix S                  =    F
ts: **************************************************************

************************ Begin: TS CHECKS AND WARNINGS ************************
************************ End: TS CHECKS AND WARNINGS **************************


                     ====================================
                        Begin MD step =      1
                     ====================================

outcoor: Atomic coordinates (Ang):                          
    2.28494382   -5.19529124    0.00000000   1       1  H
    1.37433094   -4.66471070    0.00000000   2       2  N
   -0.21830245   -5.49458215    0.00000000   3       3  Si
   -0.17484108   -6.98516892    0.00000000   1       4  H
   -1.66171682   -4.58600741    0.00000000   2       5  N
   -1.09026419   -2.87456374    0.00000000   3       6  Si
   -1.53038332   -0.70765692    0.00000000   3       7  Si
   -3.14415959   -0.09186471    0.00000000   2       8  N
   -3.40268075    0.95848335    0.00000000   1       9  H
   -3.95073599   -0.76720972    0.00000000   1      10  H
   -0.17836637    0.41349951    0.00000000   2      11  N
    1.49520211   -0.04739960    0.00000000   3      12  Si
    2.45603905    1.10727302    0.00000000   1      13  H
    2.30451743   -1.58574382    0.00000000   2      14  N
    1.10725559   -2.84610319    0.00000000   3      15  Si
    0.46795389    8.28046369    0.00000000   1      16  H
   -0.34075679    7.58825781    0.00000000   2      17  N
   -1.99734663    8.30137791    0.00000000   3      18  Si
   -1.90048146    9.81210312    0.00000000   1      19  H
   -3.72350298    6.95832978    0.00000000   3      20  Si
   -6.07795723    6.95034285    0.00000000   3      21  Si
   -6.64037535    7.68483250   -1.20183078   1      22  H
   -6.37777098    5.47125172   -0.08618332   1      23  H
   -6.64048781    7.51517531    1.28814761   1      24  H
   -2.79411234    4.88775855    0.00000000   3      25  Si
   -3.74358070    3.59922242    0.00000000   4      26  O
   -1.00316747    4.71402308    0.00000000   2      27  N
   -0.67217611    3.68166610    0.00000000   1      28  H
    0.30529075    5.90856950    0.00000000   3      29  Si
    1.87122768    5.64132265    0.00000000   4      30  O

outcell: Unit cell vectors (Ang):
       30.000000    0.000000    0.000000
        0.000000   45.000000    0.000000
        0.000000    0.000000   10.000000

outcell: Cell vector modules (Ang)   :   30.000000   45.000000   10.000000
outcell: Cell angles (23,13,12) (deg):     90.0000     90.0000     90.0000
outcell: Cell volume (Ang**3)        :  13500.0000
<dSpData1D:S at geom step 1
  <sparsity:sparsity for geom step 1
    nrows_g=302 nrows=48 sparsity=.0898 nnzs=8192, refcount: 8>
  <dData1D:(new from dSpData1D) n=8192, refcount: 1>
refcount: 1>
new_DM -- step:     1
Initializing Density Matrix...

Attempting to read DM from file... Failed...
DM filled with atomic data:
<dSpData2D:DM initialized from atoms
  <sparsity:sparsity for geom step 1
    nrows_g=302 nrows=48 sparsity=.0898 nnzs=8192, refcount: 9>
  <dData2D:DM n=8192 m=8, refcount: 1>
refcount: 1>
     spin moment: S , {S} =   56.00000   0.00000   0.00000  56.00000
No. of atoms with KB's overlaping orbs in proc 0. Max # of overlaps:      27     164

Initializing spin-orbit part of the Hamiltonian
  Adding spin-orbit effects for H 
  Adding spin-orbit effects for N 
  Adding spin-orbit effects for Si
  Adding spin-orbit effects for O 


New grid distribution:   1
           1       1:  180    1:  125    1:   15
           2       1:  180    1:  125   16:   30
           3       1:  180    1:  125   31:   45
           4       1:  180    1:  125   46:   60
           5       1:  180  126:  250    1:   15
           6       1:  180  126:  250   16:   30
           7       1:  180  126:  250   31:   45
           8       1:  180  126:  250   46:   60

InitMesh: MESH =   360 x   500 x   120 =    21600000
InitMesh: (bp) =   180 x   250 x    60 =     2700000
InitMesh: Mesh cutoff (required, used) =   340.000   341.206 Ry
ExtMesh (bp) on 0 =   288 x   225 x   123 =     7970400
New grid distribution:   2
           1     153:  180   46:  229    1:   60
           2       1:  159    1:   29    1:   60
           3       1:  159   30:   45    1:   60
           4     160:  180    1:   27    1:   60
           5       1:  152   46:  231    1:   60
           6       1:  152  232:  250    1:   60
           7     153:  180  230:  250    1:   60
           8     160:  180   28:   45    1:   60
New grid distribution:   3
           1     147:  180   51:  218    1:   60
           2       1:  141    1:   28    1:   60
           3       1:  141   29:   50    1:   60
           4     142:  180    1:   27    1:   60
           5       1:  146   51:  222    1:   60
           6       1:  146  223:  250    1:   60
           7     147:  180  219:  250    1:   60
           8     142:  180   28:   50    1:   60
Setting up quadratic distribution...
ExtMesh (bp) on 0 =   136 x   284 x   168 =     6488832
PhiOnMesh: Number of (b)points on node 0 =               309120
PhiOnMesh: nlist on node 0 =              1585065

stepf: Fermi-Dirac step function

siesta: Program's energy decomposition (eV):
siesta: Ebs     =      -614.710279
siesta: Eions   =      3553.971015
siesta: Ena     =       374.963285
siesta: Ekin    =      3168.906958
siesta: Enl     =     -2982.635615
siesta: Eso     =        -0.003893
siesta: Edftu   =         0.000000
siesta: DEna    =       129.537233
siesta: DUscf   =        74.667200
siesta: DUext   =         0.000000
siesta: Exc     =     -1168.135717
siesta: eta*DQ  =         0.000000
siesta: Emadel  =         0.000000
siesta: Emeta   =         0.000000
siesta: Emolmec =         0.000000
siesta: Ekinion =         0.000000
siesta: Eharris =     -3887.344906
siesta: Etot    =     -3956.671563
siesta: FreeEng =     -3956.674907

        iscf     Eharris(eV)        E_KS(eV)     FreeEng(eV)     dDmax    Ef(eV) dHmax(eV)
   scf:    1    -3887.344906    -3956.671563    -3956.674907  0.970151 -4.935839 21.346871
     spin moment: S , {S} =    2.02382  -0.00000  -0.00000   2.02382
timer: Routine,Calls,Time,% = IterSCF        1      11.371  33.68
   scf:    2    -3997.453321    -3989.634154    -3989.634159  0.464750 -4.227370 10.901393
     spin moment: S , {S} =    2.00009   0.00000  -0.00000   2.00009
   scf:    3    -3960.814176    -3986.555905    -3986.595487  0.425880 -4.125958 11.965839
     spin moment: S , {S} =    1.87645  -0.00000  -0.00000   1.87645
   scf:    4    -4002.712766    -3997.607118    -3997.607121  0.240292 -3.853168  4.692822
     spin moment: S , {S} =    0.00011  -0.00000   0.00000   0.00011
   scf:    5    -3998.946848    -3998.340856    -3998.340857  0.035551 -3.731358  2.892839
     spin moment: S , {S} =    0.00006  -0.00000   0.00000   0.00006
   scf:    6    -3999.167514    -3998.751009    -3998.751009  0.028819 -3.700000  1.453341
     spin moment: S , {S} =    0.00003  -0.00000   0.00000   0.00003
   scf:    7    -3999.130680    -3998.935592    -3998.935592  0.022568 -3.757628  0.766336
     spin moment: S , {S} =    0.00001  -0.00000   0.00000   0.00001
   scf:    8    -3999.060995    -3998.996360    -3998.996360  0.012068 -3.795591  0.497452
     spin moment: S , {S} =    0.00000  -0.00000   0.00000   0.00000
   scf:    9    -3999.044848    -3999.019640    -3999.019640  0.006903 -3.810426  0.385820
     spin moment: S , {S} =    0.00000  -0.00000   0.00000   0.00000
   scf:   10    -3999.080755    -3999.042297    -3999.042303  0.021991 -3.840255  0.171072
     spin moment: S , {S} =    0.00002  -0.00000  -0.00000  -0.00002
   scf:   11    -3999.045780    -3999.044139    -3999.044147  0.003848 -3.828462  0.060368
     spin moment: S , {S} =    0.00000  -0.00000  -0.00000  -0.00000
   scf:   12    -3999.044940    -3999.044557    -3999.044567  0.001305 -3.825239  0.034009
     spin moment: S , {S} =    0.00000  -0.00000  -0.00000   0.00000
   scf:   13    -3999.045039    -3999.044797    -3999.044807  0.001011 -3.822858  0.018046
     spin moment: S , {S} =    0.00000  -0.00000  -0.00000   0.00000
   scf:   14    -3999.045011    -3999.044900    -3999.044910  0.000894 -3.821916  0.011080
     spin moment: S , {S} =    0.00000  -0.00000  -0.00000   0.00000
   scf:   15    -3999.045049    -3999.044969    -3999.044979  0.001057 -3.821451  0.008839
     spin moment: S , {S} =    0.00000  -0.00000  -0.00000   0.00000
   scf:   16    -3999.045043    -3999.045002    -3999.045013  0.000880 -3.821354  0.005635
     spin moment: S , {S} =    0.00000  -0.00000  -0.00000   0.00000
   scf:   17    -3999.045022    -3999.045011    -3999.045022  0.000445 -3.821479  0.004629
     spin moment: S , {S} =    0.00000  -0.00000  -0.00000   0.00000
   scf:   18    -3999.045025    -3999.045017    -3999.045028  0.000464 -3.821573  0.002396
     spin moment: S , {S} =    0.00000   0.00000  -0.00000   0.00000
   scf:   19    -3999.045021    -3999.045019    -3999.045030  0.000269 -3.821591  0.001400
     spin moment: S , {S} =    0.00000   0.00000  -0.00000  -0.00000
   scf:   20    -3999.045020    -3999.045019    -3999.045030  0.000100 -3.821603  0.000969
     spin moment: S , {S} =    0.00000   0.00000   0.00000  -0.00000
   scf:   21    -3999.045020    -3999.045020    -3999.045030  0.000110 -3.821594  0.000531
     spin moment: S , {S} =    0.00000   0.00000   0.00000  -0.00000
   scf:   22    -3999.045020    -3999.045020    -3999.045031  0.000093 -3.821597  0.000167
     spin moment: S , {S} =    0.00000   0.00000   0.00000  -0.00000
   scf:   23    -3999.045020    -3999.045020    -3999.045031  0.000026 -3.821600  0.000097
     spin moment: S , {S} =    0.00000   0.00000   0.00000  -0.00000
   scf:   24    -3999.045020    -3999.045020    -3999.045031  0.000010 -3.821599  0.000063
     spin moment: S , {S} =    0.00000  -0.00000   0.00000  -0.00000
mix: Pulay -- resetting history
   scf:   25    -3999.045020    -3999.045020    -3999.045031  0.000003 -3.821599  0.000033
     spin moment: S , {S} =    0.00000  -0.00000   0.00000  -0.00000
   scf:   26    -3999.045020    -3999.045020    -3999.045031  0.000002 -3.821598  0.000023
     spin moment: S , {S} =    0.00000  -0.00000  -0.00000  -0.00000
   scf:   27    -3999.045020    -3999.045020    -3999.045031  0.000002 -3.821598  0.000012
     spin moment: S , {S} =    0.00000  -0.00000  -0.00000  -0.00000
   scf:   28    -3999.045020    -3999.045020    -3999.045031  0.000001 -3.821598  0.000006
     spin moment: S , {S} =    0.00000  -0.00000  -0.00000  -0.00000
   scf:   29    -3999.045020    -3999.045020    -3999.045031  0.000000 -3.821598  0.000004
     spin moment: S , {S} =    0.00000  -0.00000  -0.00000  -0.00000
   scf:   30    -3999.045020    -3999.045020    -3999.045031  0.000001 -3.821598  0.000002
     spin moment: S , {S} =    0.00000  -0.00000  -0.00000   0.00000
   scf:   31    -3999.045020    -3999.045020    -3999.045031  0.000000 -3.821598  0.000001
     spin moment: S , {S} =    0.00000  -0.00000  -0.00000   0.00000
   scf:   32    -3999.045020    -3999.045020    -3999.045031  0.000000 -3.821598  0.000001
     spin moment: S , {S} =    0.00000  -0.00000  -0.00000   0.00000

SCF Convergence by DM+H criterion
max |DM_out - DM_in|         :     0.0000001686
max |H_out - H_in|      (eV) :     0.0000007222
SCF cycle converged after 32 iterations

Using DM_out to compute the final energy and forces
No. of atoms with KB's overlaping orbs in proc 0. Max # of overlaps:      27     164

siesta: E_KS(eV) =            -3999.0450

siesta: E_KS - E_eggbox =     -3999.0450
     spin moment: S , {S} =    0.00000  -0.00000  -0.00000   0.00000

siesta: Atomic forces (eV/Ang):
     1    0.142549   -0.030684   -0.000000
     2   -0.026388    0.038251   -0.000000
     3   -0.024449   -0.016638    0.000000
     4    0.067754   -0.134202    0.000000
     5    0.048450    0.010820   -0.000000
     6   -0.139862    0.013786   -0.000000
     7    0.770914   -0.007386   -0.000004
     8   -0.519267    1.309898    0.000009
     9    0.114319   -0.727255   -0.000021
    10   -0.090274    0.113869    0.000002
    11   -0.125888   -0.234423    0.000003
    12   -0.207188    0.024162    0.000000
    13   -0.124399   -0.042935    0.000000
    14    0.020999   -0.079135   -0.000000
    15    0.079128    0.067476    0.000001
    16   -0.046216   -0.059424   -0.000951
    17    0.005912   -0.041408   -0.000792
    18   -0.087943    0.025362    0.005283
    19   -0.060313   -0.136623   -0.001467
    20    0.082468    0.055133   -0.001159
    21    0.059382   -0.013955   -0.006641
    22    0.051544   -0.017186    0.117431
    23    0.011281    0.089439   -0.012462
    24    0.047523    0.044880   -0.091709
    25   -0.442406   -0.336957    0.001024
    26   -0.573447    0.303011    0.000469
    27    0.249925   -0.383470   -0.000552
    28   -0.055509    0.691606   -0.000082
    29    0.138517    0.094505   -0.000202
    30   -0.598606    4.364153    0.000242
----------------------------------------
   Tot   -1.231491    4.984671    0.008423
----------------------------------------
   Max    4.364153
   Res    0.519655    sqrt( Sum f_i^2 / 3N )
----------------------------------------
   Max    4.364153    constrained

Stress tensor Voigt[x,y,z,yz,xz,xy] (kbar):        0.13        0.35       -0.01       -0.01        0.00        0.09
(Free)E + p*V (eV/cell)    -4000.3553
Target enthalpy (eV/cell)    -3999.0450

siesta: Stress tensor (static) (eV/Ang**3):
         0.000082    0.000056    0.000000
         0.000056    0.000218   -0.000004
         0.000000   -0.000004   -0.000009

siesta: Pressure (static):         -0.15550790  kBar

siesta: Stress tensor (total) (eV/Ang**3):
         0.000082    0.000056    0.000000
         0.000056    0.000218   -0.000004
         0.000000   -0.000004   -0.000009

siesta: Pressure (total):         -0.15550790  kBar

siesta: Temp_ion =       0.000 K

siesta: Eigenvalues (eV):
ik =     1
  -22.8153  -22.8153  -22.4658  -22.4658  -21.7216  -21.7216  -21.2383  -21.2383  -20.9422  -20.9422
  -20.6677  -20.6677  -19.3413  -19.3413  -19.1578  -19.1578  -18.5657  -18.5657  -15.0557  -15.0557
  -14.1374  -14.1374  -13.5567  -13.5567  -13.5363  -13.5363  -13.0866  -13.0866  -12.8052  -12.8052
  -12.4100  -12.4100  -11.9285  -11.9285  -11.9085  -11.9085  -11.4691  -11.4691  -11.4545  -11.4545
  -10.8370  -10.8370  -10.6205  -10.6205  -10.1217  -10.1217   -9.6066   -9.6066   -9.3572   -9.3572
   -9.1565   -9.1565   -9.0703   -9.0703   -9.0055   -9.0055   -8.7246   -8.7246   -8.6036   -8.6036
   -8.4042   -8.4042   -8.1711   -8.1711   -8.0543   -8.0543   -8.0047   -8.0047   -7.8622   -7.8622
   -7.8078   -7.8078   -7.2901   -7.2901   -7.2776   -7.2776   -7.2431   -7.2431   -6.8238   -6.8238
   -6.7584   -6.7584   -6.7142   -6.7142   -6.4102   -6.4102   -6.3074   -6.3074   -6.1392   -6.1392
   -5.7409   -5.7409   -5.7284   -5.7284   -5.4945   -5.4945   -4.1249   -4.1249   -3.5183   -3.5183
   -2.7245   -2.7245   -2.2333   -2.2333   -2.1386   -2.1386   -2.0883   -2.0883   -2.0153   -2.0153
   -1.8760   -1.8760   -1.6496   -1.6496   -1.6389   -1.6389   -1.5009   -1.5009   -1.3226   -1.3226
   -1.1470   -1.1470   -0.4351   -0.4351   -0.2496   -0.2496   -0.2012   -0.2012   -0.1314   -0.1314
   -0.0417   -0.0417    0.0197    0.0197    0.2325    0.2325    0.5860    0.5860    0.6576    0.6576
    0.6609    0.6609    0.8340    0.8340    1.2136    1.2136    1.3719    1.3719    1.4194    1.4194
    1.5316    1.5316    1.5623    1.5623    1.8419    1.8419    2.1369    2.1369    2.2932    2.2932
    2.5101    2.5101    2.7378    2.7378    2.7880    2.7880    2.9339    2.9339    3.1060    3.1060
    3.1326    3.1326    3.1378    3.1378    3.2304    3.2304    3.3258    3.3258    3.5920    3.5920
    3.8312    3.8312    3.9185    3.9185    4.1494    4.1494    4.3492    4.3492    4.3537    4.3537
    4.3759    4.3759    4.7471    4.7471    4.8360    4.8360    4.9991    4.9991    5.0674    5.0674
    5.1745    5.1745    5.4432    5.4432    5.5601    5.5601    5.6976    5.6976    5.8220    5.8220
    5.9657    5.9657    6.1107    6.1107    6.2511    6.2511    6.3514    6.3514    6.3958    6.3958
    6.6285    6.6285    6.8021    6.8021    6.8762    6.8762    7.1125    7.1125    7.3223    7.3223
    7.4144    7.4144    7.5867    7.5867    7.7656    7.7656    7.8364    7.8364    8.0861    8.0861
    8.1472    8.1472    8.2935    8.2935    8.4869    8.4869    8.6273    8.6273    8.6965    8.6965
    8.9769    8.9769    9.1200    9.1200    9.1773    9.1773    9.3956    9.3956    9.6596    9.6596
    9.7972    9.7972    9.8103    9.8103    9.9302    9.9302   10.0525   10.0525   10.1613   10.1613
   10.4343   10.4343   10.6301   10.6301   10.8073   10.8073   10.9364   10.9364   11.1878   11.1878
   11.3126   11.3126   11.6071   11.6071   11.6919   11.6919   11.8774   11.8774   11.9200   11.9200
   11.9624   11.9624   12.3587   12.3587   12.5047   12.5047   12.5434   12.5434   12.6215   12.6215
   12.9254   12.9254   13.0361   13.0361   13.2702   13.2702   13.4998   13.4998   13.5299   13.5299
   13.6338   13.6338   13.9277   13.9277   14.5605   14.5605   14.8293   14.8293   14.9408   14.9408
   15.0128   15.0128   15.1375   15.1375   15.1828   15.1828   16.0775   16.0775   16.5244   16.5244
   16.9238   16.9238   16.9670   16.9670   17.0859   17.0859   17.2588   17.2588   17.6660   17.6660
   18.2254   18.2254   18.4196   18.4196   18.6855   18.6855   18.7941   18.7941   18.9188   18.9188
   18.9821   18.9821   19.5819   19.5819   19.7493   19.7493   20.0426   20.0426   20.6362   20.6362
   20.8389   20.8389   21.2410   21.2410   21.6183   21.6183   21.6675   21.6675   22.2853   22.2853
   22.3924   22.3924   23.1064   23.1064   23.1629   23.1629   23.2909   23.2909   23.9886   23.9886
   24.6395   24.6395   24.8558   24.8558   25.0646   25.0646   25.8906   25.8906   25.9150   25.9150
   26.3336   26.3336   26.6353   26.6353   26.7576   26.7576   27.7469   27.7469   27.9379   27.9379
   28.4421   28.4421   28.9932   28.9932   29.4719   29.4719   30.5117   30.5117   30.9038   30.9038
   30.9251   30.9251   30.9270   30.9270   31.2828   31.2828   31.4648   31.4648   31.7181   31.7181
   32.0152   32.0152   32.0694   32.0694   32.2850   32.2850   33.4633   33.4633   33.7166   33.7166
   34.1240   34.1240   34.2002   34.2002   34.6464   34.6464   34.7772   34.7772   35.8913   35.8913
   35.9980   35.9980   36.3374   36.3374   37.0892   37.0892   37.2841   37.2841   37.9970   37.9970
   38.1297   38.1297   38.5219   38.5219   38.6396   38.6396   38.8943   38.8943   39.2528   39.2528
   40.0599   40.0599   40.3809   40.3809   40.8910   40.8910   41.2650   41.2650   41.4142   41.4142
   41.9574   41.9574   42.6306   42.6306   43.1956   43.1956   43.6769   43.6769   43.9849   43.9849
   44.7934   44.7934   45.0543   45.0543   45.3032   45.3032   45.3059   45.3059   45.7993   45.7993
   46.4502   46.4502   46.5720   46.5720   46.9170   46.9170   47.4539   47.4539   47.5396   47.5396
   47.9914   47.9914   48.7378   48.7378   49.1447   49.1447   49.3408   49.3408   49.4472   49.4472
   50.0940   50.0940   50.2702   50.2702   50.5675   50.5675   50.5961   50.5961   51.0907   51.0907
   51.8125   51.8125   53.0331   53.0331   53.6674   53.6674   54.1207   54.1207   54.5329   54.5330
   55.1860   55.1860   55.5629   55.5629   55.9389   55.9389   56.6102   56.6102   56.7098   56.7098
   58.0257   58.0257   58.7280   58.7280   58.7959   58.7959   60.4141   60.4141   60.5493   60.5493
   61.2653   61.2653   62.4304   62.4304   62.5464   62.5464   63.1579   63.1579   63.7610   63.7610
   65.5864   65.5864   65.6870   65.6870   67.2811   67.2811   67.6629   67.6629   68.6439   68.6439
   68.9784   68.9784   70.8876   70.8876   72.1498   72.1498   79.4883   79.4883   88.7492   88.7492
   92.8765   92.8765   93.3975   93.3975   95.3975   95.3975   97.0751   97.0751  100.2980  100.2980
  102.1454  102.1454  102.7726  102.7726  116.0169  116.0169  119.4839  119.4839  123.6769  123.6769
  133.5708  133.5708  140.3764  140.3764
siesta: Fermi energy =      -3.821598 eV

siesta: Program's energy decomposition (eV):
siesta: Ebs     =     -1107.449112
siesta: Eions   =      3553.971015
siesta: Ena     =       374.963285
siesta: Ekin    =      2743.104348
siesta: Enl     =     -2523.039134
siesta: Eso     =        -0.004670
siesta: Edftu   =         0.000000
siesta: DEna    =        37.018142
siesta: DUscf   =        13.790133
siesta: DUext   =         0.000000
siesta: Exc     =     -1090.906110
siesta: eta*DQ  =         0.000000
siesta: Emadel  =         0.000000
siesta: Emeta   =         0.000000
siesta: Emolmec =         0.000000
siesta: Ekinion =         0.000000
siesta: Eharris =     -3999.045020
siesta: Etot    =     -3999.045020
siesta: FreeEng =     -3999.045031

siesta: Final energy (eV):
siesta:  Band Struct. =   -1107.449112
siesta:       Kinetic =    2743.104348
siesta:       Hartree =   13942.763946
siesta:       Edftu   =       0.000000
siesta:       Eso     =      -0.004670
siesta:    Ext. field =       0.000000
siesta:   Exch.-corr. =   -1090.906110
siesta:  Ion-electron =  -30320.293201
siesta:       Ion-ion =   10726.290667
siesta:       Ekinion =       0.000000
siesta:         Total =   -3999.045020
siesta:         Fermi =      -3.821598

siesta: Atomic forces (eV/Ang):
siesta:      1    0.142549   -0.030684   -0.000000
siesta:      2   -0.026388    0.038251   -0.000000
siesta:      3   -0.024449   -0.016638    0.000000
siesta:      4    0.067754   -0.134202    0.000000
siesta:      5    0.048450    0.010820   -0.000000
siesta:      6   -0.139862    0.013786   -0.000000
siesta:      7    0.770914   -0.007386   -0.000004
siesta:      8   -0.519267    1.309898    0.000009
siesta:      9    0.114319   -0.727255   -0.000021
siesta:     10   -0.090274    0.113869    0.000002
siesta:     11   -0.125888   -0.234423    0.000003
siesta:     12   -0.207188    0.024162    0.000000
siesta:     13   -0.124399   -0.042935    0.000000
siesta:     14    0.020999   -0.079135   -0.000000
siesta:     15    0.079128    0.067476    0.000001
siesta:     16   -0.046216   -0.059424   -0.000951
siesta:     17    0.005912   -0.041408   -0.000792
siesta:     18   -0.087943    0.025362    0.005283
siesta:     19   -0.060313   -0.136623   -0.001467
siesta:     20    0.082468    0.055133   -0.001159
siesta:     21    0.059382   -0.013955   -0.006641
siesta:     22    0.051544   -0.017186    0.117431
siesta:     23    0.011281    0.089439   -0.012462
siesta:     24    0.047523    0.044880   -0.091709
siesta:     25   -0.442406   -0.336957    0.001024
siesta:     26   -0.573447    0.303011    0.000469
siesta:     27    0.249925   -0.383470   -0.000552
siesta:     28   -0.055509    0.691606   -0.000082
siesta:     29    0.138517    0.094505   -0.000202
siesta:     30   -0.598606    4.364153    0.000242
siesta: ----------------------------------------
siesta:    Tot   -1.231491    4.984671    0.008423

siesta: Stress tensor (static) (eV/Ang**3):
siesta:     0.000082    0.000056    0.000000
siesta:     0.000056    0.000218   -0.000004
siesta:     0.000000   -0.000004   -0.000009

siesta: Cell volume =      13500.000000 Ang**3

siesta: Pressure (static):
siesta:                Solid            Molecule  Units
siesta:          -0.00000106         -0.00000452  Ry/Bohr**3
siesta:          -0.00009706         -0.00041491  eV/Ang**3
siesta:          -0.15550790         -0.66477359  kBar
(Free)E+ p_basis*V_orbitals  =       -3977.916945
(Free)Eharris+ p_basis*V_orbitals  =       -3977.916945
     spin moment: S , {S} =    0.00000  -0.00000  -0.00000   0.00000

siesta: Electric dipole (a.u.)  =   -1.169943    1.722932   -0.001787
siesta: Electric dipole (Debye) =   -2.973700    4.379258   -0.004541

cite: Please see "AT.bib" for an exhaustive BiBTeX file.
cite: Please clearly indicate Siesta version in published work: v4.1.5-1-g384057250
cite: This calculation has made use of the following articles
cite: which are encouraged to be cited in a published work.
        Primary SIESTA paper
          DOI: www.doi.org/10.1088/0953-8984/14/11/302
        Spin-orbit coupling (on-site approximation)
          DOI: www.doi.org/10.1088/0953-8984/19/19/489001


WARNING: alloc-realloc-dealloc name mismatch
         Name: atomlist isa
         Size:              -120. Bytes
         Node:     0
         Subsequent mismatches will not be reported
>> End of run:   1-FEB-2024  18:43:13
Job completed
