Siesta Version  : v4.1.5-1-g384057250
Architecture    : gcc
Compiler version: GNU Fortran (Ubuntu 11.4.0-1ubuntu1~22.04) 11.4.0
Compiler flags  : mpifort -O2 -fPIC -ftree-vectorize -fallow-argument-mismatch
PP flags        : -DFC_HAVE_ABORT -DMPI -DSIESTA__FLOOK -DSIESTA__METIS -DSIESTA__MUMPS -DCDF -DNCDF -DNCDF_4 -DNCDF_PARALLEL -DSIESTA__MRRR -DSIESTA__ELPA
Libraries       : libncdf.a libfdict.a  -lflookall -ldl -lnetcdff -lnetcdf -lhdf5_hl -lhdf5 -lhdf5_fortran -lz -lscalapack-openmpi -lopenblas -lmetis -lzmumps -lcmumps -ldmumps -lmumps_common -lpord -lsmumps -lesmumps -lscotch -lscotcherr -fopenmp -lelpa
PARALLEL version
NetCDF support
NetCDF-4 support
NetCDF-4 MPI-IO support
METIS ordering support
Lua support

* Running on 8 nodes in parallel
>> Start of run:   1-FEB-2024  21:37:08

                           ***********************       
                           *  WELCOME TO SIESTA  *       
                           ***********************       

reinit: Reading from standard input
reinit: Dumped input in INPUT_TMP.98938
************************** Dump of input data file ****************************
# mpirun -np 4 siesta-4.1.5 < GC.fdf > GC.out &
SystemLabel      GC
NumberOfAtoms    29
NumberOfSpecies  4
%block ChemicalSpeciesLabel
    1    1  H
    2    7  N
    3   14  Si
    4    8  O
%endblock ChemicalSpeciesLabel
############################################
# This overrides Defaults.fdf configuration
############################################
MD.TypeOfRun                Verlet # CG, Verlet
MD.Steps                    0
MaxSCFIterations            200
SCF.MustConverge            F
AtomicCoordinatesFormat NotScaledCartesianAng
%block AtomicCoordinatesAndAtomicSpecies
    0.809598784110566 3.9320656169829795 0.0  1  1  H
    0.10311205411056604 3.1420294369829795 0.0  2  2  N
    -1.627174855889434 3.5833933469829793 0.0  3  3  Si
    -1.7829545358894339 5.0733856069829795 0.0  1  4  H
    -3.150496475889434 2.0244858269829793 0.0  3  5  Si
    -4.633684105889435 2.2673161869829794 0.0  1  6  H
    -1.9521056158894339 0.11120966698297918 0.0  3  7  Si
    -2.718131075889434 -1.421507073017021 0.0  2  8  N
    -2.127884525889434 -2.3787201030170206 0.0  1  9  H
    -3.769753395889434 -1.5019673030170209 0.0  1  10  H
    -0.23590555588943396 0.16638397698297916 0.0  2  11  N
    0.839117064110566 1.4967228169829792 0.0  3  12  Si
    2.447790384110566 1.4779125569829792 0.0  4  13  O
    5.6164483 -7.44953905 0.0  1  14  H
    4.58206954 -7.2320376 0.0  2  15  N
    3.29666389 -8.492636 0.0  3  16  Si
    3.80117524 -9.90371886 -0.0  1  17  H
    1.65934232 -8.01362137 0.0  2  18  N
    1.68097912 -6.20463398 -0.0  3  19  Si
    0.54543521 -4.28636135 0.0  3  20  Si
    -1.03431493 -3.94450034 0.0  4  21  O
    1.73226934 -2.87719605 0.0  2  22  N
    1.20957366 -1.92961761 -0.0  1  23  H
    3.50853448 -2.77677601 0.0  3  24  Si
    4.13684451 -1.17938608 0.0  2  25  N
    3.54296161 -0.26248101 0.0  1  26  H
    5.18364407 -1.05231197 -0.0  1  27  H
    4.63288658 -4.07521596 -0.0  2  28  N
    3.79410501 -5.58634043 0.0  3  29  Si
%endblock AtomicCoordinatesAndAtomicSpecies
#############
# Unit Cell
#############
LatticeConstant 1.0 Ang
%block LatticeVectors
    30.00000    0.000000    0.000000
    0.000000    45.00000    0.000000
    0.000000    0.000000    10.00000
%endblock LatticeVectors
%include ../../../../Defaults.fdf
************************** End of input data file *****************************

reinit: -----------------------------------------------------------------------
reinit: System Name: 
reinit: -----------------------------------------------------------------------
reinit: System Label: GC
reinit: -----------------------------------------------------------------------

initatom: Reading input for the pseudopotentials and atomic orbitals ----------
Species number:   1 Atomic number:    1 Label: H
Species number:   2 Atomic number:    7 Label: N
Species number:   3 Atomic number:   14 Label: Si
Species number:   4 Atomic number:    8 Label: O

Ground state valence configuration:   1s01
Reading pseudopotential information in formatted form from H.psf

Pseudopotential generated from a relativistic atomic calculation

Valence configuration for pseudopotential generation:
1s( 1.00) rc: 0.01
2p( 0.00) rc: 0.60
3d( 0.00) rc: 1.99
4f( 0.00) rc: 2.49
Ground state valence configuration:   2s02  2p03
Reading pseudopotential information in formatted form from N.psf

Pseudopotential generated from a relativistic atomic calculation

Valence configuration for pseudopotential generation:
2s( 2.00) rc: 0.94
2p( 3.00) rc: 0.59
3d( 0.00) rc: 3.46
4f( 0.00) rc: 2.47
Ground state valence configuration:   3s02  3p02
Reading pseudopotential information in formatted form from Si.psf

Pseudopotential generated from a relativistic atomic calculation

Valence configuration for pseudopotential generation:
3s( 2.00) rc: 1.67
3p( 2.00) rc: 2.04
3d( 0.00) rc: 2.89
4f( 0.00) rc: 2.49
Ground state valence configuration:   2s02  2p04
Reading pseudopotential information in formatted form from O.psf

Pseudopotential generated from a relativistic atomic calculation

Valence configuration for pseudopotential generation:
2s( 2.00) rc: 0.45
2p( 4.00) rc: 0.92
3d( 0.00) rc: 2.24
4f( 0.00) rc: 0.25
For H, standard SIESTA heuristics set lmxkb to 2
 (one more than the basis l, including polarization orbitals).
Use PS.lmax or PS.KBprojectors blocks to override.
For N, standard SIESTA heuristics set lmxkb to 3
 (one more than the basis l, including polarization orbitals).
Use PS.lmax or PS.KBprojectors blocks to override.
For Si, standard SIESTA heuristics set lmxkb to 3
 (one more than the basis l, including polarization orbitals).
Use PS.lmax or PS.KBprojectors blocks to override.
For O, standard SIESTA heuristics set lmxkb to 3
 (one more than the basis l, including polarization orbitals).
Use PS.lmax or PS.KBprojectors blocks to override.

<basis_specs>
===============================================================================
H                    Z=   1    Mass=  1.0100        Charge= 0.17977+309
Lmxo=0 Lmxkb= 2    BasisType=split      Semic=F
L=0  Nsemic=0  Cnfigmx=1
          i=1  nzeta=2  polorb=1  (1s)
            splnorm:   0.62000    
               vcte:    0.0000    
               rinn:    0.0000    
               qcoe:    0.0000    
               qyuk:    0.0000    
               qwid:   0.10000E-01
                rcs:    0.0000      0.0000    
            lambdas:    1.0000      1.0000    
-------------------------------------------------------------------------------
L=0  Nkbl=1  erefs: 0.17977+309
L=1  Nkbl=1  erefs: 0.17977+309
L=2  Nkbl=1  erefs: 0.17977+309
===============================================================================
</basis_specs>

atom: Called for H                     (Z =   1)

read_vps: Pseudopotential generation method:
read_vps: ATM4.2.7  Troullier-Martins                       
Valence charge for ps generation:    1.00000

xc_check: Exchange-correlation functional:
xc_check: GGA Perdew, Burke & Ernzerhof 1996
V l=0 = -2*Zval/r beyond r=  0.0098
V l=1 = -2*Zval/r beyond r=  0.5817
V l=2 = -2*Zval/r beyond r=  1.9372
All V_l potentials equal beyond r=  1.9372
This should be close to max(r_c) in ps generation
All pots = -2*Zval/r beyond r=  1.9372

VLOCAL1: 99.0% of the norm of Vloc inside     11.567 Ry
VLOCAL1: 99.9% of the norm of Vloc inside     26.362 Ry
atom: Maximum radius for 4*pi*r*r*local-pseudopot. charge    2.25106
atom: Maximum radius for r*vlocal+2*Zval:    1.91306
GHOST: No ghost state for L =  0
GHOST: No ghost state for L =  1
GHOST: No ghost state for L =  2

KBgen: Kleinman-Bylander projectors: 
   l= 0   rc=  2.036604   el= -0.477180   Ekb= -6.081590   kbcos= -0.277285
   l= 1   rc=  2.195416   el=  0.001076   Ekb= -0.926943   kbcos= -0.034643
   l= 2   rc=  2.251056   el=  0.002010   Ekb= -0.130941   kbcos= -0.009788

KBgen: Total number of Kleinman-Bylander projectors:    9
atom: -------------------------------------------------------------------------

atom: SANKEY-TYPE ORBITALS:
atom: Selected multiple-zeta basis: split     

SPLIT: Orbitals with angular momentum L= 0

SPLIT: Basis orbitals for state 1s

SPLIT: PAO cut-off radius determined from an
SPLIT: energy shift=  0.002000 Ry

   izeta = 1
                 lambda =    1.000000
                     rc =    6.518340
                 energy =   -0.475305
                kinetic =    0.912139
    potential(screened) =   -1.387444
       potential(ionic) =   -1.907295

   izeta = 2
                 rmatch =    2.141150
              splitnorm =    0.620000
                 energy =    0.566467
                kinetic =    3.772856
    potential(screened) =   -3.206389
       potential(ionic) =   -3.759093

POLgen: Perturbative polarization orbital with L=  1

POLgen: Polarization orbital for state 1s

   izeta = 1
                     rc =    6.518340
                 energy =    0.533861
                kinetic =    1.121086
    potential(screened) =   -0.587225
       potential(ionic) =   -1.053027
atom: Total number of Sankey-type orbitals:  5

atm_pop: Valence configuration (for local Pseudopot. screening):
 1s( 1.00)                                                            
Vna: chval, zval:    1.00000   1.00000

Vna:  Cut-off radius for the neutral-atom potential:   6.518340

atom: _________________________________________________________________________

<basis_specs>
===============================================================================
N                    Z=   7    Mass=  14.010        Charge= 0.17977+309
Lmxo=1 Lmxkb= 3    BasisType=split      Semic=F
L=0  Nsemic=0  Cnfigmx=2
          i=1  nzeta=2  polorb=0  (2s)
            splnorm:   0.28000    
               vcte:    0.0000    
               rinn:    0.0000    
               qcoe:    0.0000    
               qyuk:    0.0000    
               qwid:   0.10000E-01
                rcs:    0.0000      0.0000    
            lambdas:    1.0000      1.0000    
L=1  Nsemic=0  Cnfigmx=2
          i=1  nzeta=2  polorb=1  (2p)
            splnorm:   0.28000    
               vcte:    0.0000    
               rinn:    0.0000    
               qcoe:    0.0000    
               qyuk:    0.0000    
               qwid:   0.10000E-01
                rcs:    0.0000      0.0000    
            lambdas:    1.0000      1.0000    
-------------------------------------------------------------------------------
L=0  Nkbl=1  erefs: 0.17977+309
L=1  Nkbl=1  erefs: 0.17977+309
L=2  Nkbl=1  erefs: 0.17977+309
L=3  Nkbl=1  erefs: 0.17977+309
===============================================================================
</basis_specs>

atom: Called for N                     (Z =   7)

read_vps: Pseudopotential generation method:
read_vps: ATM4.2.7  Troullier-Martins                       
Valence charge for ps generation:    5.00000

xc_check: Exchange-correlation functional:
xc_check: GGA Perdew, Burke & Ernzerhof 1996
V l=0 = -2*Zval/r beyond r=  1.2889
V l=1 = -2*Zval/r beyond r=  1.2889
V l=2 = -2*Zval/r beyond r=  3.4178
V l=3 = -2*Zval/r beyond r=  2.4084
All V_l potentials equal beyond r=  3.3753
This should be close to max(r_c) in ps generation
All pots = -2*Zval/r beyond r=  3.4178

VLOCAL1: 99.0% of the norm of Vloc inside      3.810 Ry
VLOCAL1: 99.9% of the norm of Vloc inside      8.683 Ry
atom: Maximum radius for 4*pi*r*r*local-pseudopot. charge    4.02088
atom: Maximum radius for r*vlocal+2*Zval:    3.54838
GHOST: No ghost state for L =  0
GHOST: No ghost state for L =  1
GHOST: No ghost state for L =  2
GHOST: No ghost state for L =  3

KBgen: Kleinman-Bylander projectors: 
   l= 0   rc=  3.417763   el= -1.365098   Ekb= -4.433130   kbcos= -0.707855
   l= 1   rc=  3.375302   el= -0.521201   Ekb=-13.264039   kbcos= -0.535594
   l= 2   rc=  3.872880   el=  0.001991   Ekb= -0.641094   kbcos= -0.062456
   l= 3   rc=  3.970931   el=  0.003093   Ekb= -0.474517   kbcos= -0.018236

KBgen: Total number of Kleinman-Bylander projectors:   16
atom: -------------------------------------------------------------------------

atom: SANKEY-TYPE ORBITALS:
atom: Selected multiple-zeta basis: split     

SPLIT: Orbitals with angular momentum L= 0

SPLIT: Basis orbitals for state 2s

SPLIT: PAO cut-off radius determined from an
SPLIT: energy shift=  0.002000 Ry

   izeta = 1
                 lambda =    1.000000
                     rc =    4.730425
                 energy =   -1.363399
                kinetic =    1.245246
    potential(screened) =   -2.608645
       potential(ionic) =   -8.121105

   izeta = 2
                 rmatch =    2.531849
              splitnorm =    0.280000
                 energy =   -0.959908
                kinetic =    2.409435
    potential(screened) =   -3.369343
       potential(ionic) =   -9.427975

SPLIT: Orbitals with angular momentum L= 1

SPLIT: Basis orbitals for state 2p

SPLIT: PAO cut-off radius determined from an
SPLIT: energy shift=  0.002000 Ry

   izeta = 1
                 lambda =    1.000000
                     rc =    5.924108
                 energy =   -0.519262
                kinetic =    3.672940
    potential(screened) =   -4.192202
       potential(ionic) =   -9.518354

   izeta = 2
                 rmatch =    2.531849
              splitnorm =    0.280000
                 energy =   -0.104258
                kinetic =    6.807538
    potential(screened) =   -6.911796
       potential(ionic) =  -13.149920

POLgen: Perturbative polarization orbital with L=  2

POLgen: Polarization orbital for state 2p

   izeta = 1
                     rc =    5.924108
                 energy =    1.427508
                kinetic =    2.872379
    potential(screened) =   -1.444871
       potential(ionic) =   -5.563644
atom: Total number of Sankey-type orbitals: 13

atm_pop: Valence configuration (for local Pseudopot. screening):
 2s( 2.00)                                                            
 2p( 3.00)                                                            
Vna: chval, zval:    5.00000   5.00000

Vna:  Cut-off radius for the neutral-atom potential:   5.924108

atom: _________________________________________________________________________

<basis_specs>
===============================================================================
Si                   Z=  14    Mass=  28.090        Charge= 0.17977+309
Lmxo=1 Lmxkb= 3    BasisType=split      Semic=F
L=0  Nsemic=0  Cnfigmx=3
          i=1  nzeta=2  polorb=0  (3s)
            splnorm:   0.28000    
               vcte:    0.0000    
               rinn:    0.0000    
               qcoe:    0.0000    
               qyuk:    0.0000    
               qwid:   0.10000E-01
                rcs:    0.0000      0.0000    
            lambdas:    1.0000      1.0000    
L=1  Nsemic=0  Cnfigmx=3
          i=1  nzeta=2  polorb=1  (3p)
            splnorm:   0.28000    
               vcte:    0.0000    
               rinn:    0.0000    
               qcoe:    0.0000    
               qyuk:    0.0000    
               qwid:   0.10000E-01
                rcs:    0.0000      0.0000    
            lambdas:    1.0000      1.0000    
-------------------------------------------------------------------------------
L=0  Nkbl=1  erefs: 0.17977+309
L=1  Nkbl=1  erefs: 0.17977+309
L=2  Nkbl=1  erefs: 0.17977+309
L=3  Nkbl=1  erefs: 0.17977+309
===============================================================================
</basis_specs>

atom: Called for Si                    (Z =  14)

read_vps: Pseudopotential generation method:
read_vps: ATM4.2.7  Troullier-Martins                       
Valence charge for ps generation:    4.00000

xc_check: Exchange-correlation functional:
xc_check: GGA Perdew, Burke & Ernzerhof 1996
V l=0 = -2*Zval/r beyond r=  2.7826
V l=1 = -2*Zval/r beyond r=  2.7826
V l=2 = -2*Zval/r beyond r=  2.9253
V l=3 = -2*Zval/r beyond r=  2.7826
All V_l potentials equal beyond r=  2.8530
This should be close to max(r_c) in ps generation
All pots = -2*Zval/r beyond r=  2.9253

VLOCAL1: 99.0% of the norm of Vloc inside      5.333 Ry
VLOCAL1: 99.9% of the norm of Vloc inside     12.154 Ry
atom: Maximum radius for 4*pi*r*r*local-pseudopot. charge    3.39869
atom: Maximum radius for r*vlocal+2*Zval:    2.96205
GHOST: No ghost state for L =  0
GHOST: No ghost state for L =  1
GHOST: No ghost state for L =  2
GHOST: No ghost state for L =  3

KBgen: Kleinman-Bylander projectors: 
   l= 0   rc=  3.075247   el= -0.794092   Ekb=  5.879390   kbcos=  0.167461
   l= 1   rc=  3.153101   el= -0.300068   Ekb=  2.642817   kbcos=  0.058301
   l= 2   rc=  3.273594   el=  0.001958   Ekb= -1.185135   kbcos= -0.104411
   l= 3   rc=  3.232927   el=  0.003046   Ekb= -0.497174   kbcos= -0.015889

KBgen: Total number of Kleinman-Bylander projectors:   16
atom: -------------------------------------------------------------------------

atom: SANKEY-TYPE ORBITALS:
atom: Selected multiple-zeta basis: split     

SPLIT: Orbitals with angular momentum L= 0

SPLIT: Basis orbitals for state 3s

SPLIT: PAO cut-off radius determined from an
SPLIT: energy shift=  0.002000 Ry

   izeta = 1
                 lambda =    1.000000
                     rc =    6.429618
                 energy =   -0.792283
                kinetic =    0.525293
    potential(screened) =   -1.317576
       potential(ionic) =   -3.744923

   izeta = 2
                 rmatch =    3.998416
              splitnorm =    0.280000
                 energy =   -0.583081
                kinetic =    1.069570
    potential(screened) =   -1.652651
       potential(ionic) =   -4.235185

SPLIT: Orbitals with angular momentum L= 1

SPLIT: Basis orbitals for state 3p

SPLIT: PAO cut-off radius determined from an
SPLIT: energy shift=  0.002000 Ry

   izeta = 1
                 lambda =    1.000000
                     rc =    8.464845
                 energy =   -0.298236
                kinetic =    0.785360
    potential(screened) =   -1.083596
       potential(ionic) =   -3.273779

   izeta = 2
                 rmatch =    4.587816
              splitnorm =    0.280000
                 energy =   -0.131871
                kinetic =    1.403687
    potential(screened) =   -1.535557
       potential(ionic) =   -4.015310

POLgen: Perturbative polarization orbital with L=  2

POLgen: Polarization orbital for state 3p

   izeta = 1
                     rc =    8.464845
                 energy =    0.321949
                kinetic =    1.055677
    potential(screened) =   -0.733728
       potential(ionic) =   -2.672950
atom: Total number of Sankey-type orbitals: 13

atm_pop: Valence configuration (for local Pseudopot. screening):
 3s( 2.00)                                                            
 3p( 2.00)                                                            
Vna: chval, zval:    4.00000   4.00000

Vna:  Cut-off radius for the neutral-atom potential:   8.464845

atom: _________________________________________________________________________

<basis_specs>
===============================================================================
O                    Z=   8    Mass=  16.000        Charge= 0.17977+309
Lmxo=1 Lmxkb= 3    BasisType=split      Semic=F
L=0  Nsemic=0  Cnfigmx=2
          i=1  nzeta=2  polorb=0  (2s)
            splnorm:   0.28000    
               vcte:    0.0000    
               rinn:    0.0000    
               qcoe:    0.0000    
               qyuk:    0.0000    
               qwid:   0.10000E-01
                rcs:    0.0000      0.0000    
            lambdas:    1.0000      1.0000    
L=1  Nsemic=0  Cnfigmx=2
          i=1  nzeta=2  polorb=1  (2p)
            splnorm:   0.28000    
               vcte:    0.0000    
               rinn:    0.0000    
               qcoe:    0.0000    
               qyuk:    0.0000    
               qwid:   0.10000E-01
                rcs:    0.0000      0.0000    
            lambdas:    1.0000      1.0000    
-------------------------------------------------------------------------------
L=0  Nkbl=1  erefs: 0.17977+309
L=1  Nkbl=1  erefs: 0.17977+309
L=2  Nkbl=1  erefs: 0.17977+309
L=3  Nkbl=1  erefs: 0.17977+309
===============================================================================
</basis_specs>

atom: Called for O                     (Z =   8)

read_vps: Pseudopotential generation method:
read_vps: ATM4.2.7  Troullier-Martins                       
Valence charge for ps generation:    6.00000

xc_check: Exchange-correlation functional:
xc_check: GGA Perdew, Burke & Ernzerhof 1996
V l=0 = -2*Zval/r beyond r=  1.1000
V l=1 = -2*Zval/r beyond r=  1.1000
V l=2 = -2*Zval/r beyond r=  2.2154
V l=3 = -2*Zval/r beyond r=  1.1000
All V_l potentials equal beyond r=  2.2154
This should be close to max(r_c) in ps generation
All pots = -2*Zval/r beyond r=  2.2154

VLOCAL1: 99.0% of the norm of Vloc inside      8.845 Ry
VLOCAL1: 99.9% of the norm of Vloc inside     20.157 Ry
atom: Maximum radius for 4*pi*r*r*local-pseudopot. charge    2.67231
atom: Maximum radius for r*vlocal+2*Zval:    2.32897
GHOST: No ghost state for L =  0
GHOST: No ghost state for L =  1
GHOST: No ghost state for L =  2
GHOST: No ghost state for L =  3

KBgen: Kleinman-Bylander projectors: 
   l= 0   rc=  2.243238   el= -1.759686   Ekb=**********   kbcos= -0.171774
   l= 1   rc=  2.328968   el= -0.663873   Ekb=-14.506792   kbcos= -0.519897
   l= 2   rc=  2.573941   el=  0.002031   Ekb= -1.137373   kbcos= -0.019581
   l= 3   rc=  2.606321   el=  0.003153   Ekb= -1.013546   kbcos= -0.003122

KBgen: Total number of Kleinman-Bylander projectors:   16
atom: -------------------------------------------------------------------------

atom: SANKEY-TYPE ORBITALS:
atom: Selected multiple-zeta basis: split     

SPLIT: Orbitals with angular momentum L= 0

SPLIT: Basis orbitals for state 2s

SPLIT: PAO cut-off radius determined from an
SPLIT: energy shift=  0.002000 Ry

   izeta = 1
                 lambda =    1.000000
                     rc =    4.243912
                 energy =   -1.758270
                kinetic =    3.286084
    potential(screened) =   -5.044353
       potential(ionic) =  -12.921184

   izeta = 2
                 rmatch =    2.187845
              splitnorm =    0.280000
                 energy =   -0.885018
                kinetic =    8.134434
    potential(screened) =   -9.019452
       potential(ionic) =  -17.710645

SPLIT: Orbitals with angular momentum L= 1

SPLIT: Basis orbitals for state 2p

SPLIT: PAO cut-off radius determined from an
SPLIT: energy shift=  0.002000 Ry

   izeta = 1
                 lambda =    1.000000
                     rc =    5.314825
                 energy =   -0.661986
                kinetic =    4.917472
    potential(screened) =   -5.579458
       potential(ionic) =  -13.236259

   izeta = 2
                 rmatch =    2.160663
              splitnorm =    0.280000
                 energy =   -0.068760
                kinetic =    9.183374
    potential(screened) =   -9.252135
       potential(ionic) =  -18.274251

POLgen: Perturbative polarization orbital with L=  2

POLgen: Polarization orbital for state 2p

   izeta = 1
                     rc =    5.314825
                 energy =    1.970580
                kinetic =    3.886128
    potential(screened) =   -1.915547
       potential(ionic) =   -7.749584
atom: Total number of Sankey-type orbitals: 13

atm_pop: Valence configuration (for local Pseudopot. screening):
 2s( 2.00)                                                            
 2p( 4.00)                                                            
Vna: chval, zval:    6.00000   6.00000

Vna:  Cut-off radius for the neutral-atom potential:   5.314825

atom: _________________________________________________________________________

prinput: Basis input ----------------------------------------------------------

PAO.BasisType split     

%block ChemicalSpeciesLabel
    1    1 H                       # Species index, atomic number, species label
    2    7 N                       # Species index, atomic number, species label
    3   14 Si                      # Species index, atomic number, species label
    4    8 O                       # Species index, atomic number, species label
%endblock ChemicalSpeciesLabel

%block PAO.Basis                 # Define Basis set
H                     1                    # Species label, number of l-shells
 n=1   0   2 P   1                   # n, l, Nzeta, Polarization, NzetaPol
   6.518      2.141   
   1.000      1.000   
N                     2                    # Species label, number of l-shells
 n=2   0   2                         # n, l, Nzeta 
   4.730      2.532   
   1.000      1.000   
 n=2   1   2 P   1                   # n, l, Nzeta, Polarization, NzetaPol
   5.924      2.532   
   1.000      1.000   
Si                    2                    # Species label, number of l-shells
 n=3   0   2                         # n, l, Nzeta 
   6.430      3.998   
   1.000      1.000   
 n=3   1   2 P   1                   # n, l, Nzeta, Polarization, NzetaPol
   8.465      4.588   
   1.000      1.000   
O                     2                    # Species label, number of l-shells
 n=2   0   2                         # n, l, Nzeta 
   4.244      2.188   
   1.000      1.000   
 n=2   1   2 P   1                   # n, l, Nzeta, Polarization, NzetaPol
   5.315      2.161   
   1.000      1.000   
%endblock PAO.Basis

prinput: ----------------------------------------------------------------------

Dumping basis to NetCDF file H.ion.nc
Dumping basis to NetCDF file N.ion.nc
Dumping basis to NetCDF file Si.ion.nc
Dumping basis to NetCDF file O.ion.nc
coor:   Atomic-coordinates input format  =     Cartesian coordinates
coor:                                          (in Angstroms)

siesta: Atomic coordinates (Bohr) and species
siesta:      1.52992   7.43053   0.00000  1        1
siesta:      0.19485   5.93758   0.00000  2        2
siesta:     -3.07492   6.77163   0.00000  3        3
siesta:     -3.36930   9.58731   0.00000  1        4
siesta:     -5.95358   3.82573   0.00000  3        5
siesta:     -8.75640   4.28461   0.00000  1        6
siesta:     -3.68895   0.21016   0.00000  3        7
siesta:     -5.13653  -2.68626   0.00000  2        8
siesta:     -4.02112  -4.49513   0.00000  1        9
siesta:     -7.12380  -2.83831   0.00000  1       10
siesta:     -0.44580   0.31442   0.00000  2       11
siesta:      1.58570   2.82840   0.00000  3       12
siesta:      4.62566   2.79285   0.00000  4       13
siesta:     10.61355 -14.07759   0.00000  1       14
siesta:      8.65886 -13.66658   0.00000  2       15
siesta:      6.22979 -16.04876   0.00000  3       16
siesta:      7.18318 -18.71532  -0.00000  1       17
siesta:      3.13570 -15.14356   0.00000  2       18
siesta:      3.17659 -11.72506  -0.00000  3       19
siesta:      1.03072  -8.10005   0.00000  3       20
siesta:     -1.95457  -7.45403   0.00000  4       21
siesta:      3.27352  -5.43711   0.00000  2       22
siesta:      2.28576  -3.64645  -0.00000  1       23
siesta:      6.63017  -5.24735   0.00000  3       24
siesta:      7.81751  -2.22872   0.00000  2       25
siesta:      6.69523  -0.49602   0.00000  1       26
siesta:      9.79567  -1.98858  -0.00000  1       27
siesta:      8.75489  -7.70105  -0.00000  2       28
siesta:      7.16982 -10.55666   0.00000  3       29

siesta: System type = molecule  

initatomlists: Number of atoms, orbitals, and projectors:     29   297   394

siesta: ******************** Simulation parameters ****************************
siesta:
siesta: The following are some of the parameters of the simulation.
siesta: A complete list of the parameters used, including default values,
siesta: can be found in file out.fdf
siesta:
redata: Spin configuration                          = spin-orbit
redata: Number of spin components                   = 8
redata: Time-Reversal Symmetry                      = F
redata: Spin spiral                                 = F
############################################################
This spin-orbit implementation uses a local approximation.
From 4.2 and onwards the full non-local approximation is implemented
You are strongly advised to use >=4.2 versions!
############################################################
redata: Long output                                 =   F
redata: Number of Atomic Species                    =        4
redata: Charge density info will appear in .RHO file
redata: Write Mulliken Pop.                         = NO
redata: Matel table size (NRTAB)                    =     1024
redata: Mesh Cutoff                                 =   340.0000 Ry
redata: Net charge of the system                    =     0.0000 |e|
redata: Min. number of SCF Iter                     =        1
redata: Max. number of SCF Iter                     =      200
redata: SCF mix quantity                            = Hamiltonian
redata: Mix DM or H after convergence               =   F
redata: Recompute H after scf cycle                 =   F
redata: Mix DM in first SCF step                    =   T
redata: Write Pulay info on disk                    =   F
redata: New DM Occupancy tolerance                  = 0.000000000001
redata: No kicks to SCF
redata: DM Mixing Weight for Kicks                  =     0.5000
redata: Require Harris convergence for SCF          =   F
redata: Harris energy tolerance for SCF             =     0.000100 eV
redata: Require DM convergence for SCF              =   T
redata: DM tolerance for SCF                        =     0.000008
redata: Require EDM convergence for SCF             =   F
redata: EDM tolerance for SCF                       =     0.001000 eV
redata: Require H convergence for SCF               =   T
redata: Hamiltonian tolerance for SCF               =     0.000001 eV
redata: Require (free) Energy convergence for SCF   =   F
redata: (free) Energy tolerance for SCF             =     0.000100 eV
redata: Using Saved Data (generic)                  =   F
redata: Use continuation files for DM               =   T
redata: Neglect nonoverlap interactions             =   F
redata: Method of Calculation                       = Diagonalization
redata: Electronic Temperature                      =   299.9978 K
redata: Fix the spin of the system                  =   F
redata: Dynamics option                             = Verlet MD run
redata: Initial MD time step                        =        1
redata:   Final MD time step                        =        1
redata: Length of MD time step                      =     0.5000 fs
redata: Initial Temperature of MD run               =     0.0000 K
redata: Perform a MD quench                         =   F
mix.SCF: Pulay mixing                            = Pulay
mix.SCF:    Variant                              = stable
mix.SCF:    History steps                        = 6
mix.SCF:    Linear mixing weight                 =     0.250000
mix.SCF:    Mixing weight                        =     0.250000
mix.SCF:    SVD condition                        = 0.1000E-07
mix.SCF:    Restart steps                        = 24
mix.SCF:    Restart save steps                   = 3
mix.SCF: Spin-component mixing                   all
redata: Save all siesta data in one NC              =   F
redata: ***********************************************************************

%block SCF.Mixers
  Pulay
%endblock SCF.Mixers

%block SCF.Mixer.Pulay
  # Mixing method
  method pulay
  variant stable

  # Mixing options
  weight 0.2500
  weight.linear 0.2500
  history 6
  restart 24
  restart.save 3
%endblock SCF.Mixer.Pulay

Size of DM history Fstack: 3
Total number of electrons:    98.000000
Total ionic charge:    98.000000

* ProcessorY, Blocksize:    2  24


* Orbital distribution balance (max,min):    48    24


Time-reversal symmetry not used.

siesta: k-grid: Number of k-points =     1
siesta: k-grid: Cutoff (effective) =     5.000 Ang
siesta: k-grid: Supercell and displacements
siesta: k-grid:    1   0   0      0.000
siesta: k-grid:    0   1   0      0.000
siesta: k-grid:    0   0   1      0.000

diag: Algorithm                                     = ELPA-1stage
diag: Parallel over k                               =   F
diag: Use parallel 2D distribution                  =   T
diag: Parallel block-size                           = 24
diag: Parallel distribution                         =     2 x     4
diag: Used triangular part                          = Lower
diag: Absolute tolerance                            =  0.100E-15
diag: Orthogonalization factor                      =  0.100E-05
diag: Memory factor                                 =  1.0000


ts: **************************************************************
ts: Save H and S matrices                           =    F
ts: Save DM and EDM matrices                        =    F
ts: Only save the overlap matrix S                  =    F
ts: **************************************************************

************************ Begin: TS CHECKS AND WARNINGS ************************
************************ End: TS CHECKS AND WARNINGS **************************


                     ====================================
                        Begin MD step =      1
                     ====================================

outcoor: Atomic coordinates (Ang):                          
    0.80959878    3.93206562    0.00000000   1       1  H
    0.10311205    3.14202944    0.00000000   2       2  N
   -1.62717486    3.58339335    0.00000000   3       3  Si
   -1.78295454    5.07338561    0.00000000   1       4  H
   -3.15049648    2.02448583    0.00000000   3       5  Si
   -4.63368411    2.26731619    0.00000000   1       6  H
   -1.95210562    0.11120967    0.00000000   3       7  Si
   -2.71813108   -1.42150707    0.00000000   2       8  N
   -2.12788453   -2.37872010    0.00000000   1       9  H
   -3.76975340   -1.50196730    0.00000000   1      10  H
   -0.23590556    0.16638398    0.00000000   2      11  N
    0.83911706    1.49672282    0.00000000   3      12  Si
    2.44779038    1.47791256    0.00000000   4      13  O
    5.61644830   -7.44953905    0.00000000   1      14  H
    4.58206954   -7.23203760    0.00000000   2      15  N
    3.29666389   -8.49263600    0.00000000   3      16  Si
    3.80117524   -9.90371886    0.00000000   1      17  H
    1.65934232   -8.01362137    0.00000000   2      18  N
    1.68097912   -6.20463398    0.00000000   3      19  Si
    0.54543521   -4.28636135    0.00000000   3      20  Si
   -1.03431493   -3.94450034    0.00000000   4      21  O
    1.73226934   -2.87719605    0.00000000   2      22  N
    1.20957366   -1.92961761    0.00000000   1      23  H
    3.50853448   -2.77677601    0.00000000   3      24  Si
    4.13684451   -1.17938608    0.00000000   2      25  N
    3.54296161   -0.26248101    0.00000000   1      26  H
    5.18364407   -1.05231197    0.00000000   1      27  H
    4.63288658   -4.07521596    0.00000000   2      28  N
    3.79410501   -5.58634043    0.00000000   3      29  Si

outcell: Unit cell vectors (Ang):
       30.000000    0.000000    0.000000
        0.000000   45.000000    0.000000
        0.000000    0.000000   10.000000

outcell: Cell vector modules (Ang)   :   30.000000   45.000000   10.000000
outcell: Cell angles (23,13,12) (deg):     90.0000     90.0000     90.0000
outcell: Cell volume (Ang**3)        :  13500.0000
<dSpData1D:S at geom step 1
  <sparsity:sparsity for geom step 1
    nrows_g=297 nrows=48 sparsity=.1288 nnzs=11360, refcount: 8>
  <dData1D:(new from dSpData1D) n=11360, refcount: 1>
refcount: 1>
new_DM -- step:     1
Initializing Density Matrix...

Attempting to read DM from file... Failed...
DM filled with atomic data:
<dSpData2D:DM initialized from atoms
  <sparsity:sparsity for geom step 1
    nrows_g=297 nrows=48 sparsity=.1288 nnzs=11360, refcount: 9>
  <dData2D:DM n=11360 m=8, refcount: 1>
refcount: 1>
     spin moment: S , {S} =   56.00000   0.00000   0.00000  56.00000
No. of atoms with KB's overlaping orbs in proc 0. Max # of overlaps:      27     192

Initializing spin-orbit part of the Hamiltonian
  Adding spin-orbit effects for H 
  Adding spin-orbit effects for N 
  Adding spin-orbit effects for Si
  Adding spin-orbit effects for O 


New grid distribution:   1
           1       1:  180    1:  125    1:   15
           2       1:  180    1:  125   16:   30
           3       1:  180    1:  125   31:   45
           4       1:  180    1:  125   46:   60
           5       1:  180  126:  250    1:   15
           6       1:  180  126:  250   16:   30
           7       1:  180  126:  250   31:   45
           8       1:  180  126:  250   46:   60

InitMesh: MESH =   360 x   500 x   120 =    21600000
InitMesh: (bp) =   180 x   250 x    60 =     2700000
InitMesh: Mesh cutoff (required, used) =   340.000   341.206 Ry
ExtMesh (bp) on 0 =   288 x   225 x   123 =     7970400
New grid distribution:   2
           1      29:  180   17:  216    1:   60
           2      29:  180    1:   16    1:   60
           3       1:   28  195:  216    1:   60
           4       1:   23  234:  250    1:   60
           5       1:   28    1:  194    1:   60
           6      24:  180  217:  236    1:   60
           7      24:  180  237:  250    1:   60
           8       1:   23  217:  233    1:   60
New grid distribution:   3
           1      44:  180   20:  202    1:   60
           2      36:  180  232:  250    1:   60
           3      44:  180    1:   19    1:   60
           4       1:   35  227:  250    1:   60
           5       1:   43   31:  202    1:   60
           6      36:  180  203:  231    1:   60
           7       1:   43    1:   30    1:   60
           8       1:   35  203:  226    1:   60
Setting up quadratic distribution...
ExtMesh (bp) on 0 =   260 x   300 x   168 =    13104000
PhiOnMesh: Number of (b)points on node 0 =              1824000
PhiOnMesh: nlist on node 0 =              1705698

stepf: Fermi-Dirac step function

siesta: Program's energy decomposition (eV):
siesta: Ebs     =      -589.435103
siesta: Eions   =      3585.165840
siesta: Ena     =       381.575932
siesta: Ekin    =      3360.567454
siesta: Enl     =     -3290.210483
siesta: Eso     =        -0.003438
siesta: Edftu   =         0.000000
siesta: DEna    =       153.554385
siesta: DUscf   =        78.261480
siesta: DUext   =         0.000000
siesta: Exc     =     -1202.491296
siesta: eta*DQ  =         0.000000
siesta: Emadel  =         0.000000
siesta: Emeta   =         0.000000
siesta: Emolmec =         0.000000
siesta: Ekinion =         0.000000
siesta: Eharris =     -4029.509944
siesta: Etot    =     -4103.911805
siesta: FreeEng =     -4103.912817

        iscf     Eharris(eV)        E_KS(eV)     FreeEng(eV)     dDmax    Ef(eV) dHmax(eV)
   scf:    1    -4029.509944    -4103.911805    -4103.912817  0.959068 -4.905032 20.829476
     spin moment: S , {S} =    2.00567   0.00000   0.00000   2.00567
timer: Routine,Calls,Time,% = IterSCF        1      11.278  30.48
   scf:    2    -4148.398583    -4137.828145    -4137.829329  0.465319 -4.130511 11.645502
     spin moment: S , {S} =    1.99394  -0.00000   0.00000   1.99394
   scf:    3    -4108.185582    -4134.749545    -4134.767156  0.435428 -4.280483 12.384306
     spin moment: S , {S} =    2.00175   0.00000  -0.00000   2.00175
   scf:    4    -4151.300939    -4146.279840    -4146.279841  0.313554 -3.814699  6.070689
     spin moment: S , {S} =    0.00009   0.00000  -0.00000   0.00009
   scf:    5    -4147.476285    -4146.971212    -4146.971212  0.038804 -3.579304  4.272497
     spin moment: S , {S} =    0.00006   0.00000  -0.00000   0.00006
   scf:    6    -4147.712448    -4147.345915    -4147.345915  0.023930 -3.498853  2.164801
     spin moment: S , {S} =    0.00003  -0.00000   0.00000   0.00003
   scf:    7    -4147.700840    -4147.521542    -4147.521542  0.021383 -3.574325  0.924838
     spin moment: S , {S} =    0.00001   0.00000  -0.00000   0.00001
   scf:    8    -4147.643756    -4147.581061    -4147.581061  0.012424 -3.596320  0.516257
     spin moment: S , {S} =    0.00000  -0.00000  -0.00000   0.00000
   scf:    9    -4147.621952    -4147.600888    -4147.600888  0.007092 -3.649248  0.357137
     spin moment: S , {S} =    0.00000   0.00000   0.00000   0.00000
   scf:   10    -4147.651884    -4147.621943    -4147.621943  0.018753 -3.676876  0.164513
     spin moment: S , {S} =    0.00000  -0.00000   0.00000  -0.00000
   scf:   11    -4147.624873    -4147.623369    -4147.623369  0.004765 -3.668434  0.047671
     spin moment: S , {S} =    0.00000   0.00000   0.00000  -0.00000
   scf:   12    -4147.624132    -4147.623758    -4147.623758  0.001656 -3.663077  0.028520
     spin moment: S , {S} =    0.00000   0.00000   0.00000   0.00000
   scf:   13    -4147.624171    -4147.623955    -4147.623955  0.001635 -3.661386  0.021587
     spin moment: S , {S} =    0.00000   0.00000   0.00000   0.00000
   scf:   14    -4147.624266    -4147.624099    -4147.624099  0.001697 -3.660411  0.016492
     spin moment: S , {S} =    0.00000   0.00000   0.00000   0.00000
   scf:   15    -4147.624336    -4147.624203    -4147.624203  0.001864 -3.659830  0.010819
     spin moment: S , {S} =    0.00000   0.00000   0.00000   0.00000
   scf:   16    -4147.624337    -4147.624257    -4147.624257  0.001744 -3.660076  0.005313
     spin moment: S , {S} =    0.00000  -0.00000   0.00000   0.00000
   scf:   17    -4147.624283    -4147.624267    -4147.624267  0.000765 -3.660069  0.003061
     spin moment: S , {S} =    0.00000  -0.00000   0.00000   0.00000
   scf:   18    -4147.624275    -4147.624270    -4147.624270  0.000418 -3.660177  0.001218
     spin moment: S , {S} =    0.00000  -0.00000   0.00000   0.00000
   scf:   19    -4147.624272    -4147.624271    -4147.624271  0.000168 -3.660205  0.000596
     spin moment: S , {S} =    0.00000  -0.00000   0.00000   0.00000
   scf:   20    -4147.624271    -4147.624271    -4147.624271  0.000045 -3.660181  0.000340
     spin moment: S , {S} =    0.00000  -0.00000   0.00000   0.00000
   scf:   21    -4147.624271    -4147.624271    -4147.624271  0.000046 -3.660161  0.000167
     spin moment: S , {S} =    0.00000  -0.00000   0.00000  -0.00000
   scf:   22    -4147.624271    -4147.624271    -4147.624271  0.000013 -3.660144  0.000079
     spin moment: S , {S} =    0.00000  -0.00000   0.00000  -0.00000
   scf:   23    -4147.624271    -4147.624271    -4147.624271  0.000004 -3.660144  0.000056
     spin moment: S , {S} =    0.00000  -0.00000   0.00000  -0.00000
   scf:   24    -4147.624271    -4147.624271    -4147.624271  0.000003 -3.660141  0.000038
     spin moment: S , {S} =    0.00000  -0.00000   0.00000  -0.00000
mix: Pulay -- resetting history
   scf:   25    -4147.624271    -4147.624271    -4147.624271  0.000003 -3.660137  0.000024
     spin moment: S , {S} =    0.00000  -0.00000   0.00000  -0.00000
   scf:   26    -4147.624271    -4147.624271    -4147.624271  0.000003 -3.660134  0.000010
     spin moment: S , {S} =    0.00000  -0.00000   0.00000  -0.00000
   scf:   27    -4147.624271    -4147.624271    -4147.624271  0.000002 -3.660132  0.000004
     spin moment: S , {S} =    0.00000  -0.00000   0.00000  -0.00000
   scf:   28    -4147.624271    -4147.624271    -4147.624271  0.000000 -3.660132  0.000002
     spin moment: S , {S} =    0.00000  -0.00000   0.00000  -0.00000
   scf:   29    -4147.624271    -4147.624271    -4147.624271  0.000000 -3.660132  0.000001
     spin moment: S , {S} =    0.00000  -0.00000   0.00000  -0.00000
   scf:   30    -4147.624271    -4147.624271    -4147.624271  0.000000 -3.660132  0.000001
     spin moment: S , {S} =    0.00000  -0.00000   0.00000  -0.00000

SCF Convergence by DM+H criterion
max |DM_out - DM_in|         :     0.0000000942
max |H_out - H_in|      (eV) :     0.0000005299
SCF cycle converged after 30 iterations

Using DM_out to compute the final energy and forces
No. of atoms with KB's overlaping orbs in proc 0. Max # of overlaps:      27     192

siesta: E_KS(eV) =            -4147.6243

siesta: E_KS - E_eggbox =     -4147.6243
     spin moment: S , {S} =    0.00000  -0.00000   0.00000  -0.00000

siesta: Atomic forces (eV/Ang):
     1    0.058814    0.031324   -0.000000
     2   -0.145759    0.116050   -0.000000
     3    0.163233   -0.030181    0.000000
     4   -0.025967    0.092357   -0.000000
     5   -0.082656   -0.075727   -0.000000
     6    0.004492    0.011568   -0.000000
     7    0.512293    0.305188    0.000000
     8    0.610237   -1.317845    0.000000
     9   -0.538584    0.738937   -0.000000
    10    0.131796   -0.202524   -0.000000
    11   -0.271564   -0.186668   -0.000000
    12    0.418910   -0.147516    0.000000
    13   -2.388121   -2.460286    0.000000
    14   -0.018822   -0.011084    0.000000
    15    0.037501    0.017565    0.000000
    16   -0.003953   -0.013707   -0.000000
    17   -0.006706    0.043625   -0.000000
    18   -0.038927    0.018850    0.000000
    19    0.096057    0.002738   -0.000000
    20   -0.526098   -0.018086    0.000000
    21    0.609708   -3.438324    0.000000
    22    0.036169    0.356274   -0.000000
    23    0.129978   -0.288801    0.000000
    24   -0.154600   -0.302644    0.000000
    25   -0.377898    0.896273    0.000000
    26    0.346079   -0.472088   -0.000000
    27   -0.127139    0.005713   -0.000000
    28    0.011980    0.266273   -0.000000
    29   -0.121405   -0.147309   -0.000000
----------------------------------------
   Tot   -1.660953   -6.210053   -0.000000
----------------------------------------
   Max    3.438324
   Res    0.584794    sqrt( Sum f_i^2 / 3N )
----------------------------------------
   Max    3.438324    constrained

Stress tensor Voigt[x,y,z,yz,xz,xy] (kbar):        0.51        0.38       -0.03        0.00        0.00       -0.39
(Free)E + p*V (eV/cell)    -4150.0264
Target enthalpy (eV/cell)    -4147.6243

siesta: Stress tensor (static) (eV/Ang**3):
         0.000317   -0.000245   -0.000000
        -0.000245    0.000237   -0.000000
         0.000000    0.000000   -0.000020

siesta: Pressure (static):         -0.28508749  kBar

siesta: Stress tensor (total) (eV/Ang**3):
         0.000317   -0.000245   -0.000000
        -0.000245    0.000237   -0.000000
         0.000000    0.000000   -0.000020

siesta: Pressure (total):         -0.28508749  kBar

siesta: Temp_ion =       0.000 K

siesta: Eigenvalues (eV):
ik =     1
  -22.2910  -22.2910  -21.8791  -21.8791  -21.2359  -21.2359  -21.1196  -21.1196  -21.0195  -21.0195
  -20.9139  -20.9139  -20.3415  -20.3415  -19.4697  -19.4697  -19.4503  -19.4503  -19.2014  -19.2014
  -14.7060  -14.7060  -13.6639  -13.6639  -13.1715  -13.1715  -12.9158  -12.9158  -12.7929  -12.7929
  -12.6434  -12.6434  -12.4375  -12.4375  -12.0410  -12.0410  -11.7963  -11.7963  -11.7073  -11.7073
  -10.9843  -10.9843  -10.7320  -10.7320  -10.5117  -10.5117  -10.3672  -10.3672  -10.0808  -10.0808
   -9.5591   -9.5591   -8.9688   -8.9688   -8.7686   -8.7686   -8.6678   -8.6678   -8.4852   -8.4852
   -8.4783   -8.4783   -8.2951   -8.2951   -8.1289   -8.1289   -7.8896   -7.8896   -7.6513   -7.6513
   -7.5492   -7.5492   -7.2195   -7.2195   -7.0194   -7.0194   -6.8949   -6.8949   -6.6968   -6.6968
   -6.4613   -6.4613   -6.3521   -6.3521   -6.2615   -6.2615   -6.2306   -6.2306   -6.0904   -6.0904
   -6.0796   -6.0796   -5.7725   -5.7725   -5.4850   -5.4850   -4.1580   -4.1580   -3.1625   -3.1625
   -2.2504   -2.2504   -2.1821   -2.1821   -2.0797   -2.0797   -1.7826   -1.7826   -1.7663   -1.7663
   -1.6886   -1.6886   -1.5875   -1.5875   -1.5438   -1.5438   -1.1539   -1.1539   -1.0819   -1.0819
   -0.8108   -0.8108   -0.4968   -0.4968   -0.2874   -0.2874   -0.1968   -0.1968    0.4349    0.4349
    0.5903    0.5903    0.6759    0.6759    0.7376    0.7376    1.1028    1.1028    1.2377    1.2377
    1.4463    1.4463    1.4712    1.4712    1.4789    1.4789    1.6502    1.6502    2.0335    2.0335
    2.1198    2.1198    2.4784    2.4784    2.7321    2.7321    2.8516    2.8516    2.9057    2.9057
    2.9125    2.9125    2.9541    2.9541    3.0799    3.0799    3.5540    3.5540    3.5702    3.5702
    3.8909    3.8909    4.1155    4.1155    4.2025    4.2025    4.2760    4.2760    4.3763    4.3763
    4.6364    4.6364    4.7183    4.7183    4.8505    4.8505    5.0021    5.0021    5.1491    5.1491
    5.2707    5.2707    5.4390    5.4390    5.6419    5.6419    5.7357    5.7357    5.8045    5.8045
    6.0475    6.0475    6.1104    6.1104    6.2977    6.2977    6.5146    6.5146    6.6286    6.6286
    6.6306    6.6306    6.7499    6.7499    6.8376    6.8376    6.9521    6.9521    7.1623    7.1623
    7.3637    7.3637    7.5001    7.5001    7.7603    7.7603    7.8956    7.8956    8.0760    8.0760
    8.1414    8.1414    8.2206    8.2206    8.3576    8.3576    8.5721    8.5721    8.8074    8.8074
    8.9340    8.9340    8.9988    8.9988    9.0913    9.0913    9.1812    9.1812    9.4393    9.4393
    9.5638    9.5638    9.9440    9.9440    9.9657    9.9657   10.0590   10.0590   10.2302   10.2302
   10.3736   10.3736   10.5929   10.5929   10.8252   10.8252   11.2292   11.2292   11.3155   11.3155
   11.3549   11.3549   11.5958   11.5958   12.2205   12.2205   12.2285   12.2285   12.2995   12.2995
   12.4054   12.4054   12.5728   12.5728   12.6206   12.6206   12.9728   12.9728   13.0754   13.0754
   13.3518   13.3518   13.4797   13.4797   13.6256   13.6256   13.9201   13.9201   13.9609   13.9609
   14.2887   14.2887   14.3150   14.3150   14.8100   14.8100   14.9925   14.9925   15.0099   15.0099
   15.4616   15.4616   15.9015   15.9015   16.4238   16.4238   16.7621   16.7621   16.8819   16.8819
   17.2227   17.2227   17.5382   17.5382   17.8050   17.8050   18.7519   18.7519   18.9436   18.9436
   19.2970   19.2970   19.7494   19.7494   20.3318   20.3318   20.3887   20.3887   20.6305   20.6305
   21.3086   21.3086   22.0801   22.0801   22.3969   22.3969   22.5949   22.5949   23.2688   23.2688
   23.4609   23.4609   23.9705   23.9705   24.1029   24.1029   24.3583   24.3583   25.2526   25.2526
   25.3795   25.3795   25.9757   25.9757   26.4201   26.4201   27.4899   27.4899   28.6898   28.6898
   29.3383   29.3383   29.7071   29.7071   30.0408   30.0408   30.3494   30.3494   30.3731   30.3731
   30.8385   30.8385   30.9721   30.9721   31.1053   31.1053   31.4253   31.4253   31.6854   31.6854
   31.6969   31.6969   32.0183   32.0183   33.1424   33.1424   33.6540   33.6540   33.9742   33.9742
   34.2146   34.2146   34.8668   34.8668   35.0065   35.0065   35.0827   35.0827   35.7011   35.7011
   35.8771   35.8771   36.0258   36.0258   36.1111   36.1111   37.1916   37.1916   37.8066   37.8066
   38.3893   38.3893   38.7258   38.7258   38.7574   38.7574   39.2774   39.2774   39.3546   39.3546
   39.6346   39.6346   39.9824   39.9824   40.7584   40.7584   41.0354   41.0354   41.3184   41.3184
   41.6649   41.6649   41.7421   41.7421   41.9566   41.9566   42.0715   42.0715   43.0473   43.0473
   43.4634   43.4634   43.6696   43.6696   43.8665   43.8665   44.2548   44.2548   44.4781   44.4781
   44.9570   44.9570   45.0507   45.0507   45.2784   45.2784   45.4840   45.4840   45.5389   45.5389
   46.0875   46.0875   46.9308   46.9308   47.4250   47.4250   47.8446   47.8446   48.5474   48.5474
   48.6817   48.6817   49.9308   49.9308   50.2937   50.2937   50.3590   50.3590   50.4823   50.4823
   50.8865   50.8865   51.3491   51.3491   51.7588   51.7588   52.5458   52.5458   52.8984   52.8984
   53.5936   53.5936   53.7497   53.7497   54.9114   54.9114   55.6382   55.6382   55.8406   55.8406
   55.9047   55.9047   56.1889   56.1889   56.3443   56.3443   57.7463   57.7463   57.9186   57.9186
   58.8162   58.8162   58.9629   58.9629   59.3557   59.3557   60.1321   60.1321   61.3445   61.3445
   61.6565   61.6565   61.9204   61.9204   62.0632   62.0632   62.1672   62.1672   65.3947   65.3947
   65.6340   65.6340   66.0647   66.0647   66.4099   66.4099   66.5202   66.5202   67.4922   67.4922
   67.9673   67.9673   69.7500   69.7500   70.7559   70.7559   74.5222   74.5222   76.1979   76.1979
   77.3526   77.3526   86.6984   86.6984   92.4220   92.4220   92.8394   92.8394   94.0602   94.0602
   98.8137   98.8137   99.4210   99.4210  101.8878  101.8878  103.7809  103.7809  104.8745  104.8745
  113.5848  113.5848  116.1501  116.1501  124.8676  124.8676  127.6309  127.6309  135.1484  135.1484
  142.0729  142.0729  144.2002  144.2002
siesta: Fermi energy =      -3.660132 eV

siesta: Program's energy decomposition (eV):
siesta: Ebs     =     -1121.273626
siesta: Eions   =      3585.165840
siesta: Ena     =       381.575932
siesta: Ekin    =      2904.367048
siesta: Enl     =     -2789.384035
siesta: Eso     =        -0.004296
siesta: Edftu   =         0.000000
siesta: DEna    =        47.593509
siesta: DUscf   =        13.786610
siesta: DUext   =         0.000000
siesta: Exc     =     -1120.393198
siesta: eta*DQ  =         0.000000
siesta: Emadel  =         0.000000
siesta: Emeta   =         0.000000
siesta: Emolmec =         0.000000
siesta: Ekinion =         0.000000
siesta: Eharris =     -4147.624271
siesta: Etot    =     -4147.624271
siesta: FreeEng =     -4147.624271

siesta: Final energy (eV):
siesta:  Band Struct. =   -1121.273626
siesta:       Kinetic =    2904.367048
siesta:       Hartree =   15595.431174
siesta:       Edftu   =       0.000000
siesta:       Eso     =      -0.004296
siesta:    Ext. field =       0.000000
siesta:   Exch.-corr. =   -1120.393198
siesta:  Ion-electron =  -33762.030542
siesta:       Ion-ion =   12235.005543
siesta:       Ekinion =       0.000000
siesta:         Total =   -4147.624271
siesta:         Fermi =      -3.660132

siesta: Atomic forces (eV/Ang):
siesta:      1    0.058814    0.031324   -0.000000
siesta:      2   -0.145759    0.116050   -0.000000
siesta:      3    0.163233   -0.030181    0.000000
siesta:      4   -0.025967    0.092357   -0.000000
siesta:      5   -0.082656   -0.075727   -0.000000
siesta:      6    0.004492    0.011568   -0.000000
siesta:      7    0.512293    0.305188    0.000000
siesta:      8    0.610237   -1.317845    0.000000
siesta:      9   -0.538584    0.738937   -0.000000
siesta:     10    0.131796   -0.202524   -0.000000
siesta:     11   -0.271564   -0.186668   -0.000000
siesta:     12    0.418910   -0.147516    0.000000
siesta:     13   -2.388121   -2.460286    0.000000
siesta:     14   -0.018822   -0.011084    0.000000
siesta:     15    0.037501    0.017565    0.000000
siesta:     16   -0.003953   -0.013707   -0.000000
siesta:     17   -0.006706    0.043625   -0.000000
siesta:     18   -0.038927    0.018850    0.000000
siesta:     19    0.096057    0.002738   -0.000000
siesta:     20   -0.526098   -0.018086    0.000000
siesta:     21    0.609708   -3.438324    0.000000
siesta:     22    0.036169    0.356274   -0.000000
siesta:     23    0.129978   -0.288801    0.000000
siesta:     24   -0.154600   -0.302644    0.000000
siesta:     25   -0.377898    0.896273    0.000000
siesta:     26    0.346079   -0.472088   -0.000000
siesta:     27   -0.127139    0.005713   -0.000000
siesta:     28    0.011980    0.266273   -0.000000
siesta:     29   -0.121405   -0.147309   -0.000000
siesta: ----------------------------------------
siesta:    Tot   -1.660953   -6.210053   -0.000000

siesta: Stress tensor (static) (eV/Ang**3):
siesta:     0.000317   -0.000245   -0.000000
siesta:    -0.000245    0.000237   -0.000000
siesta:     0.000000    0.000000   -0.000020

siesta: Cell volume =      13500.000000 Ang**3

siesta: Pressure (static):
siesta:                Solid            Molecule  Units
siesta:          -0.00000194          0.00000099  Ry/Bohr**3
siesta:          -0.00017794          0.00009069  eV/Ang**3
siesta:          -0.28508749          0.14529642  kBar
(Free)E+ p_basis*V_orbitals  =       -4127.773854
(Free)Eharris+ p_basis*V_orbitals  =       -4127.773854
     spin moment: S , {S} =    0.00000  -0.00000   0.00000  -0.00000

siesta: Electric dipole (a.u.)  =   -0.039344    1.490019    0.000000
siesta: Electric dipole (Debye) =   -0.100003    3.787254    0.000000

cite: Please see "GC.bib" for an exhaustive BiBTeX file.
cite: Please clearly indicate Siesta version in published work: v4.1.5-1-g384057250
cite: This calculation has made use of the following articles
cite: which are encouraged to be cited in a published work.
        Primary SIESTA paper
          DOI: www.doi.org/10.1088/0953-8984/14/11/302
        Spin-orbit coupling (on-site approximation)
          DOI: www.doi.org/10.1088/0953-8984/19/19/489001


WARNING: alloc-realloc-dealloc name mismatch
         Name: atomlist isa
         Size:              -116. Bytes
         Node:     0
         Subsequent mismatches will not be reported
>> End of run:   1-FEB-2024  21:40:44
Job completed
