Siesta Version  : v4.1.5-1-g384057250
Architecture    : gcc
Compiler version: GNU Fortran (Debian 12.2.0-14) 12.2.0
Compiler flags  : mpifort -O2 -fPIC -ftree-vectorize -fallow-argument-mismatch
PP flags        : -DFC_HAVE_ABORT -DMPI -DSIESTA__FLOOK -DSIESTA__METIS -DSIESTA__MUMPS -DCDF -DNCDF -DNCDF_4 -DNCDF_PARALLEL -DSIESTA__MRRR -DSIESTA__ELPA
Libraries       : libncdf.a libfdict.a  -lflookall -ldl -lnetcdff -lnetcdf -lz -lscalapack-openmpi -lopenblas -lmetis -lzmumps -lcmumps -ldmumps -lmumps_common -lpord -lsmumps -lesmumps -lscotch -lscotcherr -fopenmp -lelpa
PARALLEL version
NetCDF support
NetCDF-4 support
NetCDF-4 MPI-IO support
METIS ordering support
Lua support

* Running on 32 nodes in parallel
>> Start of run:  16-OCT-2023  21:20:12

                           ***********************       
                           *  WELCOME TO SIESTA  *       
                           ***********************       

reinit: Reading from standard input
reinit: Dumped input in INPUT_TMP.26907
************************** Dump of input data file ****************************
# mpirun -np 4 siesta-4.1.5 < AT.fdf > AT.out &
SystemLabel      AT
NumberOfAtoms    30
NumberOfSpecies  4
%block ChemicalSpeciesLabel
    1    1  H
    2    7  N
    3   14  Si
    4    8  O
%endblock ChemicalSpeciesLabel
############################################
# This overrides Defaults.fdf configuration
############################################
MD.TypeOfRun                Verlet # CG, Verlet
MD.Steps                    0
MaxSCFIterations            300
AtomicCoordinatesFormat NotScaledCartesianAng
%block AtomicCoordinatesAndAtomicSpecies
    2.28494382 -5.19529124 0.0  1  1  H
    1.37433094 -4.6647107 0.0  2  2  N
    -0.21830245 -5.49458215 0.0  3  3  Si
    -0.17484108 -6.98516892 0.0  1  4  H
    -1.66171682 -4.58600741 0.0  2  5  N
    -1.09026419 -2.87456374 0.0  3  6  Si
    -1.53038332 -0.70765692 0.0  3  7  Si
    -3.14415959 -0.09186471 0.0  2  8  N
    -3.40268075 0.95848335 0.0  1  9  H
    -3.95073599 -0.76720972 0.0  1  10  H
    -0.17836637 0.41349951 0.0  2  11  N
    1.49520211 -0.0473996 0.0  3  12  Si
    2.45603905 1.10727302 0.0  1  13  H
    2.30451743 -1.58574382 0.0  2  14  N
    1.10725559 -2.84610319 0.0  3  15  Si
    -0.054063812557990865 12.024635001228454 0.0  1  16  H
    -0.8627744925579909 11.332429121228454 0.0  2  17  N
    -2.519364332557991 12.045549221228454 0.0  3  18  Si
    -2.422499162557991 13.556274431228452 0.0  1  19  H
    -4.2455206825579905 10.702501091228452 0.0  3  20  Si
    -6.599974932557991 10.694514161228454 0.0  3  21  Si
    -7.1623930525579915 11.429003811228453 -1.20183078  1  22  H
    -6.8997886825579915 9.215423031228454 -0.08618332  1  23  H
    -7.162505512557991 11.259346621228453 1.28814761  1  24  H
    -3.316130042557991 8.631929861228453 0.0  3  25  Si
    -4.265598402557991 7.343393731228453 0.0  4  26  O
    -1.525185172557991 8.458194391228453 0.0  2  27  N
    -1.194193812557991 7.4258374112284535 0.0  1  28  H
    -0.2167269525579909 9.652740811228453 0.0  3  29  Si
    1.349209977442009 9.385493961228454 0.0  4  30  O
%endblock AtomicCoordinatesAndAtomicSpecies
%include ../../../../Defaults.fdf
************************** End of input data file *****************************

reinit: -----------------------------------------------------------------------
reinit: System Name: 
reinit: -----------------------------------------------------------------------
reinit: System Label: AT
reinit: -----------------------------------------------------------------------

initatom: Reading input for the pseudopotentials and atomic orbitals ----------
Species number:   1 Atomic number:    1 Label: H
Species number:   2 Atomic number:    7 Label: N
Species number:   3 Atomic number:   14 Label: Si
Species number:   4 Atomic number:    8 Label: O

Ground state valence configuration:   1s01
Reading pseudopotential information in formatted form from H.psf

Pseudopotential generated from a relativistic atomic calculation

Valence configuration for pseudopotential generation:
1s( 1.00) rc: 0.01
2p( 0.00) rc: 0.60
3d( 0.00) rc: 1.99
4f( 0.00) rc: 2.49
Ground state valence configuration:   2s02  2p03
Reading pseudopotential information in formatted form from N.psf

Pseudopotential generated from a relativistic atomic calculation

Valence configuration for pseudopotential generation:
2s( 2.00) rc: 0.94
2p( 3.00) rc: 0.59
3d( 0.00) rc: 3.46
4f( 0.00) rc: 2.47
Ground state valence configuration:   3s02  3p02
Reading pseudopotential information in formatted form from Si.psf

Pseudopotential generated from a relativistic atomic calculation

Valence configuration for pseudopotential generation:
3s( 2.00) rc: 1.67
3p( 2.00) rc: 2.04
3d( 0.00) rc: 2.89
4f( 0.00) rc: 2.49
Ground state valence configuration:   2s02  2p04
Reading pseudopotential information in formatted form from O.psf

Pseudopotential generated from a relativistic atomic calculation

Valence configuration for pseudopotential generation:
2s( 2.00) rc: 0.45
2p( 4.00) rc: 0.92
3d( 0.00) rc: 2.24
4f( 0.00) rc: 0.25
For H, standard SIESTA heuristics set lmxkb to 2
 (one more than the basis l, including polarization orbitals).
Use PS.lmax or PS.KBprojectors blocks to override.
For N, standard SIESTA heuristics set lmxkb to 3
 (one more than the basis l, including polarization orbitals).
Use PS.lmax or PS.KBprojectors blocks to override.
For Si, standard SIESTA heuristics set lmxkb to 3
 (one more than the basis l, including polarization orbitals).
Use PS.lmax or PS.KBprojectors blocks to override.
For O, standard SIESTA heuristics set lmxkb to 3
 (one more than the basis l, including polarization orbitals).
Use PS.lmax or PS.KBprojectors blocks to override.

<basis_specs>
===============================================================================
H                    Z=   1    Mass=  1.0100        Charge= 0.17977+309
Lmxo=0 Lmxkb= 2    BasisType=split      Semic=F
L=0  Nsemic=0  Cnfigmx=1
          i=1  nzeta=2  polorb=1  (1s)
            splnorm:   0.62000    
               vcte:    0.0000    
               rinn:    0.0000    
               qcoe:    0.0000    
               qyuk:    0.0000    
               qwid:   0.10000E-01
                rcs:    0.0000      0.0000    
            lambdas:    1.0000      1.0000    
-------------------------------------------------------------------------------
L=0  Nkbl=1  erefs: 0.17977+309
L=1  Nkbl=1  erefs: 0.17977+309
L=2  Nkbl=1  erefs: 0.17977+309
===============================================================================
</basis_specs>

atom: Called for H                     (Z =   1)

read_vps: Pseudopotential generation method:
read_vps: ATM4.2.7  Troullier-Martins                       
Valence charge for ps generation:    1.00000

xc_check: Exchange-correlation functional:
xc_check: GGA Perdew, Burke & Ernzerhof 1996
V l=0 = -2*Zval/r beyond r=  0.0098
V l=1 = -2*Zval/r beyond r=  0.5817
V l=2 = -2*Zval/r beyond r=  1.9372
All V_l potentials equal beyond r=  1.9372
This should be close to max(r_c) in ps generation
All pots = -2*Zval/r beyond r=  1.9372

VLOCAL1: 99.0% of the norm of Vloc inside     11.567 Ry
VLOCAL1: 99.9% of the norm of Vloc inside     26.362 Ry
atom: Maximum radius for 4*pi*r*r*local-pseudopot. charge    2.25106
atom: Maximum radius for r*vlocal+2*Zval:    1.91306
GHOST: No ghost state for L =  0
GHOST: No ghost state for L =  1
GHOST: No ghost state for L =  2

KBgen: Kleinman-Bylander projectors: 
   l= 0   rc=  2.036604   el= -0.477180   Ekb= -6.081590   kbcos= -0.277285
   l= 1   rc=  2.195416   el=  0.001076   Ekb= -0.926943   kbcos= -0.034643
   l= 2   rc=  2.251056   el=  0.002010   Ekb= -0.130941   kbcos= -0.009788

KBgen: Total number of Kleinman-Bylander projectors:    9
atom: -------------------------------------------------------------------------

atom: SANKEY-TYPE ORBITALS:
atom: Selected multiple-zeta basis: split     

SPLIT: Orbitals with angular momentum L= 0

SPLIT: Basis orbitals for state 1s

SPLIT: PAO cut-off radius determined from an
SPLIT: energy shift=  0.002000 Ry

   izeta = 1
                 lambda =    1.000000
                     rc =    6.518340
                 energy =   -0.475305
                kinetic =    0.912139
    potential(screened) =   -1.387444
       potential(ionic) =   -1.907295

   izeta = 2
                 rmatch =    2.141150
              splitnorm =    0.620000
                 energy =    0.566467
                kinetic =    3.772856
    potential(screened) =   -3.206389
       potential(ionic) =   -3.759093

POLgen: Perturbative polarization orbital with L=  1

POLgen: Polarization orbital for state 1s

   izeta = 1
                     rc =    6.518340
                 energy =    0.533861
                kinetic =    1.121086
    potential(screened) =   -0.587225
       potential(ionic) =   -1.053027
atom: Total number of Sankey-type orbitals:  5

atm_pop: Valence configuration (for local Pseudopot. screening):
 1s( 1.00)                                                            
Vna: chval, zval:    1.00000   1.00000

Vna:  Cut-off radius for the neutral-atom potential:   6.518340

atom: _________________________________________________________________________

<basis_specs>
===============================================================================
N                    Z=   7    Mass=  14.010        Charge= 0.17977+309
Lmxo=1 Lmxkb= 3    BasisType=split      Semic=F
L=0  Nsemic=0  Cnfigmx=2
          i=1  nzeta=2  polorb=0  (2s)
            splnorm:   0.28000    
               vcte:    0.0000    
               rinn:    0.0000    
               qcoe:    0.0000    
               qyuk:    0.0000    
               qwid:   0.10000E-01
                rcs:    0.0000      0.0000    
            lambdas:    1.0000      1.0000    
L=1  Nsemic=0  Cnfigmx=2
          i=1  nzeta=2  polorb=1  (2p)
            splnorm:   0.28000    
               vcte:    0.0000    
               rinn:    0.0000    
               qcoe:    0.0000    
               qyuk:    0.0000    
               qwid:   0.10000E-01
                rcs:    0.0000      0.0000    
            lambdas:    1.0000      1.0000    
-------------------------------------------------------------------------------
L=0  Nkbl=1  erefs: 0.17977+309
L=1  Nkbl=1  erefs: 0.17977+309
L=2  Nkbl=1  erefs: 0.17977+309
L=3  Nkbl=1  erefs: 0.17977+309
===============================================================================
</basis_specs>

atom: Called for N                     (Z =   7)

read_vps: Pseudopotential generation method:
read_vps: ATM4.2.7  Troullier-Martins                       
Valence charge for ps generation:    5.00000

xc_check: Exchange-correlation functional:
xc_check: GGA Perdew, Burke & Ernzerhof 1996
V l=0 = -2*Zval/r beyond r=  1.2889
V l=1 = -2*Zval/r beyond r=  1.2889
V l=2 = -2*Zval/r beyond r=  3.4178
V l=3 = -2*Zval/r beyond r=  2.4084
All V_l potentials equal beyond r=  3.3753
This should be close to max(r_c) in ps generation
All pots = -2*Zval/r beyond r=  3.4178

VLOCAL1: 99.0% of the norm of Vloc inside      3.810 Ry
VLOCAL1: 99.9% of the norm of Vloc inside      8.683 Ry
atom: Maximum radius for 4*pi*r*r*local-pseudopot. charge    4.02088
atom: Maximum radius for r*vlocal+2*Zval:    3.54838
GHOST: No ghost state for L =  0
GHOST: No ghost state for L =  1
GHOST: No ghost state for L =  2
GHOST: No ghost state for L =  3

KBgen: Kleinman-Bylander projectors: 
   l= 0   rc=  3.417763   el= -1.365098   Ekb= -4.433130   kbcos= -0.707855
   l= 1   rc=  3.375302   el= -0.521201   Ekb=-13.264039   kbcos= -0.535594
   l= 2   rc=  3.872880   el=  0.001991   Ekb= -0.641094   kbcos= -0.062456
   l= 3   rc=  3.970931   el=  0.003093   Ekb= -0.474517   kbcos= -0.018236

KBgen: Total number of Kleinman-Bylander projectors:   16
atom: -------------------------------------------------------------------------

atom: SANKEY-TYPE ORBITALS:
atom: Selected multiple-zeta basis: split     

SPLIT: Orbitals with angular momentum L= 0

SPLIT: Basis orbitals for state 2s

SPLIT: PAO cut-off radius determined from an
SPLIT: energy shift=  0.002000 Ry

   izeta = 1
                 lambda =    1.000000
                     rc =    4.730425
                 energy =   -1.363399
                kinetic =    1.245246
    potential(screened) =   -2.608645
       potential(ionic) =   -8.121105

   izeta = 2
                 rmatch =    2.531849
              splitnorm =    0.280000
                 energy =   -0.959908
                kinetic =    2.409435
    potential(screened) =   -3.369343
       potential(ionic) =   -9.427975

SPLIT: Orbitals with angular momentum L= 1

SPLIT: Basis orbitals for state 2p

SPLIT: PAO cut-off radius determined from an
SPLIT: energy shift=  0.002000 Ry

   izeta = 1
                 lambda =    1.000000
                     rc =    5.924108
                 energy =   -0.519262
                kinetic =    3.672940
    potential(screened) =   -4.192202
       potential(ionic) =   -9.518354

   izeta = 2
                 rmatch =    2.531849
              splitnorm =    0.280000
                 energy =   -0.104258
                kinetic =    6.807538
    potential(screened) =   -6.911796
       potential(ionic) =  -13.149920

POLgen: Perturbative polarization orbital with L=  2

POLgen: Polarization orbital for state 2p

   izeta = 1
                     rc =    5.924108
                 energy =    1.427508
                kinetic =    2.872379
    potential(screened) =   -1.444871
       potential(ionic) =   -5.563644
atom: Total number of Sankey-type orbitals: 13

atm_pop: Valence configuration (for local Pseudopot. screening):
 2s( 2.00)                                                            
 2p( 3.00)                                                            
Vna: chval, zval:    5.00000   5.00000

Vna:  Cut-off radius for the neutral-atom potential:   5.924108

atom: _________________________________________________________________________

<basis_specs>
===============================================================================
Si                   Z=  14    Mass=  28.090        Charge= 0.17977+309
Lmxo=1 Lmxkb= 3    BasisType=split      Semic=F
L=0  Nsemic=0  Cnfigmx=3
          i=1  nzeta=2  polorb=0  (3s)
            splnorm:   0.28000    
               vcte:    0.0000    
               rinn:    0.0000    
               qcoe:    0.0000    
               qyuk:    0.0000    
               qwid:   0.10000E-01
                rcs:    0.0000      0.0000    
            lambdas:    1.0000      1.0000    
L=1  Nsemic=0  Cnfigmx=3
          i=1  nzeta=2  polorb=1  (3p)
            splnorm:   0.28000    
               vcte:    0.0000    
               rinn:    0.0000    
               qcoe:    0.0000    
               qyuk:    0.0000    
               qwid:   0.10000E-01
                rcs:    0.0000      0.0000    
            lambdas:    1.0000      1.0000    
-------------------------------------------------------------------------------
L=0  Nkbl=1  erefs: 0.17977+309
L=1  Nkbl=1  erefs: 0.17977+309
L=2  Nkbl=1  erefs: 0.17977+309
L=3  Nkbl=1  erefs: 0.17977+309
===============================================================================
</basis_specs>

atom: Called for Si                    (Z =  14)

read_vps: Pseudopotential generation method:
read_vps: ATM4.2.7  Troullier-Martins                       
Valence charge for ps generation:    4.00000

xc_check: Exchange-correlation functional:
xc_check: GGA Perdew, Burke & Ernzerhof 1996
V l=0 = -2*Zval/r beyond r=  2.7826
V l=1 = -2*Zval/r beyond r=  2.7826
V l=2 = -2*Zval/r beyond r=  2.9253
V l=3 = -2*Zval/r beyond r=  2.7826
All V_l potentials equal beyond r=  2.8530
This should be close to max(r_c) in ps generation
All pots = -2*Zval/r beyond r=  2.9253

VLOCAL1: 99.0% of the norm of Vloc inside      5.333 Ry
VLOCAL1: 99.9% of the norm of Vloc inside     12.154 Ry
atom: Maximum radius for 4*pi*r*r*local-pseudopot. charge    3.39869
atom: Maximum radius for r*vlocal+2*Zval:    2.96205
GHOST: No ghost state for L =  0
GHOST: No ghost state for L =  1
GHOST: No ghost state for L =  2
GHOST: No ghost state for L =  3

KBgen: Kleinman-Bylander projectors: 
   l= 0   rc=  3.075247   el= -0.794092   Ekb=  5.879390   kbcos=  0.167461
   l= 1   rc=  3.153101   el= -0.300068   Ekb=  2.642817   kbcos=  0.058301
   l= 2   rc=  3.273594   el=  0.001958   Ekb= -1.185135   kbcos= -0.104411
   l= 3   rc=  3.232927   el=  0.003046   Ekb= -0.497174   kbcos= -0.015889

KBgen: Total number of Kleinman-Bylander projectors:   16
atom: -------------------------------------------------------------------------

atom: SANKEY-TYPE ORBITALS:
atom: Selected multiple-zeta basis: split     

SPLIT: Orbitals with angular momentum L= 0

SPLIT: Basis orbitals for state 3s

SPLIT: PAO cut-off radius determined from an
SPLIT: energy shift=  0.002000 Ry

   izeta = 1
                 lambda =    1.000000
                     rc =    6.429618
                 energy =   -0.792283
                kinetic =    0.525293
    potential(screened) =   -1.317576
       potential(ionic) =   -3.744923

   izeta = 2
                 rmatch =    3.998416
              splitnorm =    0.280000
                 energy =   -0.583081
                kinetic =    1.069570
    potential(screened) =   -1.652651
       potential(ionic) =   -4.235185

SPLIT: Orbitals with angular momentum L= 1

SPLIT: Basis orbitals for state 3p

SPLIT: PAO cut-off radius determined from an
SPLIT: energy shift=  0.002000 Ry

   izeta = 1
                 lambda =    1.000000
                     rc =    8.464845
                 energy =   -0.298236
                kinetic =    0.785360
    potential(screened) =   -1.083596
       potential(ionic) =   -3.273779

   izeta = 2
                 rmatch =    4.587816
              splitnorm =    0.280000
                 energy =   -0.131871
                kinetic =    1.403687
    potential(screened) =   -1.535557
       potential(ionic) =   -4.015310

POLgen: Perturbative polarization orbital with L=  2

POLgen: Polarization orbital for state 3p

   izeta = 1
                     rc =    8.464845
                 energy =    0.321949
                kinetic =    1.055677
    potential(screened) =   -0.733728
       potential(ionic) =   -2.672950
atom: Total number of Sankey-type orbitals: 13

atm_pop: Valence configuration (for local Pseudopot. screening):
 3s( 2.00)                                                            
 3p( 2.00)                                                            
Vna: chval, zval:    4.00000   4.00000

Vna:  Cut-off radius for the neutral-atom potential:   8.464845

atom: _________________________________________________________________________

<basis_specs>
===============================================================================
O                    Z=   8    Mass=  16.000        Charge= 0.17977+309
Lmxo=1 Lmxkb= 3    BasisType=split      Semic=F
L=0  Nsemic=0  Cnfigmx=2
          i=1  nzeta=2  polorb=0  (2s)
            splnorm:   0.28000    
               vcte:    0.0000    
               rinn:    0.0000    
               qcoe:    0.0000    
               qyuk:    0.0000    
               qwid:   0.10000E-01
                rcs:    0.0000      0.0000    
            lambdas:    1.0000      1.0000    
L=1  Nsemic=0  Cnfigmx=2
          i=1  nzeta=2  polorb=1  (2p)
            splnorm:   0.28000    
               vcte:    0.0000    
               rinn:    0.0000    
               qcoe:    0.0000    
               qyuk:    0.0000    
               qwid:   0.10000E-01
                rcs:    0.0000      0.0000    
            lambdas:    1.0000      1.0000    
-------------------------------------------------------------------------------
L=0  Nkbl=1  erefs: 0.17977+309
L=1  Nkbl=1  erefs: 0.17977+309
L=2  Nkbl=1  erefs: 0.17977+309
L=3  Nkbl=1  erefs: 0.17977+309
===============================================================================
</basis_specs>

atom: Called for O                     (Z =   8)

read_vps: Pseudopotential generation method:
read_vps: ATM4.2.7  Troullier-Martins                       
Valence charge for ps generation:    6.00000

xc_check: Exchange-correlation functional:
xc_check: GGA Perdew, Burke & Ernzerhof 1996
V l=0 = -2*Zval/r beyond r=  1.1000
V l=1 = -2*Zval/r beyond r=  1.1000
V l=2 = -2*Zval/r beyond r=  2.2154
V l=3 = -2*Zval/r beyond r=  1.1000
All V_l potentials equal beyond r=  2.2154
This should be close to max(r_c) in ps generation
All pots = -2*Zval/r beyond r=  2.2154

VLOCAL1: 99.0% of the norm of Vloc inside      8.845 Ry
VLOCAL1: 99.9% of the norm of Vloc inside     20.157 Ry
atom: Maximum radius for 4*pi*r*r*local-pseudopot. charge    2.67231
atom: Maximum radius for r*vlocal+2*Zval:    2.32897
GHOST: No ghost state for L =  0
GHOST: No ghost state for L =  1
GHOST: No ghost state for L =  2
GHOST: No ghost state for L =  3

KBgen: Kleinman-Bylander projectors: 
   l= 0   rc=  2.243238   el= -1.759686   Ekb=**********   kbcos= -0.171774
   l= 1   rc=  2.328968   el= -0.663873   Ekb=-14.506792   kbcos= -0.519897
   l= 2   rc=  2.573941   el=  0.002031   Ekb= -1.137373   kbcos= -0.019581
   l= 3   rc=  2.606321   el=  0.003153   Ekb= -1.013546   kbcos= -0.003122

KBgen: Total number of Kleinman-Bylander projectors:   16
atom: -------------------------------------------------------------------------

atom: SANKEY-TYPE ORBITALS:
atom: Selected multiple-zeta basis: split     

SPLIT: Orbitals with angular momentum L= 0

SPLIT: Basis orbitals for state 2s

SPLIT: PAO cut-off radius determined from an
SPLIT: energy shift=  0.002000 Ry

   izeta = 1
                 lambda =    1.000000
                     rc =    4.243912
                 energy =   -1.758270
                kinetic =    3.286084
    potential(screened) =   -5.044353
       potential(ionic) =  -12.921184

   izeta = 2
                 rmatch =    2.187845
              splitnorm =    0.280000
                 energy =   -0.885018
                kinetic =    8.134434
    potential(screened) =   -9.019452
       potential(ionic) =  -17.710645

SPLIT: Orbitals with angular momentum L= 1

SPLIT: Basis orbitals for state 2p

SPLIT: PAO cut-off radius determined from an
SPLIT: energy shift=  0.002000 Ry

   izeta = 1
                 lambda =    1.000000
                     rc =    5.314825
                 energy =   -0.661986
                kinetic =    4.917472
    potential(screened) =   -5.579458
       potential(ionic) =  -13.236259

   izeta = 2
                 rmatch =    2.160663
              splitnorm =    0.280000
                 energy =   -0.068760
                kinetic =    9.183374
    potential(screened) =   -9.252135
       potential(ionic) =  -18.274251

POLgen: Perturbative polarization orbital with L=  2

POLgen: Polarization orbital for state 2p

   izeta = 1
                     rc =    5.314825
                 energy =    1.970580
                kinetic =    3.886128
    potential(screened) =   -1.915547
       potential(ionic) =   -7.749584
atom: Total number of Sankey-type orbitals: 13

atm_pop: Valence configuration (for local Pseudopot. screening):
 2s( 2.00)                                                            
 2p( 4.00)                                                            
Vna: chval, zval:    6.00000   6.00000

Vna:  Cut-off radius for the neutral-atom potential:   5.314825

atom: _________________________________________________________________________

prinput: Basis input ----------------------------------------------------------

PAO.BasisType split     

%block ChemicalSpeciesLabel
    1    1 H                       # Species index, atomic number, species label
    2    7 N                       # Species index, atomic number, species label
    3   14 Si                      # Species index, atomic number, species label
    4    8 O                       # Species index, atomic number, species label
%endblock ChemicalSpeciesLabel

%block PAO.Basis                 # Define Basis set
H                     1                    # Species label, number of l-shells
 n=1   0   2 P   1                   # n, l, Nzeta, Polarization, NzetaPol
   6.518      2.141   
   1.000      1.000   
N                     2                    # Species label, number of l-shells
 n=2   0   2                         # n, l, Nzeta 
   4.730      2.532   
   1.000      1.000   
 n=2   1   2 P   1                   # n, l, Nzeta, Polarization, NzetaPol
   5.924      2.532   
   1.000      1.000   
Si                    2                    # Species label, number of l-shells
 n=3   0   2                         # n, l, Nzeta 
   6.430      3.998   
   1.000      1.000   
 n=3   1   2 P   1                   # n, l, Nzeta, Polarization, NzetaPol
   8.465      4.588   
   1.000      1.000   
O                     2                    # Species label, number of l-shells
 n=2   0   2                         # n, l, Nzeta 
   4.244      2.188   
   1.000      1.000   
 n=2   1   2 P   1                   # n, l, Nzeta, Polarization, NzetaPol
   5.315      2.161   
   1.000      1.000   
%endblock PAO.Basis

prinput: ----------------------------------------------------------------------

Dumping basis to NetCDF file H.ion.nc
Dumping basis to NetCDF file N.ion.nc
Dumping basis to NetCDF file Si.ion.nc
Dumping basis to NetCDF file O.ion.nc
coor:   Atomic-coordinates input format  =     Cartesian coordinates
coor:                                          (in Angstroms)

siesta: Atomic coordinates (Bohr) and species
siesta:      4.31792  -9.81768   0.00000  1        1
siesta:      2.59711  -8.81503   0.00000  2        2
siesta:     -0.41253 -10.38326   0.00000  3        3
siesta:     -0.33040 -13.20006   0.00000  1        4
siesta:     -3.14019  -8.66630   0.00000  2        5
siesta:     -2.06030  -5.43214   0.00000  3        6
siesta:     -2.89201  -1.33728   0.00000  3        7
siesta:     -5.94160  -0.17360   0.00000  2        8
siesta:     -6.43014   1.81127   0.00000  1        9
siesta:     -7.46581  -1.44982   0.00000  1       10
siesta:     -0.33706   0.78140   0.00000  2       11
siesta:      2.82552  -0.08957   0.00000  3       12
siesta:      4.64124   2.09244   0.00000  1       13
siesta:      4.35491  -2.99662   0.00000  2       14
siesta:      2.09241  -5.37836   0.00000  3       15
siesta:     -0.10217  22.72328   0.00000  1       16
siesta:     -1.63041  21.41520   0.00000  2       17
siesta:     -4.76091  22.76280   0.00000  3       18
siesta:     -4.57786  25.61766   0.00000  1       19
siesta:     -8.02287  20.22480   0.00000  3       20
siesta:    -12.47215  20.20971   0.00000  3       21
siesta:    -13.53497  21.59770  -2.27113  1       22
siesta:    -13.03872  17.41463  -0.16286  1       23
siesta:    -13.53518  21.27709   2.43425  1       24
siesta:     -6.26658  16.31199   0.00000  3       25
siesta:     -8.06082  13.87701   0.00000  4       26
siesta:     -2.88218  15.98368   0.00000  2       27
siesta:     -2.25670  14.03280   0.00000  1       28
siesta:     -0.40955  18.24104   0.00000  3       29
siesta:      2.54964  17.73602   0.00000  4       30

siesta: Automatic unit cell vectors (Ang):
siesta:   18.759378    0.000000    0.000000
siesta:    0.000000   30.184170    0.000000
siesta:    0.000000    0.000000   10.327559

siesta: System type = molecule  

initatomlists: Number of atoms, orbitals, and projectors:     30   302   403

siesta: ******************** Simulation parameters ****************************
siesta:
siesta: The following are some of the parameters of the simulation.
siesta: A complete list of the parameters used, including default values,
siesta: can be found in file out.fdf
siesta:
redata: Spin configuration                          = spin-orbit
redata: Number of spin components                   = 8
redata: Time-Reversal Symmetry                      = F
redata: Spin spiral                                 = F
############################################################
This spin-orbit implementation uses a local approximation.
From 4.2 and onwards the full non-local approximation is implemented
You are strongly advised to use >=4.2 versions!
############################################################
redata: Long output                                 =   F
redata: Number of Atomic Species                    =        4
redata: Charge density info will appear in .RHO file
redata: Write Mulliken Pop.                         = NO
redata: Matel table size (NRTAB)                    =     1024
redata: Mesh Cutoff                                 =   340.0000 Ry
redata: Net charge of the system                    =     0.0000 |e|
redata: Min. number of SCF Iter                     =        1
redata: Max. number of SCF Iter                     =      300
redata: SCF convergence failure will abort job
redata: SCF mix quantity                            = Hamiltonian
redata: Mix DM or H after convergence               =   F
redata: Recompute H after scf cycle                 =   F
redata: Mix DM in first SCF step                    =   T
redata: Write Pulay info on disk                    =   F
redata: New DM Occupancy tolerance                  = 0.000000000001
redata: No kicks to SCF
redata: DM Mixing Weight for Kicks                  =     0.5000
redata: Require Harris convergence for SCF          =   F
redata: Harris energy tolerance for SCF             =     0.000100 eV
redata: Require DM convergence for SCF              =   T
redata: DM tolerance for SCF                        =     0.000008
redata: Require EDM convergence for SCF             =   F
redata: EDM tolerance for SCF                       =     0.001000 eV
redata: Require H convergence for SCF               =   T
redata: Hamiltonian tolerance for SCF               =     0.000001 eV
redata: Require (free) Energy convergence for SCF   =   F
redata: (free) Energy tolerance for SCF             =     0.000100 eV
redata: Using Saved Data (generic)                  =   F
redata: Use continuation files for DM               =   T
redata: Neglect nonoverlap interactions             =   F
redata: Method of Calculation                       = Diagonalization
redata: Electronic Temperature                      =   299.9978 K
redata: Fix the spin of the system                  =   F
redata: Dynamics option                             = Verlet MD run
redata: Initial MD time step                        =        1
redata:   Final MD time step                        =        1
redata: Length of MD time step                      =     0.5000 fs
redata: Initial Temperature of MD run               =     0.0000 K
redata: Perform a MD quench                         =   F
mix.SCF: Pulay mixing                            = Pulay
mix.SCF:    Variant                              = stable
mix.SCF:    History steps                        = 6
mix.SCF:    Linear mixing weight                 =     0.250000
mix.SCF:    Mixing weight                        =     0.250000
mix.SCF:    SVD condition                        = 0.1000E-07
mix.SCF:    Restart steps                        = 24
mix.SCF:    Restart save steps                   = 3
mix.SCF: Spin-component mixing                   all
redata: Save all siesta data in one NC              =   F
redata: ***********************************************************************

%block SCF.Mixers
  Pulay
%endblock SCF.Mixers

%block SCF.Mixer.Pulay
  # Mixing method
  method pulay
  variant stable

  # Mixing options
  weight 0.2500
  weight.linear 0.2500
  history 6
  restart 24
  restart.save 3
%endblock SCF.Mixer.Pulay

Size of DM history Fstack: 3
Total number of electrons:    98.000000
Total ionic charge:    98.000000

* ProcessorY, Blocksize:    4   9


* Orbital distribution balance (max,min):    18     9


Time-reversal symmetry not used.

siesta: k-grid: Number of k-points =     1
siesta: k-grid: Cutoff (effective) =     5.164 Ang
siesta: k-grid: Supercell and displacements
siesta: k-grid:    1   0   0      0.000
siesta: k-grid:    0   1   0      0.000
siesta: k-grid:    0   0   1      0.000

diag: Algorithm                                     = ELPA-1stage
diag: Parallel over k                               =   F
diag: Use parallel 2D distribution                  =   T
diag: Parallel block-size                           = 9
diag: Parallel distribution                         =     4 x     8
diag: Used triangular part                          = Lower
diag: Absolute tolerance                            =  0.100E-15
diag: Orthogonalization factor                      =  0.100E-05
diag: Memory factor                                 =  1.0000


ts: **************************************************************
ts: Save H and S matrices                           =    F
ts: Save DM and EDM matrices                        =    F
ts: Only save the overlap matrix S                  =    F
ts: **************************************************************

************************ Begin: TS CHECKS AND WARNINGS ************************
************************ End: TS CHECKS AND WARNINGS **************************


                     ====================================
                        Begin MD step =      1
                     ====================================

outcoor: Atomic coordinates (Ang):                          
    2.28494382   -5.19529124    0.00000000   1       1  H
    1.37433094   -4.66471070    0.00000000   2       2  N
   -0.21830245   -5.49458215    0.00000000   3       3  Si
   -0.17484108   -6.98516892    0.00000000   1       4  H
   -1.66171682   -4.58600741    0.00000000   2       5  N
   -1.09026419   -2.87456374    0.00000000   3       6  Si
   -1.53038332   -0.70765692    0.00000000   3       7  Si
   -3.14415959   -0.09186471    0.00000000   2       8  N
   -3.40268075    0.95848335    0.00000000   1       9  H
   -3.95073599   -0.76720972    0.00000000   1      10  H
   -0.17836637    0.41349951    0.00000000   2      11  N
    1.49520211   -0.04739960    0.00000000   3      12  Si
    2.45603905    1.10727302    0.00000000   1      13  H
    2.30451743   -1.58574382    0.00000000   2      14  N
    1.10725559   -2.84610319    0.00000000   3      15  Si
   -0.05406381   12.02463500    0.00000000   1      16  H
   -0.86277449   11.33242912    0.00000000   2      17  N
   -2.51936433   12.04554922    0.00000000   3      18  Si
   -2.42249916   13.55627443    0.00000000   1      19  H
   -4.24552068   10.70250109    0.00000000   3      20  Si
   -6.59997493   10.69451416    0.00000000   3      21  Si
   -7.16239305   11.42900381   -1.20183078   1      22  H
   -6.89978868    9.21542303   -0.08618332   1      23  H
   -7.16250551   11.25934662    1.28814761   1      24  H
   -3.31613004    8.63192986    0.00000000   3      25  Si
   -4.26559840    7.34339373    0.00000000   4      26  O
   -1.52518517    8.45819439    0.00000000   2      27  N
   -1.19419381    7.42583741    0.00000000   1      28  H
   -0.21672695    9.65274081    0.00000000   3      29  Si
    1.34920998    9.38549396    0.00000000   4      30  O

outcell: Unit cell vectors (Ang):
       18.759378    0.000000    0.000000
        0.000000   30.184170    0.000000
        0.000000    0.000000   10.327559

outcell: Cell vector modules (Ang)   :   18.759378   30.184170   10.327559
outcell: Cell angles (23,13,12) (deg):     90.0000     90.0000     90.0000
outcell: Cell volume (Ang**3)        :   5847.8384
<dSpData1D:S at geom step 1
  <sparsity:sparsity for geom step 1
    nrows_g=302 nrows=18 sparsity=.0275 nnzs=2511, refcount: 8>
  <dData1D:(new from dSpData1D) n=2511, refcount: 1>
refcount: 1>
new_DM -- step:     1
Initializing Density Matrix...

Attempting to read DM from file... Failed...
DM filled with atomic data:
<dSpData2D:DM initialized from atoms
  <sparsity:sparsity for geom step 1
    nrows_g=302 nrows=18 sparsity=.0275 nnzs=2511, refcount: 9>
  <dData2D:DM n=2511 m=8, refcount: 1>
refcount: 1>
     spin moment: S , {S} =   56.00000   0.00000   0.00000  56.00000
No. of atoms with KB's overlaping orbs in proc 0. Max # of overlaps:      20     134

Initializing spin-orbit part of the Hamiltonian
  Adding spin-orbit effects for H 
  Adding spin-orbit effects for N 
  Adding spin-orbit effects for Si
  Adding spin-orbit effects for O 


New grid distribution:   1
           1       1:  108    1:   45    1:    8
           2       1:  108    1:   45    9:   16
           3       1:  108    1:   45   17:   24
           4       1:  108    1:   45   25:   32
           5       1:  108    1:   45   33:   39
           6       1:  108    1:   45   40:   46
           7       1:  108    1:   45   47:   53
           8       1:  108    1:   45   54:   60
           9       1:  108   46:   90    1:    8
          10       1:  108   46:   90    9:   16
          11       1:  108   46:   90   17:   24
          12       1:  108   46:   90   25:   32
          13       1:  108   46:   90   33:   39
          14       1:  108   46:   90   40:   46
          15       1:  108   46:   90   47:   53
          16       1:  108   46:   90   54:   60
          17       1:  108   91:  135    1:    8
          18       1:  108   91:  135    9:   16
          19       1:  108   91:  135   17:   24
          20       1:  108   91:  135   25:   32
          21       1:  108   91:  135   33:   39
          22       1:  108   91:  135   40:   46
          23       1:  108   91:  135   47:   53
          24       1:  108   91:  135   54:   60
          25       1:  108  136:  180    1:    8
          26       1:  108  136:  180    9:   16
          27       1:  108  136:  180   17:   24
          28       1:  108  136:  180   25:   32
          29       1:  108  136:  180   33:   39
          30       1:  108  136:  180   40:   46
          31       1:  108  136:  180   47:   53
          32       1:  108  136:  180   54:   60

InitMesh: MESH =   216 x   360 x   120 =     9331200
InitMesh: (bp) =   108 x   180 x    60 =     1166400
InitMesh: Mesh cutoff (required, used) =   340.000   366.414 Ry
ExtMesh (bp) on 0 =   212 x   153 x   116 =     3762576
New grid distribution:   2
           1      58:   87    1:   55    1:   19
           2      88:   98    1:   55    1:   19
           3      73:   87   56:   73    1:   22
           4       1:   58    1:   55   20:   60
           5      59:   87    1:   55   20:   60
           6      10:   81  162:  180    1:   20
           7      98:  108   56:   73   22:   60
           8      98:  108   56:   73    1:   21
           9       1:   57    1:   55    1:   19
          10       1:   72   56:   73    1:   22
          11      99:  108    1:   55    1:   19
          12      88:   97   56:   73   22:   60
          13       1:   73   56:   73   23:   60
          14      88:   98    1:   55   20:   60
          15      74:   87   56:   73   23:   60
          16      88:   97   56:   73    1:   21
          17      82:   99   74:  160    1:   20
          18       1:    9   74:  161    1:   20
          19     100:  108  161:  180    1:   21
          20      10:   81   74:  161   21:   60
          21      82:   99   74:  160   21:   60
          22       1:    9   74:  161   21:   60
          23      82:   99  161:  180    1:   21
          24       1:    9  162:  180    1:   20
          25      10:   81   74:  161    1:   20
          26     100:  108   74:  160    1:   20
          27       1:    9  162:  180   21:   60
          28     100:  108   74:  160   21:   60
          29      10:   81  162:  180   21:   60
          30      99:  108    1:   55   20:   60
          31      82:   99  161:  180   22:   60
          32     100:  108  161:  180   22:   60
New grid distribution:   3
           1       1:   50   50:   72    1:   25
           2      74:   91    1:   43    1:   23
           3      51:   73   50:   72    1:   25
           4      16:   73    1:   49   25:   60
           5      16:   73    1:   49    1:   24
           6      74:   92    1:   43   24:   60
           7      52:   73   50:   72   26:   60
           8      95:  108  144:  180    1:   25
           9      17:   76   73:  148    1:   25
          10       1:   15    1:   49    1:   24
          11      91:  108   44:   72    1:   26
          12       1:   51   50:   72   26:   60
          13      17:   76  149:  180    1:   25
          14       1:   15    1:   49   25:   60
          15      91:  108   44:   72   27:   60
          16      74:   90   44:   72   27:   60
          17      77:   95   73:  143    1:   24
          18      96:  108   73:  143    1:   24
          19      74:   90   44:   72    1:   26
          20      17:   76   73:  148   26:   60
          21      77:   95   73:  143   25:   60
          22      96:  108   73:  143   25:   60
          23      96:  108  144:  180   26:   60
          24       1:   16  149:  180    1:   25
          25       1:   16   73:  148    1:   25
          26      92:  108    1:   43    1:   23
          27      77:   94  144:  180    1:   25
          28      16:   76  149:  180   26:   60
          29       1:   16   73:  148   26:   60
          30      93:  108    1:   43   24:   60
          31      77:   95  144:  180   26:   60
          32       1:   15  149:  180   26:   60
Setting up quadratic distribution...
ExtMesh (bp) on 0 =   134 x   163 x   127 =     2773934
PhiOnMesh: Number of (b)points on node 0 =                31350
PhiOnMesh: nlist on node 0 =               402259

stepf: Fermi-Dirac step function

siesta: Program's energy decomposition (eV):
siesta: Ebs     =      -651.753313
siesta: Eions   =      3553.971015
siesta: Ena     =       374.984508
siesta: Ekin    =      3171.236387
siesta: Enl     =     -2984.636462
siesta: Eso     =        -0.003884
siesta: Edftu   =         0.000000
siesta: DEna    =       129.717634
siesta: DUscf   =        75.730764
siesta: DUext   =         0.000000
siesta: Exc     =     -1168.654781
siesta: eta*DQ  =         0.000000
siesta: Emadel  =         0.000000
siesta: Emeta   =         0.000000
siesta: Emolmec =         0.000000
siesta: Ekinion =         0.000000
siesta: Eharris =     -3884.378418
siesta: Etot    =     -3955.596847
siesta: FreeEng =     -3955.600156

        iscf     Eharris(eV)        E_KS(eV)     FreeEng(eV)     dDmax    Ef(eV) dHmax(eV)
   scf:    1    -3884.378418    -3955.596847    -3955.600156  0.970466 -4.935221 21.523319
     spin moment: S , {S} =    2.02349  -0.00000  -0.00000   2.02349
timer: Routine,Calls,Time,% = IterSCF        1       4.361  10.13
   scf:    2    -3996.235138    -3988.693354    -3988.693372  0.466853 -4.315954 12.099139
     spin moment: S , {S} =    2.00005   0.00000  -0.00000   2.00005
   scf:    3    -3959.315974    -3985.803351    -3985.827534  0.418300 -4.237746 11.524506
     spin moment: S , {S} =    1.98338  -0.00000  -0.00000   1.98338
   scf:    4    -4002.187715    -3997.300325    -3997.300326  0.246656 -3.933409  6.282279
     spin moment: S , {S} =    0.00010  -0.00000   0.00000   0.00010
   scf:    5    -3998.658721    -3998.062469    -3998.062469  0.038940 -3.842777  3.877221
     spin moment: S , {S} =    0.00006  -0.00000   0.00000   0.00006
   scf:    6    -3998.832653    -3998.451404    -3998.451404  0.025412 -3.823183  1.920825
     spin moment: S , {S} =    0.00003  -0.00000   0.00000   0.00003
   scf:    7    -3998.849858    -3998.643699    -3998.643699  0.023191 -3.862546  0.746972
     spin moment: S , {S} =    0.00001  -0.00000   0.00000   0.00001
   scf:    8    -3998.775239    -3998.706771    -3998.706771  0.012614 -3.926854  0.458209
     spin moment: S , {S} =    0.00000  -0.00000   0.00000   0.00000
   scf:    9    -3998.755735    -3998.730117    -3998.730117  0.007111 -3.936016  0.368027
     spin moment: S , {S} =    0.00000  -0.00000   0.00000   0.00000
   scf:   10    -3998.789150    -3998.750575    -3998.750575  0.023371 -3.964768  0.201620
     spin moment: S , {S} =    0.00000  -0.00000  -0.00000  -0.00000
   scf:   11    -3998.755269    -3998.753068    -3998.753068  0.004356 -3.950833  0.070761
     spin moment: S , {S} =    0.00000  -0.00000  -0.00000  -0.00000
   scf:   12    -3998.753799    -3998.753460    -3998.753460  0.001406 -3.948532  0.042191
     spin moment: S , {S} =    0.00000  -0.00000  -0.00000  -0.00000
   scf:   13    -3998.754115    -3998.753784    -3998.753784  0.000800 -3.946786  0.022296
     spin moment: S , {S} =    0.00000  -0.00000  -0.00000  -0.00000
   scf:   14    -3998.754137    -3998.753955    -3998.753955  0.000750 -3.945834  0.013552
     spin moment: S , {S} =    0.00000  -0.00000  -0.00000  -0.00000
   scf:   15    -3998.754089    -3998.754018    -3998.754018  0.000552 -3.945562  0.008092
     spin moment: S , {S} =    0.00000   0.00000  -0.00000  -0.00000
   scf:   16    -3998.754086    -3998.754049    -3998.754050  0.000503 -3.945546  0.003460
     spin moment: S , {S} =    0.00000   0.00000  -0.00000  -0.00000
   scf:   17    -3998.754062    -3998.754055    -3998.754055  0.000216 -3.945654  0.002643
     spin moment: S , {S} =    0.00000   0.00000  -0.00000   0.00000
   scf:   18    -3998.754060    -3998.754057    -3998.754058  0.000157 -3.945716  0.001772
     spin moment: S , {S} =    0.00000   0.00000  -0.00000   0.00000
   scf:   19    -3998.754060    -3998.754058    -3998.754059  0.000138 -3.945742  0.001196
     spin moment: S , {S} =    0.00000   0.00000  -0.00000   0.00000
   scf:   20    -3998.754059    -3998.754059    -3998.754059  0.000063 -3.945758  0.000833
     spin moment: S , {S} =    0.00000   0.00000   0.00000   0.00000
   scf:   21    -3998.754059    -3998.754059    -3998.754059  0.000055 -3.945776  0.000557
     spin moment: S , {S} =    0.00000   0.00000   0.00000   0.00000
   scf:   22    -3998.754059    -3998.754059    -3998.754059  0.000056 -3.945783  0.000280
     spin moment: S , {S} =    0.00000   0.00000   0.00000   0.00000
   scf:   23    -3998.754059    -3998.754059    -3998.754059  0.000027 -3.945797  0.000193
     spin moment: S , {S} =    0.00000   0.00000   0.00000   0.00000
   scf:   24    -3998.754059    -3998.754059    -3998.754059  0.000027 -3.945792  0.000085
     spin moment: S , {S} =    0.00000   0.00000   0.00000   0.00000
mix: Pulay -- resetting history
   scf:   25    -3998.754059    -3998.754059    -3998.754059  0.000017 -3.945779  0.000031
     spin moment: S , {S} =    0.00000   0.00000   0.00000   0.00000
   scf:   26    -3998.754059    -3998.754059    -3998.754059  0.000004 -3.945778  0.000023
     spin moment: S , {S} =    0.00000   0.00000   0.00000   0.00000
   scf:   27    -3998.754059    -3998.754059    -3998.754059  0.000002 -3.945775  0.000012
     spin moment: S , {S} =    0.00000   0.00000   0.00000   0.00000
   scf:   28    -3998.754059    -3998.754059    -3998.754059  0.000001 -3.945773  0.000008
     spin moment: S , {S} =    0.00000   0.00000   0.00000  -0.00000
   scf:   29    -3998.754059    -3998.754059    -3998.754059  0.000000 -3.945792  0.000004
     spin moment: S , {S} =    0.00000   0.00000   0.00000  -0.00000
   scf:   30    -3998.754059    -3998.754059    -3998.754059  0.000000 -3.945792  0.000002
     spin moment: S , {S} =    0.00000   0.00000   0.00000  -0.00000
   scf:   31    -3998.754059    -3998.754059    -3998.754059  0.000000 -3.945791  0.000002
     spin moment: S , {S} =    0.00000   0.00000   0.00000  -0.00000
   scf:   32    -3998.754059    -3998.754059    -3998.754059  0.000000 -3.945791  0.000002
     spin moment: S , {S} =    0.00000   0.00000   0.00000  -0.00000
   scf:   33    -3998.754059    -3998.754059    -3998.754059  0.000000 -3.945791  0.000001
     spin moment: S , {S} =    0.00000   0.00000   0.00000   0.00000

SCF Convergence by DM+H criterion
max |DM_out - DM_in|         :     0.0000001571
max |H_out - H_in|      (eV) :     0.0000009653
SCF cycle converged after 33 iterations

Using DM_out to compute the final energy and forces
No. of atoms with KB's overlaping orbs in proc 0. Max # of overlaps:      20     134

siesta: E_KS(eV) =            -3998.7541

siesta: E_KS - E_eggbox =     -3998.7541
     spin moment: S , {S} =    0.00000   0.00000   0.00000   0.00000

siesta: Atomic forces (eV/Ang):
     1    0.088495   -0.004106   -0.000000
     2   -0.039544    0.029001    0.000000
     3   -0.028521   -0.008397   -0.000000
     4    0.057889   -0.023728   -0.000000
     5    0.009359   -0.028437    0.000000
     6   -0.190041    0.019313   -0.000000
     7    1.062611   -0.020717   -0.000000
     8   -0.668545    1.407519   -0.000000
     9    0.221707   -1.081388   -0.000000
    10   -0.121612    0.160711    0.000000
    11   -0.209745   -0.444463    0.000000
    12   -0.279553    0.057517    0.000000
    13   -0.175202   -0.067591    0.000000
    14    0.029946   -0.131535   -0.000000
    15    0.110097    0.107175    0.000000
    16   -0.108639   -0.076109   -0.000946
    17    0.075118   -0.064740   -0.000816
    18   -0.172989    0.038271    0.005216
    19    0.045376   -0.055781   -0.001436
    20    0.128135    0.084777   -0.000943
    21    0.031636   -0.031816   -0.007043
    22    0.079450   -0.019015    0.104462
    23    0.046224    0.073798   -0.016687
    24    0.074225    0.026220   -0.082705
    25   -0.668830   -0.398672    0.001027
    26    2.957038    0.475581    0.000498
    27    0.385751   -0.438854   -0.000553
    28   -0.199860    0.746953   -0.000071
    29    0.113803    0.181769   -0.000231
    30    0.418383    1.291170    0.000257
----------------------------------------
   Tot    3.072162    1.804426    0.000030
----------------------------------------
   Max    2.957038
   Res    0.444740    sqrt( Sum f_i^2 / 3N )
----------------------------------------
   Max    2.957038    constrained

Stress tensor Voigt[x,y,z,yz,xz,xy] (kbar):        0.30        0.67       -0.05       -0.01        0.00        0.29
(Free)E + p*V (eV/cell)    -3999.8638
Target enthalpy (eV/cell)    -3998.7541

siesta: Stress tensor (static) (eV/Ang**3):
         0.000184    0.000183    0.000001
         0.000183    0.000417   -0.000009
         0.000001   -0.000009   -0.000032

siesta: Pressure (static):         -0.30403477  kBar

siesta: Stress tensor (total) (eV/Ang**3):
         0.000184    0.000183    0.000001
         0.000183    0.000417   -0.000009
         0.000001   -0.000009   -0.000032

siesta: Pressure (total):         -0.30403477  kBar

siesta: Temp_ion =       0.000 K

siesta: Eigenvalues (eV):
ik =     1
  -22.9306  -22.9306  -22.3910  -22.3910  -21.7805  -21.7805  -21.3318  -21.3318  -21.1904  -21.1904
  -21.0895  -21.0895  -19.5526  -19.5526  -19.4043  -19.4043  -18.7637  -18.7637  -15.0475  -15.0475
  -14.1276  -14.1276  -13.8095  -13.8095  -13.6202  -13.6202  -13.1150  -13.1150  -13.0595  -13.0595
  -12.6964  -12.6964  -12.3110  -12.3110  -11.9457  -11.9457  -11.7642  -11.7642  -11.5364  -11.5364
  -11.1477  -11.1477  -10.6581  -10.6581  -10.3688  -10.3688   -9.5668   -9.5668   -9.3287   -9.3287
   -9.3142   -9.3142   -9.1144   -9.1144   -9.0717   -9.0717   -8.9613   -8.9613   -8.6424   -8.6424
   -8.4254   -8.4254   -8.3923   -8.3923   -8.2995   -8.2995   -8.0812   -8.0812   -8.0493   -8.0493
   -7.7391   -7.7391   -7.5472   -7.5472   -7.4608   -7.4608   -7.3199   -7.3199   -6.9960   -6.9960
   -6.9048   -6.9048   -6.7631   -6.7631   -6.5748   -6.5748   -6.3277   -6.3277   -6.2945   -6.2945
   -5.9575   -5.9575   -5.7313   -5.7313   -5.7001   -5.7001   -4.3753   -4.3753   -3.5163   -3.5163
   -2.7246   -2.7246   -2.3428   -2.3428   -2.2411   -2.2411   -2.1582   -2.1582   -2.1072   -2.1072
   -2.0114   -2.0114   -1.8635   -1.8635   -1.7470   -1.7470   -1.6650   -1.6650   -1.5652   -1.5652
   -1.1950   -1.1950   -0.7350   -0.7350   -0.4669   -0.4669   -0.3648   -0.3648   -0.1943   -0.1943
   -0.0251   -0.0251    0.0374    0.0374    0.2188    0.2188    0.4188    0.4188    0.4751    0.4751
    0.4791    0.4791    0.7114    0.7114    1.0578    1.0578    1.1188    1.1188    1.2412    1.2412
    1.4292    1.4292    1.5385    1.5385    1.7617    1.7617    1.9188    1.9188    2.0252    2.0252
    2.2840    2.2840    2.6574    2.6574    2.6843    2.6843    2.7214    2.7214    2.7789    2.7789
    2.9273    2.9273    2.9548    2.9548    3.1069    3.1069    3.2324    3.2324    3.2789    3.2789
    3.5162    3.5162    3.8793    3.8793    4.0534    4.0534    4.0654    4.0654    4.2068    4.2068
    4.3185    4.3185    4.5318    4.5318    4.5375    4.5375    4.7612    4.7612    4.9204    4.9204
    5.0372    5.0372    5.0680    5.0680    5.5428    5.5428    5.6070    5.6070    5.6666    5.6666
    5.7268    5.7268    6.0071    6.0071    6.0218    6.0218    6.1761    6.1761    6.1960    6.1960
    6.4745    6.4745    6.5568    6.5568    6.7936    6.7936    7.0125    7.0125    7.0613    7.0613
    7.1113    7.1113    7.3300    7.3300    7.4924    7.4924    7.8115    7.8115    7.8256    7.8256
    7.9520    7.9520    8.1037    8.1037    8.2185    8.2185    8.2289    8.2289    8.6475    8.6475
    8.7824    8.7824    8.8712    8.8712    8.9499    8.9499    9.1391    9.1391    9.5081    9.5081
    9.5793    9.5793    9.6945    9.6945    9.7684    9.7684    9.7691    9.7691    9.9078    9.9078
   10.1403   10.1403   10.3099   10.3099   10.6010   10.6010   10.8400   10.8400   10.9017   10.9017
   11.2594   11.2594   11.2713   11.2713   11.5222   11.5222   11.5523   11.5523   11.6111   11.6111
   11.8927   11.8927   12.1594   12.1594   12.2907   12.2907   12.3673   12.3673   12.6035   12.6035
   12.7837   12.7837   12.9148   12.9148   13.0104   13.0104   13.1294   13.1294   13.3178   13.3178
   13.3655   13.3655   13.5887   13.5887   14.4513   14.4513   14.5954   14.5955   14.6344   14.6344
   14.6662   14.6662   14.7884   14.7884   15.1369   15.1369   16.0783   16.0783   16.5473   16.5473
   16.6379   16.6379   16.7684   16.7684   16.9967   16.9967   17.1604   17.1604   17.2965   17.2965
   18.0775   18.0775   18.2229   18.2229   18.4384   18.4384   18.6898   18.6898   18.7165   18.7165
   18.7212   18.7212   19.5146   19.5146   19.7423   19.7423   19.9919   19.9919   20.2104   20.2104
   20.5740   20.5740   21.0519   21.0519   21.0895   21.0895   21.6890   21.6890   22.1632   22.1632
   22.2473   22.2473   22.8266   22.8266   22.8639   22.8639   23.0323   23.0323   23.8202   23.8202
   24.5700   24.5700   24.6953   24.6953   24.8008   24.8008   25.6583   25.6583   25.9340   25.9340
   25.9929   25.9929   26.4494   26.4494   26.5152   26.5152   27.7481   27.7481   28.0200   28.0200
   28.2743   28.2743   28.4493   28.4493   29.0897   29.0897   29.4639   29.4639   30.3241   30.3241
   30.6926   30.6926   30.7555   30.7555   30.7904   30.7904   31.2461   31.2461   31.5009   31.5009
   31.7319   31.7319   31.8905   31.8905   32.0409   32.0409   33.3361   33.3361   33.3478   33.3478
   33.6935   33.6935   34.0013   34.0013   34.4835   34.4835   34.7548   34.7548   34.8888   34.8888
   35.4618   35.4618   35.9702   35.9702   36.0067   36.0067   37.0311   37.0311   37.4488   37.4488
   37.5212   37.5212   37.6801   37.6801   38.0017   38.0017   38.4019   38.4019   38.4344   38.4344
   39.0878   39.0878   40.1049   40.1049   40.1478   40.1478   40.7253   40.7253   41.0720   41.0720
   41.5840   41.5840   41.7831   41.7831   41.8379   41.8379   43.2735   43.2735   43.3447   43.3447
   43.7673   43.7673   44.4454   44.4454   44.7813   44.7813   44.8444   44.8444   45.0322   45.0322
   45.4808   45.4808   45.7521   45.7521   45.8560   45.8560   46.4684   46.4684   46.8824   46.8824
   47.0636   47.0636   47.3917   47.3917   48.4946   48.4946   48.7702   48.7702   49.3758   49.3758
   49.6710   49.6710   50.1725   50.1725   50.1972   50.1972   50.3061   50.3061   50.3370   50.3370
   51.7089   51.7089   52.5265   52.5265   52.7010   52.7010   53.8239   53.8239   54.3258   54.3258
   54.7496   54.7496   54.8144   54.8144   55.9427   55.9427   56.0612   56.0612   56.1867   56.1867
   56.8035   56.8035   57.6272   57.6272   57.9555   57.9555   58.3660   58.3660   59.5411   59.5411
   59.9197   59.9197   61.0833   61.0833   61.5973   61.5973   62.8317   62.8317   63.2293   63.2293
   65.1429   65.1429   65.4377   65.4377   66.9343   66.9343   67.2393   67.2393   68.3113   68.3113
   68.3934   68.3934   70.5494   70.5494   71.8592   71.8592   76.4136   76.4136   88.6313   88.6313
   91.8492   91.8492   92.9289   92.9289   94.9637   94.9637   96.4220   96.4220  100.0430  100.0430
  100.6733  100.6733  102.4486  102.4486  114.1880  114.1880  118.3224  118.3224  123.1305  123.1305
  132.4364  132.4364  138.6761  138.6761
siesta: Fermi energy =      -3.945791 eV

siesta: Program's energy decomposition (eV):
siesta: Ebs     =     -1121.162479
siesta: Eions   =      3553.971015
siesta: Ena     =       374.984508
siesta: Ekin    =      2743.124339
siesta: Enl     =     -2522.757740
siesta: Eso     =        -0.004664
siesta: Edftu   =         0.000000
siesta: DEna    =        36.841865
siesta: DUscf   =        13.888576
siesta: DUext   =         0.000000
siesta: Exc     =     -1090.859928
siesta: eta*DQ  =         0.000000
siesta: Emadel  =         0.000000
siesta: Emeta   =         0.000000
siesta: Emolmec =         0.000000
siesta: Ekinion =         0.000000
siesta: Eharris =     -3998.754059
siesta: Etot    =     -3998.754059
siesta: FreeEng =     -3998.754059

siesta: Final energy (eV):
siesta:  Band Struct. =   -1121.162479
siesta:       Kinetic =    2743.124339
siesta:       Hartree =    7244.696659
siesta:       Edftu   =       0.000000
siesta:       Eso     =      -0.004664
siesta:    Ext. field =       0.000000
siesta:   Exch.-corr. =   -1090.859928
siesta:  Ion-electron =  -16937.969505
siesta:       Ion-ion =    4042.259040
siesta:       Ekinion =       0.000000
siesta:         Total =   -3998.754059
siesta:         Fermi =      -3.945791

siesta: Atomic forces (eV/Ang):
siesta:      1    0.088495   -0.004106   -0.000000
siesta:      2   -0.039544    0.029001    0.000000
siesta:      3   -0.028521   -0.008397   -0.000000
siesta:      4    0.057889   -0.023728   -0.000000
siesta:      5    0.009359   -0.028437    0.000000
siesta:      6   -0.190041    0.019313   -0.000000
siesta:      7    1.062611   -0.020717   -0.000000
siesta:      8   -0.668545    1.407519   -0.000000
siesta:      9    0.221707   -1.081388   -0.000000
siesta:     10   -0.121612    0.160711    0.000000
siesta:     11   -0.209745   -0.444463    0.000000
siesta:     12   -0.279553    0.057517    0.000000
siesta:     13   -0.175202   -0.067591    0.000000
siesta:     14    0.029946   -0.131535   -0.000000
siesta:     15    0.110097    0.107175    0.000000
siesta:     16   -0.108639   -0.076109   -0.000946
siesta:     17    0.075118   -0.064740   -0.000816
siesta:     18   -0.172989    0.038271    0.005216
siesta:     19    0.045376   -0.055781   -0.001436
siesta:     20    0.128135    0.084777   -0.000943
siesta:     21    0.031636   -0.031816   -0.007043
siesta:     22    0.079450   -0.019015    0.104462
siesta:     23    0.046224    0.073798   -0.016687
siesta:     24    0.074225    0.026220   -0.082705
siesta:     25   -0.668830   -0.398672    0.001027
siesta:     26    2.957038    0.475581    0.000498
siesta:     27    0.385751   -0.438854   -0.000553
siesta:     28   -0.199860    0.746953   -0.000071
siesta:     29    0.113803    0.181769   -0.000231
siesta:     30    0.418383    1.291170    0.000257
siesta: ----------------------------------------
siesta:    Tot    3.072162    1.804426    0.000030

siesta: Stress tensor (static) (eV/Ang**3):
siesta:     0.000184    0.000183    0.000001
siesta:     0.000183    0.000417   -0.000009
siesta:     0.000001   -0.000009   -0.000032

siesta: Cell volume =       5847.838427 Ang**3

siesta: Pressure (static):
siesta:                Solid            Molecule  Units
siesta:          -0.00000207         -0.00000164  Ry/Bohr**3
siesta:          -0.00018976         -0.00015086  eV/Ang**3
siesta:          -0.30403477         -0.24171352  kBar
(Free)E+ p_basis*V_orbitals  =       -3977.625974
(Free)Eharris+ p_basis*V_orbitals  =       -3977.625974
     spin moment: S , {S} =    0.00000   0.00000   0.00000   0.00000

siesta: Electric dipole (a.u.)  =   -1.249345    1.629764   -0.001800
siesta: Electric dipole (Debye) =   -3.175520    4.142449   -0.004576

cite: Please see "AT.bib" for an exhaustive BiBTeX file.
cite: Please clearly indicate Siesta version in published work: v4.1.5-1-g384057250
cite: This calculation has made use of the following articles
cite: which are encouraged to be cited in a published work.
        Primary SIESTA paper
          DOI: www.doi.org/10.1088/0953-8984/14/11/302
        Spin-orbit coupling (on-site approximation)
          DOI: www.doi.org/10.1088/0953-8984/19/19/489001


WARNING: alloc-realloc-dealloc name mismatch
         Name: atomlist isa
         Size:              -120. Bytes
         Node:     0
         Subsequent mismatches will not be reported
>> End of run:  16-OCT-2023  21:22:27
Job completed
