Siesta Version  : v4.1.5-1-g384057250
Architecture    : gcc
Compiler version: GNU Fortran (Debian 10.2.1-6) 10.2.1 20210110
Compiler flags  : mpifort -O2 -fPIC -ftree-vectorize -fallow-argument-mismatch
PP flags        : -DFC_HAVE_ABORT -DMPI -DSIESTA__FLOOK -DSIESTA__METIS -DSIESTA__MUMPS -DCDF -DNCDF -DNCDF_4 -DNCDF_PARALLEL -DSIESTA__MRRR -DSIESTA__ELPA
Libraries       : libncdf.a libfdict.a  -lflookall -ldl -lnetcdff -lnetcdf -lhdf5_hl -lhdf5 -lhdf5_fortran -lz -lscalapack-openmpi -lopenblas -lmetis -lzmumps -lcmumps -ldmumps -lmumps_common -lpord -lsmumps -lesmumps -lscotch -lscotcherr -fopenmp -lelpa
PARALLEL version
NetCDF support
NetCDF-4 support
NetCDF-4 MPI-IO support
METIS ordering support
Lua support

* Running on 6 nodes in parallel
>> Start of run:  22-MAY-2023  10:10:11

                           ***********************       
                           *  WELCOME TO SIESTA  *       
                           ***********************       

reinit: Reading from standard input
reinit: Dumped input in INPUT_TMP.14132
************************** Dump of input data file ****************************
SystemLabel      AT
NumberOfAtoms    30
NumberOfSpecies  4
%block ChemicalSpeciesLabel
    1    1  H
    2    7  N
    3   14  Si
    4    8  O
%endblock ChemicalSpeciesLabel
# Single point calculation
MD.TypeOfRun                CG
MD.Steps                    0
SCF.MustConverge            F # In case it does not. There can be 2 very close atoms
AtomicCoordinatesFormat NotScaledCartesianAng
%block AtomicCoordinatesAndAtomicSpecies
2.582377650    -5.776830440   0.000000000       1
1.654759240    -5.269361980   0.000000000       2
0.063128840    -6.101704590   0.000000000       3
0.119223240    -7.596849500   0.000000000       1
-1.376892050   -5.182603740   0.000000000       2
-0.824371900   -3.460866440   0.000000000       3
-1.170571480   -1.270002100   0.000000000       3
-2.706933680   -0.417515780   0.000000000       2
-2.754569660   0.634858620    0.000000000       1
-3.637675640   -0.909967860   0.000000000       1
0.218091790    -0.234193970   0.000000000       2
1.872004100    -0.697162300   0.000000000       3
2.828001130    0.461464770    0.000000000       1
2.648150080    -2.255024470   0.000000000       2
1.391921380    -3.454727220   0.000000000       3
1.866848068    6.657567181    0.000000000       2
0.539476548    7.867771481    0.000000000       3
1.179477818    9.229089721    0.000000000       1
-1.546269392   7.197240131    0.000000000       3
-3.575831992   8.327356321    0.000000000       3
-3.421596222   9.487586531    0.940305280       1
-4.561766712   7.305435701    0.512613700       1
-3.992046952   8.803582171    -1.366678340      1
-1.479773972   4.923263511    0.000000000       3
-2.518822702   3.730204011    0.000000000       4
0.177217608    4.289288321    0.000000000       2
0.159200238    3.226843491    0.000000000       1
1.800820678    4.886358531    0.000000000       3
2.995836848    3.871933331    0.000000000       4
2.866885438    7.003074281    0.000000000       1
%endblock AtomicCoordinatesAndAtomicSpecies
%include ../../../Defaults.fdf
************************** End of input data file *****************************

reinit: -----------------------------------------------------------------------
reinit: System Name: 
reinit: -----------------------------------------------------------------------
reinit: System Label: AT
reinit: -----------------------------------------------------------------------

initatom: Reading input for the pseudopotentials and atomic orbitals ----------
Species number:   1 Atomic number:    1 Label: H
Species number:   2 Atomic number:    7 Label: N
Species number:   3 Atomic number:   14 Label: Si
Species number:   4 Atomic number:    8 Label: O

Ground state valence configuration:   1s01
Reading pseudopotential information in formatted form from H.psf

Pseudopotential generated from a relativistic atomic calculation

Valence configuration for pseudopotential generation:
1s( 1.00) rc: 0.01
2p( 0.00) rc: 0.60
3d( 0.00) rc: 1.99
4f( 0.00) rc: 2.49
Ground state valence configuration:   2s02  2p03
Reading pseudopotential information in formatted form from N.psf

Pseudopotential generated from a relativistic atomic calculation

Valence configuration for pseudopotential generation:
2s( 2.00) rc: 0.94
2p( 3.00) rc: 0.59
3d( 0.00) rc: 3.46
4f( 0.00) rc: 2.47
Ground state valence configuration:   3s02  3p02
Reading pseudopotential information in formatted form from Si.psf

Pseudopotential generated from a relativistic atomic calculation

Valence configuration for pseudopotential generation:
3s( 2.00) rc: 1.67
3p( 2.00) rc: 2.04
3d( 0.00) rc: 2.89
4f( 0.00) rc: 2.49
Ground state valence configuration:   2s02  2p04
Reading pseudopotential information in formatted form from O.psf

Pseudopotential generated from a relativistic atomic calculation

Valence configuration for pseudopotential generation:
2s( 2.00) rc: 0.45
2p( 4.00) rc: 0.92
3d( 0.00) rc: 2.24
4f( 0.00) rc: 0.25
For H, standard SIESTA heuristics set lmxkb to 2
 (one more than the basis l, including polarization orbitals).
Use PS.lmax or PS.KBprojectors blocks to override.
For N, standard SIESTA heuristics set lmxkb to 3
 (one more than the basis l, including polarization orbitals).
Use PS.lmax or PS.KBprojectors blocks to override.
For Si, standard SIESTA heuristics set lmxkb to 3
 (one more than the basis l, including polarization orbitals).
Use PS.lmax or PS.KBprojectors blocks to override.
For O, standard SIESTA heuristics set lmxkb to 3
 (one more than the basis l, including polarization orbitals).
Use PS.lmax or PS.KBprojectors blocks to override.

<basis_specs>
===============================================================================
H                    Z=   1    Mass=  1.0100        Charge= 0.17977+309
Lmxo=0 Lmxkb= 2    BasisType=split      Semic=F
L=0  Nsemic=0  Cnfigmx=1
          i=1  nzeta=2  polorb=1  (1s)
            splnorm:   0.62000    
               vcte:    0.0000    
               rinn:    0.0000    
               qcoe:    0.0000    
               qyuk:    0.0000    
               qwid:   0.10000E-01
                rcs:    0.0000      0.0000    
            lambdas:    1.0000      1.0000    
-------------------------------------------------------------------------------
L=0  Nkbl=1  erefs: 0.17977+309
L=1  Nkbl=1  erefs: 0.17977+309
L=2  Nkbl=1  erefs: 0.17977+309
===============================================================================
</basis_specs>

atom: Called for H                     (Z =   1)

read_vps: Pseudopotential generation method:
read_vps: ATM4.2.7  Troullier-Martins                       
Valence charge for ps generation:    1.00000

xc_check: Exchange-correlation functional:
xc_check: GGA Perdew, Burke & Ernzerhof 1996
V l=0 = -2*Zval/r beyond r=  0.0098
V l=1 = -2*Zval/r beyond r=  0.5817
V l=2 = -2*Zval/r beyond r=  1.9372
All V_l potentials equal beyond r=  1.9372
This should be close to max(r_c) in ps generation
All pots = -2*Zval/r beyond r=  1.9372

VLOCAL1: 99.0% of the norm of Vloc inside     11.567 Ry
VLOCAL1: 99.9% of the norm of Vloc inside     26.362 Ry
atom: Maximum radius for 4*pi*r*r*local-pseudopot. charge    2.25106
atom: Maximum radius for r*vlocal+2*Zval:    1.91306
GHOST: No ghost state for L =  0
GHOST: No ghost state for L =  1
GHOST: No ghost state for L =  2

KBgen: Kleinman-Bylander projectors: 
   l= 0   rc=  2.036604   el= -0.477180   Ekb= -6.081590   kbcos= -0.277285
   l= 1   rc=  2.195416   el=  0.001076   Ekb= -0.926943   kbcos= -0.034643
   l= 2   rc=  2.251056   el=  0.002010   Ekb= -0.130941   kbcos= -0.009788

KBgen: Total number of Kleinman-Bylander projectors:    9
atom: -------------------------------------------------------------------------

atom: SANKEY-TYPE ORBITALS:
atom: Selected multiple-zeta basis: split     

SPLIT: Orbitals with angular momentum L= 0

SPLIT: Basis orbitals for state 1s

SPLIT: PAO cut-off radius determined from an
SPLIT: energy shift=  0.002000 Ry

   izeta = 1
                 lambda =    1.000000
                     rc =    6.518340
                 energy =   -0.475305
                kinetic =    0.912139
    potential(screened) =   -1.387444
       potential(ionic) =   -1.907295

   izeta = 2
                 rmatch =    2.141150
              splitnorm =    0.620000
                 energy =    0.566467
                kinetic =    3.772856
    potential(screened) =   -3.206389
       potential(ionic) =   -3.759093

POLgen: Perturbative polarization orbital with L=  1

POLgen: Polarization orbital for state 1s

   izeta = 1
                     rc =    6.518340
                 energy =    0.533861
                kinetic =    1.121086
    potential(screened) =   -0.587225
       potential(ionic) =   -1.053027
atom: Total number of Sankey-type orbitals:  5

atm_pop: Valence configuration (for local Pseudopot. screening):
 1s( 1.00)                                                            
Vna: chval, zval:    1.00000   1.00000

Vna:  Cut-off radius for the neutral-atom potential:   6.518340

atom: _________________________________________________________________________

<basis_specs>
===============================================================================
N                    Z=   7    Mass=  14.010        Charge= 0.17977+309
Lmxo=1 Lmxkb= 3    BasisType=split      Semic=F
L=0  Nsemic=0  Cnfigmx=2
          i=1  nzeta=2  polorb=0  (2s)
            splnorm:   0.28000    
               vcte:    0.0000    
               rinn:    0.0000    
               qcoe:    0.0000    
               qyuk:    0.0000    
               qwid:   0.10000E-01
                rcs:    0.0000      0.0000    
            lambdas:    1.0000      1.0000    
L=1  Nsemic=0  Cnfigmx=2
          i=1  nzeta=2  polorb=1  (2p)
            splnorm:   0.28000    
               vcte:    0.0000    
               rinn:    0.0000    
               qcoe:    0.0000    
               qyuk:    0.0000    
               qwid:   0.10000E-01
                rcs:    0.0000      0.0000    
            lambdas:    1.0000      1.0000    
-------------------------------------------------------------------------------
L=0  Nkbl=1  erefs: 0.17977+309
L=1  Nkbl=1  erefs: 0.17977+309
L=2  Nkbl=1  erefs: 0.17977+309
L=3  Nkbl=1  erefs: 0.17977+309
===============================================================================
</basis_specs>

atom: Called for N                     (Z =   7)

read_vps: Pseudopotential generation method:
read_vps: ATM4.2.7  Troullier-Martins                       
Valence charge for ps generation:    5.00000

xc_check: Exchange-correlation functional:
xc_check: GGA Perdew, Burke & Ernzerhof 1996
V l=0 = -2*Zval/r beyond r=  1.2889
V l=1 = -2*Zval/r beyond r=  1.2889
V l=2 = -2*Zval/r beyond r=  3.4178
V l=3 = -2*Zval/r beyond r=  2.4084
All V_l potentials equal beyond r=  3.3753
This should be close to max(r_c) in ps generation
All pots = -2*Zval/r beyond r=  3.4178

VLOCAL1: 99.0% of the norm of Vloc inside      3.810 Ry
VLOCAL1: 99.9% of the norm of Vloc inside      8.683 Ry
atom: Maximum radius for 4*pi*r*r*local-pseudopot. charge    4.02088
atom: Maximum radius for r*vlocal+2*Zval:    3.54838
GHOST: No ghost state for L =  0
GHOST: No ghost state for L =  1
GHOST: No ghost state for L =  2
GHOST: No ghost state for L =  3

KBgen: Kleinman-Bylander projectors: 
   l= 0   rc=  3.417763   el= -1.365098   Ekb= -4.433130   kbcos= -0.707855
   l= 1   rc=  3.375302   el= -0.521201   Ekb=-13.264039   kbcos= -0.535594
   l= 2   rc=  3.872880   el=  0.001991   Ekb= -0.641094   kbcos= -0.062456
   l= 3   rc=  3.970931   el=  0.003093   Ekb= -0.474517   kbcos= -0.018236

KBgen: Total number of Kleinman-Bylander projectors:   16
atom: -------------------------------------------------------------------------

atom: SANKEY-TYPE ORBITALS:
atom: Selected multiple-zeta basis: split     

SPLIT: Orbitals with angular momentum L= 0

SPLIT: Basis orbitals for state 2s

SPLIT: PAO cut-off radius determined from an
SPLIT: energy shift=  0.002000 Ry

   izeta = 1
                 lambda =    1.000000
                     rc =    4.730425
                 energy =   -1.363399
                kinetic =    1.245246
    potential(screened) =   -2.608645
       potential(ionic) =   -8.121105

   izeta = 2
                 rmatch =    2.531849
              splitnorm =    0.280000
                 energy =   -0.959908
                kinetic =    2.409435
    potential(screened) =   -3.369343
       potential(ionic) =   -9.427975

SPLIT: Orbitals with angular momentum L= 1

SPLIT: Basis orbitals for state 2p

SPLIT: PAO cut-off radius determined from an
SPLIT: energy shift=  0.002000 Ry

   izeta = 1
                 lambda =    1.000000
                     rc =    5.924108
                 energy =   -0.519262
                kinetic =    3.672940
    potential(screened) =   -4.192202
       potential(ionic) =   -9.518354

   izeta = 2
                 rmatch =    2.531849
              splitnorm =    0.280000
                 energy =   -0.104258
                kinetic =    6.807538
    potential(screened) =   -6.911796
       potential(ionic) =  -13.149920

POLgen: Perturbative polarization orbital with L=  2

POLgen: Polarization orbital for state 2p

   izeta = 1
                     rc =    5.924108
                 energy =    1.427508
                kinetic =    2.872379
    potential(screened) =   -1.444871
       potential(ionic) =   -5.563644
atom: Total number of Sankey-type orbitals: 13

atm_pop: Valence configuration (for local Pseudopot. screening):
 2s( 2.00)                                                            
 2p( 3.00)                                                            
Vna: chval, zval:    5.00000   5.00000

Vna:  Cut-off radius for the neutral-atom potential:   5.924108

atom: _________________________________________________________________________

<basis_specs>
===============================================================================
Si                   Z=  14    Mass=  28.090        Charge= 0.17977+309
Lmxo=1 Lmxkb= 3    BasisType=split      Semic=F
L=0  Nsemic=0  Cnfigmx=3
          i=1  nzeta=2  polorb=0  (3s)
            splnorm:   0.28000    
               vcte:    0.0000    
               rinn:    0.0000    
               qcoe:    0.0000    
               qyuk:    0.0000    
               qwid:   0.10000E-01
                rcs:    0.0000      0.0000    
            lambdas:    1.0000      1.0000    
L=1  Nsemic=0  Cnfigmx=3
          i=1  nzeta=2  polorb=1  (3p)
            splnorm:   0.28000    
               vcte:    0.0000    
               rinn:    0.0000    
               qcoe:    0.0000    
               qyuk:    0.0000    
               qwid:   0.10000E-01
                rcs:    0.0000      0.0000    
            lambdas:    1.0000      1.0000    
-------------------------------------------------------------------------------
L=0  Nkbl=1  erefs: 0.17977+309
L=1  Nkbl=1  erefs: 0.17977+309
L=2  Nkbl=1  erefs: 0.17977+309
L=3  Nkbl=1  erefs: 0.17977+309
===============================================================================
</basis_specs>

atom: Called for Si                    (Z =  14)

read_vps: Pseudopotential generation method:
read_vps: ATM4.2.7  Troullier-Martins                       
Valence charge for ps generation:    4.00000

xc_check: Exchange-correlation functional:
xc_check: GGA Perdew, Burke & Ernzerhof 1996
V l=0 = -2*Zval/r beyond r=  2.7826
V l=1 = -2*Zval/r beyond r=  2.7826
V l=2 = -2*Zval/r beyond r=  2.9253
V l=3 = -2*Zval/r beyond r=  2.7826
All V_l potentials equal beyond r=  2.8530
This should be close to max(r_c) in ps generation
All pots = -2*Zval/r beyond r=  2.9253

VLOCAL1: 99.0% of the norm of Vloc inside      5.333 Ry
VLOCAL1: 99.9% of the norm of Vloc inside     12.154 Ry
atom: Maximum radius for 4*pi*r*r*local-pseudopot. charge    3.39869
atom: Maximum radius for r*vlocal+2*Zval:    2.96205
GHOST: No ghost state for L =  0
GHOST: No ghost state for L =  1
GHOST: No ghost state for L =  2
GHOST: No ghost state for L =  3

KBgen: Kleinman-Bylander projectors: 
   l= 0   rc=  3.075247   el= -0.794092   Ekb=  5.879390   kbcos=  0.167461
   l= 1   rc=  3.153101   el= -0.300068   Ekb=  2.642817   kbcos=  0.058301
   l= 2   rc=  3.273594   el=  0.001958   Ekb= -1.185135   kbcos= -0.104411
   l= 3   rc=  3.232927   el=  0.003046   Ekb= -0.497174   kbcos= -0.015889

KBgen: Total number of Kleinman-Bylander projectors:   16
atom: -------------------------------------------------------------------------

atom: SANKEY-TYPE ORBITALS:
atom: Selected multiple-zeta basis: split     

SPLIT: Orbitals with angular momentum L= 0

SPLIT: Basis orbitals for state 3s

SPLIT: PAO cut-off radius determined from an
SPLIT: energy shift=  0.002000 Ry

   izeta = 1
                 lambda =    1.000000
                     rc =    6.429618
                 energy =   -0.792283
                kinetic =    0.525293
    potential(screened) =   -1.317576
       potential(ionic) =   -3.744923

   izeta = 2
                 rmatch =    3.998416
              splitnorm =    0.280000
                 energy =   -0.583081
                kinetic =    1.069570
    potential(screened) =   -1.652651
       potential(ionic) =   -4.235185

SPLIT: Orbitals with angular momentum L= 1

SPLIT: Basis orbitals for state 3p

SPLIT: PAO cut-off radius determined from an
SPLIT: energy shift=  0.002000 Ry

   izeta = 1
                 lambda =    1.000000
                     rc =    8.464845
                 energy =   -0.298236
                kinetic =    0.785360
    potential(screened) =   -1.083596
       potential(ionic) =   -3.273779

   izeta = 2
                 rmatch =    4.587816
              splitnorm =    0.280000
                 energy =   -0.131871
                kinetic =    1.403687
    potential(screened) =   -1.535557
       potential(ionic) =   -4.015310

POLgen: Perturbative polarization orbital with L=  2

POLgen: Polarization orbital for state 3p

   izeta = 1
                     rc =    8.464845
                 energy =    0.321949
                kinetic =    1.055677
    potential(screened) =   -0.733728
       potential(ionic) =   -2.672950
atom: Total number of Sankey-type orbitals: 13

atm_pop: Valence configuration (for local Pseudopot. screening):
 3s( 2.00)                                                            
 3p( 2.00)                                                            
Vna: chval, zval:    4.00000   4.00000

Vna:  Cut-off radius for the neutral-atom potential:   8.464845

atom: _________________________________________________________________________

<basis_specs>
===============================================================================
O                    Z=   8    Mass=  16.000        Charge= 0.17977+309
Lmxo=1 Lmxkb= 3    BasisType=split      Semic=F
L=0  Nsemic=0  Cnfigmx=2
          i=1  nzeta=2  polorb=0  (2s)
            splnorm:   0.28000    
               vcte:    0.0000    
               rinn:    0.0000    
               qcoe:    0.0000    
               qyuk:    0.0000    
               qwid:   0.10000E-01
                rcs:    0.0000      0.0000    
            lambdas:    1.0000      1.0000    
L=1  Nsemic=0  Cnfigmx=2
          i=1  nzeta=2  polorb=1  (2p)
            splnorm:   0.28000    
               vcte:    0.0000    
               rinn:    0.0000    
               qcoe:    0.0000    
               qyuk:    0.0000    
               qwid:   0.10000E-01
                rcs:    0.0000      0.0000    
            lambdas:    1.0000      1.0000    
-------------------------------------------------------------------------------
L=0  Nkbl=1  erefs: 0.17977+309
L=1  Nkbl=1  erefs: 0.17977+309
L=2  Nkbl=1  erefs: 0.17977+309
L=3  Nkbl=1  erefs: 0.17977+309
===============================================================================
</basis_specs>

atom: Called for O                     (Z =   8)

read_vps: Pseudopotential generation method:
read_vps: ATM4.2.7  Troullier-Martins                       
Valence charge for ps generation:    6.00000

xc_check: Exchange-correlation functional:
xc_check: GGA Perdew, Burke & Ernzerhof 1996
V l=0 = -2*Zval/r beyond r=  1.1000
V l=1 = -2*Zval/r beyond r=  1.1000
V l=2 = -2*Zval/r beyond r=  2.2154
V l=3 = -2*Zval/r beyond r=  1.1000
All V_l potentials equal beyond r=  2.2154
This should be close to max(r_c) in ps generation
All pots = -2*Zval/r beyond r=  2.2154

VLOCAL1: 99.0% of the norm of Vloc inside      8.845 Ry
VLOCAL1: 99.9% of the norm of Vloc inside     20.157 Ry
atom: Maximum radius for 4*pi*r*r*local-pseudopot. charge    2.67231
atom: Maximum radius for r*vlocal+2*Zval:    2.32897
GHOST: No ghost state for L =  0
GHOST: No ghost state for L =  1
GHOST: No ghost state for L =  2
GHOST: No ghost state for L =  3

KBgen: Kleinman-Bylander projectors: 
   l= 0   rc=  2.243238   el= -1.759686   Ekb=**********   kbcos= -0.171774
   l= 1   rc=  2.328968   el= -0.663873   Ekb=-14.506792   kbcos= -0.519897
   l= 2   rc=  2.573941   el=  0.002031   Ekb= -1.137373   kbcos= -0.019581
   l= 3   rc=  2.606321   el=  0.003153   Ekb= -1.013546   kbcos= -0.003122

KBgen: Total number of Kleinman-Bylander projectors:   16
atom: -------------------------------------------------------------------------

atom: SANKEY-TYPE ORBITALS:
atom: Selected multiple-zeta basis: split     

SPLIT: Orbitals with angular momentum L= 0

SPLIT: Basis orbitals for state 2s

SPLIT: PAO cut-off radius determined from an
SPLIT: energy shift=  0.002000 Ry

   izeta = 1
                 lambda =    1.000000
                     rc =    4.243912
                 energy =   -1.758270
                kinetic =    3.286084
    potential(screened) =   -5.044353
       potential(ionic) =  -12.921184

   izeta = 2
                 rmatch =    2.187845
              splitnorm =    0.280000
                 energy =   -0.885018
                kinetic =    8.134434
    potential(screened) =   -9.019452
       potential(ionic) =  -17.710645

SPLIT: Orbitals with angular momentum L= 1

SPLIT: Basis orbitals for state 2p

SPLIT: PAO cut-off radius determined from an
SPLIT: energy shift=  0.002000 Ry

   izeta = 1
                 lambda =    1.000000
                     rc =    5.314825
                 energy =   -0.661986
                kinetic =    4.917472
    potential(screened) =   -5.579458
       potential(ionic) =  -13.236259

   izeta = 2
                 rmatch =    2.160663
              splitnorm =    0.280000
                 energy =   -0.068760
                kinetic =    9.183374
    potential(screened) =   -9.252135
       potential(ionic) =  -18.274251

POLgen: Perturbative polarization orbital with L=  2

POLgen: Polarization orbital for state 2p

   izeta = 1
                     rc =    5.314825
                 energy =    1.970580
                kinetic =    3.886128
    potential(screened) =   -1.915547
       potential(ionic) =   -7.749584
atom: Total number of Sankey-type orbitals: 13

atm_pop: Valence configuration (for local Pseudopot. screening):
 2s( 2.00)                                                            
 2p( 4.00)                                                            
Vna: chval, zval:    6.00000   6.00000

Vna:  Cut-off radius for the neutral-atom potential:   5.314825

atom: _________________________________________________________________________

prinput: Basis input ----------------------------------------------------------

PAO.BasisType split     

%block ChemicalSpeciesLabel
    1    1 H                       # Species index, atomic number, species label
    2    7 N                       # Species index, atomic number, species label
    3   14 Si                      # Species index, atomic number, species label
    4    8 O                       # Species index, atomic number, species label
%endblock ChemicalSpeciesLabel

%block PAO.Basis                 # Define Basis set
H                     1                    # Species label, number of l-shells
 n=1   0   2 P   1                   # n, l, Nzeta, Polarization, NzetaPol
   6.518      2.141   
   1.000      1.000   
N                     2                    # Species label, number of l-shells
 n=2   0   2                         # n, l, Nzeta 
   4.730      2.532   
   1.000      1.000   
 n=2   1   2 P   1                   # n, l, Nzeta, Polarization, NzetaPol
   5.924      2.532   
   1.000      1.000   
Si                    2                    # Species label, number of l-shells
 n=3   0   2                         # n, l, Nzeta 
   6.430      3.998   
   1.000      1.000   
 n=3   1   2 P   1                   # n, l, Nzeta, Polarization, NzetaPol
   8.465      4.588   
   1.000      1.000   
O                     2                    # Species label, number of l-shells
 n=2   0   2                         # n, l, Nzeta 
   4.244      2.188   
   1.000      1.000   
 n=2   1   2 P   1                   # n, l, Nzeta, Polarization, NzetaPol
   5.315      2.161   
   1.000      1.000   
%endblock PAO.Basis

prinput: ----------------------------------------------------------------------

Dumping basis to NetCDF file H.ion.nc
Dumping basis to NetCDF file N.ion.nc
Dumping basis to NetCDF file Si.ion.nc
Dumping basis to NetCDF file O.ion.nc
coor:   Atomic-coordinates input format  =     Cartesian coordinates
coor:                                          (in Angstroms)

siesta: Atomic coordinates (Bohr) and species
siesta:      4.87999 -10.91663   0.00000  1        1
siesta:      3.12704  -9.95765   0.00000  2        2
siesta:      0.11930 -11.53056   0.00000  3        3
siesta:      0.22530 -14.35597   0.00000  1        4
siesta:     -2.60195  -9.79371   0.00000  2        5
siesta:     -1.55784  -6.54009   0.00000  3        6
siesta:     -2.21206  -2.39996   0.00000  3        7
siesta:     -5.11537  -0.78899   0.00000  2        8
siesta:     -5.20538   1.19971   0.00000  1        9
siesta:     -6.87421  -1.71959   0.00000  1       10
siesta:      0.41213  -0.44256   0.00000  2       11
siesta:      3.53758  -1.31745   0.00000  3       12
siesta:      5.34415   0.87204   0.00000  1       13
siesta:      5.00428  -4.26138   0.00000  2       14
siesta:      2.63035  -6.52849   0.00000  3       15
siesta:      3.52783  12.58098   0.00000  2       16
siesta:      1.01946  14.86794   0.00000  3       17
siesta:      2.22889  17.44046   0.00000  1       18
siesta:     -2.92203  13.60082   0.00000  3       19
siesta:     -6.75735  15.73643   0.00000  3       20
siesta:     -6.46588  17.92895   1.77692  1       21
siesta:     -8.62049  13.80528   0.96870  1       22
siesta:     -7.54388  16.63637  -2.58265  1       23
siesta:     -2.79637   9.30362   0.00000  3       24
siesta:     -4.75989   7.04907   0.00000  4       25
siesta:      0.33489   8.10558   0.00000  2       26
siesta:      0.30084   6.09785   0.00000  1       27
siesta:      3.40306   9.23388   0.00000  3       28
siesta:      5.66131   7.31690   0.00000  4       29
siesta:      5.41763  13.23390   0.00000  1       30

siesta: Automatic unit cell vectors (Ang):
siesta:   15.847303    0.000000    0.000000
siesta:    0.000000   26.381462    0.000000
siesta:    0.000000    0.000000   10.224979

siesta: System type = molecule  

initatomlists: Number of atoms, orbitals, and projectors:     30   302   403

siesta: ******************** Simulation parameters ****************************
siesta:
siesta: The following are some of the parameters of the simulation.
siesta: A complete list of the parameters used, including default values,
siesta: can be found in file out.fdf
siesta:
redata: Spin configuration                          = spin-orbit
redata: Number of spin components                   = 8
redata: Time-Reversal Symmetry                      = F
redata: Spin spiral                                 = F
############################################################
This spin-orbit implementation uses a local approximation.
From 4.2 and onwards the full non-local approximation is implemented
You are strongly advised to use >=4.2 versions!
############################################################
redata: Long output                                 =   F
redata: Number of Atomic Species                    =        4
redata: Charge density info will appear in .RHO file
redata: Write Mulliken Pop.                         = Atomic and Orbital charges
redata: Matel table size (NRTAB)                    =     1024
redata: Mesh Cutoff                                 =   340.0000 Ry
redata: Net charge of the system                    =     0.0000 |e|
redata: Min. number of SCF Iter                     =        1
redata: Max. number of SCF Iter                     =      200
redata: SCF mix quantity                            = Hamiltonian
redata: Mix DM or H after convergence               =   F
redata: Recompute H after scf cycle                 =   F
redata: Mix DM in first SCF step                    =   T
redata: Write Pulay info on disk                    =   F
redata: New DM Occupancy tolerance                  = 0.000000000001
redata: No kicks to SCF
redata: DM Mixing Weight for Kicks                  =     0.5000
redata: Require Harris convergence for SCF          =   F
redata: Harris energy tolerance for SCF             =     0.000100 eV
redata: Require DM convergence for SCF              =   T
redata: DM tolerance for SCF                        =     0.000008
redata: Require EDM convergence for SCF             =   F
redata: EDM tolerance for SCF                       =     0.001000 eV
redata: Require H convergence for SCF               =   T
redata: Hamiltonian tolerance for SCF               =     0.000001 eV
redata: Require (free) Energy convergence for SCF   =   F
redata: (free) Energy tolerance for SCF             =     0.000100 eV
redata: Using Saved Data (generic)                  =   F
redata: Use continuation files for DM               =   F
redata: Neglect nonoverlap interactions             =   F
redata: Method of Calculation                       = Diagonalization
redata: Electronic Temperature                      =   299.9978 K
redata: Fix the spin of the system                  =   F
redata: Dynamics option                             = Single-point calculation
mix.SCF: Pulay mixing                            = Pulay
mix.SCF:    Variant                              = stable
mix.SCF:    History steps                        = 6
mix.SCF:    Linear mixing weight                 =     0.250000
mix.SCF:    Mixing weight                        =     0.250000
mix.SCF:    SVD condition                        = 0.1000E-07
mix.SCF:    Restart steps                        = 24
mix.SCF:    Restart save steps                   = 3
mix.SCF: Spin-component mixing                   all
redata: Save all siesta data in one NC              =   F
redata: ***********************************************************************

%block SCF.Mixers
  Pulay
%endblock SCF.Mixers

%block SCF.Mixer.Pulay
  # Mixing method
  method pulay
  variant stable

  # Mixing options
  weight 0.2500
  weight.linear 0.2500
  history 6
  restart 24
  restart.save 3
%endblock SCF.Mixer.Pulay

DM_history_depth set to one: no extrapolation allowed by default for geometry relaxation
Size of DM history Fstack: 1
Total number of electrons:    98.000000
Total ionic charge:    98.000000

* ProcessorY, Blocksize:    2  24


* Orbital distribution balance (max,min):    62    48


Time-reversal symmetry not used.

siesta: k-grid: Number of k-points =     1
siesta: k-grid: Cutoff (effective) =     5.112 Ang
siesta: k-grid: Supercell and displacements
siesta: k-grid:    1   0   0      0.000
siesta: k-grid:    0   1   0      0.000
siesta: k-grid:    0   0   1      0.000

diag: Algorithm                                     = ELPA-1stage
diag: Parallel over k                               =   F
diag: Use parallel 2D distribution                  =   T
diag: Parallel block-size                           = 24
diag: Parallel distribution                         =     2 x     3
diag: Used triangular part                          = Lower
diag: Absolute tolerance                            =  0.100E-15
diag: Orthogonalization factor                      =  0.100E-05
diag: Memory factor                                 =  1.0000


ts: **************************************************************
ts: Save H and S matrices                           =    F
ts: Save DM and EDM matrices                        =    F
ts: Only save the overlap matrix S                  =    F
ts: **************************************************************

************************ Begin: TS CHECKS AND WARNINGS ************************
************************ End: TS CHECKS AND WARNINGS **************************


                     ====================================
                        Single-point calculation
                     ====================================

outcoor: Atomic coordinates (Ang):                          
    2.58237765   -5.77683044    0.00000000   1       1  H
    1.65475924   -5.26936198    0.00000000   2       2  N
    0.06312884   -6.10170459    0.00000000   3       3  Si
    0.11922324   -7.59684950    0.00000000   1       4  H
   -1.37689205   -5.18260374    0.00000000   2       5  N
   -0.82437190   -3.46086644    0.00000000   3       6  Si
   -1.17057148   -1.27000210    0.00000000   3       7  Si
   -2.70693368   -0.41751578    0.00000000   2       8  N
   -2.75456966    0.63485862    0.00000000   1       9  H
   -3.63767564   -0.90996786    0.00000000   1      10  H
    0.21809179   -0.23419397    0.00000000   2      11  N
    1.87200410   -0.69716230    0.00000000   3      12  Si
    2.82800113    0.46146477    0.00000000   1      13  H
    2.64815008   -2.25502447    0.00000000   2      14  N
    1.39192138   -3.45472722    0.00000000   3      15  Si
    1.86684807    6.65756718    0.00000000   2      16  N
    0.53947655    7.86777148    0.00000000   3      17  Si
    1.17947782    9.22908972    0.00000000   1      18  H
   -1.54626939    7.19724013    0.00000000   3      19  Si
   -3.57583199    8.32735632    0.00000000   3      20  Si
   -3.42159622    9.48758653    0.94030528   1      21  H
   -4.56176671    7.30543570    0.51261370   1      22  H
   -3.99204695    8.80358217   -1.36667834   1      23  H
   -1.47977397    4.92326351    0.00000000   3      24  Si
   -2.51882270    3.73020401    0.00000000   4      25  O
    0.17721761    4.28928832    0.00000000   2      26  N
    0.15920024    3.22684349    0.00000000   1      27  H
    1.80082068    4.88635853    0.00000000   3      28  Si
    2.99583685    3.87193333    0.00000000   4      29  O
    2.86688544    7.00307428    0.00000000   1      30  H

outcell: Unit cell vectors (Ang):
       15.847303    0.000000    0.000000
        0.000000   26.381462    0.000000
        0.000000    0.000000   10.224979

outcell: Cell vector modules (Ang)   :   15.847303   26.381462   10.224979
outcell: Cell angles (23,13,12) (deg):     90.0000     90.0000     90.0000
outcell: Cell volume (Ang**3)        :   4274.8085
<dSpData1D:S at geom step 0
  <sparsity:sparsity for geom step 0
    nrows_g=302 nrows=62 sparsity=.1220 nnzs=11127, refcount: 8>
  <dData1D:(new from dSpData1D) n=11127, refcount: 1>
refcount: 1>
new_DM -- step:     1
Initializing Density Matrix...
DM filled with atomic data:
<dSpData2D:DM initialized from atoms
  <sparsity:sparsity for geom step 0
    nrows_g=302 nrows=62 sparsity=.1220 nnzs=11127, refcount: 9>
  <dData2D:DM n=11127 m=8, refcount: 1>
refcount: 1>
     spin moment: S , {S} =   56.00000   0.00000   0.00000  56.00000
No. of atoms with KB's overlaping orbs in proc 0. Max # of overlaps:      24     168

Initializing spin-orbit part of the Hamiltonian
  Adding spin-orbit effects for H 
  Adding spin-orbit effects for N 
  Adding spin-orbit effects for Si
  Adding spin-orbit effects for O 


New grid distribution:   1
           1       1:   90    1:   75    1:   20
           2       1:   90    1:   75   21:   40
           3       1:   90    1:   75   41:   60
           4       1:   90   76:  150    1:   20
           5       1:   90   76:  150   21:   40
           6       1:   90   76:  150   41:   60

InitMesh: MESH =   180 x   300 x   120 =     6480000
InitMesh: (bp) =    90 x   150 x    60 =      810000
InitMesh: Mesh cutoff (required, used) =   340.000   356.563 Ry
ExtMesh (bp) on 0 =   194 x   179 x   128 =     4444928
New grid distribution:   2
           1      14:   90   31:   50    1:   60
           2       1:   12   51:  150    1:   60
           3       1:   13    1:   50    1:   60
           4      13:   90   51:  129    1:   60
           5      14:   90    1:   30    1:   60
           6      13:   90  130:  150    1:   60
New grid distribution:   3
           1       1:   18   57:  150    1:   60
           2      23:   90   33:   56    1:   60
           3       1:   22    1:   56    1:   60
           4      19:   90   57:  122    1:   60
           5      23:   90    1:   32    1:   60
           6      19:   90  123:  150    1:   60
Setting up quadratic distribution...
ExtMesh (bp) on 0 =   181 x   124 x   168 =     3770592
PhiOnMesh: Number of (b)points on node 0 =                92400
PhiOnMesh: nlist on node 0 =              1741798

stepf: Fermi-Dirac step function

siesta: Program's energy decomposition (eV):
siesta: Ebs     =      -624.440667
siesta: Eions   =      3553.971015
siesta: Ena     =       377.796288
siesta: Ekin    =      3181.566238
siesta: Enl     =     -2996.750538
siesta: Eso     =        -0.003910
siesta: Edftu   =         0.000000
siesta: DEna    =       130.269240
siesta: DUscf   =        76.110892
siesta: DUext   =         0.000000
siesta: Exc     =     -1170.957798
siesta: eta*DQ  =         0.000000
siesta: Emadel  =         0.000000
siesta: Emeta   =         0.000000
siesta: Emolmec =         0.000000
siesta: Ekinion =         0.000000
siesta: Eharris =     -3884.084522
siesta: Etot    =     -3955.940603
siesta: FreeEng =     -3955.944791

        iscf     Eharris(eV)        E_KS(eV)     FreeEng(eV)     dDmax    Ef(eV) dHmax(eV)
   scf:    1    -3884.084522    -3955.940603    -3955.944791  0.971492 -4.940698 21.424920
     spin moment: S , {S} =    2.03159   0.00003   0.00001   2.03159
timer: Routine,Calls,Time,% = IterSCF        1       5.556  21.68
   scf:    2    -3999.079128    -3989.981526    -3989.981527  0.456905 -4.353607 10.446219
     spin moment: S , {S} =    2.00011  -0.00001   0.00004   2.00011
   scf:    3    -3988.261669    -3994.210569    -3994.241908  0.416618 -4.247456  8.038442
     spin moment: S , {S} =    0.56542   0.00001   0.00000   0.56542
   scf:    4    -4000.061548    -3997.639913    -3997.639913  0.094343 -3.943995  5.270218
     spin moment: S , {S} =    0.00010   0.00001  -0.00000   0.00009
   scf:    5    -3999.067617    -3998.397678    -3998.397679  0.031167 -3.872629  2.774456
     spin moment: S , {S} =    0.00005   0.00000  -0.00000   0.00005
   scf:    6    -3998.994608    -3998.703250    -3998.703250  0.024732 -3.891395  1.475380
     spin moment: S , {S} =    0.00003   0.00000  -0.00000   0.00003
   scf:    7    -3998.991042    -3998.841555    -3998.841555  0.020364 -3.939320  0.607007
     spin moment: S , {S} =    0.00001   0.00000  -0.00000   0.00001
   scf:    8    -3998.927382    -3998.882796    -3998.882799  0.009813 -3.969714  0.317021
     spin moment: S , {S} =    0.00000   0.00000  -0.00000  -0.00000
   scf:    9    -3998.922472    -3998.901550    -3998.901565  0.007316 -3.983369  0.192160
     spin moment: S , {S} =    0.00003   0.00000  -0.00000  -0.00003
   scf:   10    -3998.933059    -3998.915088    -3998.915180  0.011723 -3.992370  0.098845
     spin moment: S , {S} =    0.00021   0.00000   0.00000  -0.00021
   scf:   11    -3998.919190    -3998.916991    -3998.917089  0.004598 -3.987725  0.038501
     spin moment: S , {S} =    0.00006   0.00000   0.00000  -0.00006
   scf:   12    -3998.918263    -3998.917591    -3998.917693  0.002332 -3.986912  0.031445
     spin moment: S , {S} =    0.00002   0.00000   0.00000  -0.00002
   scf:   13    -3998.918360    -3998.917950    -3998.918053  0.001994 -3.986004  0.025670
     spin moment: S , {S} =    0.00001   0.00000   0.00000  -0.00001
   scf:   14    -3998.918717    -3998.918279    -3998.918382  0.002869 -3.985187  0.015096
     spin moment: S , {S} =    0.00001   0.00000   0.00000  -0.00001
   scf:   15    -3998.918502    -3998.918374    -3998.918477  0.001668 -3.984944  0.008690
     spin moment: S , {S} =    0.00001   0.00000   0.00000  -0.00001
   scf:   16    -3998.918438    -3998.918401    -3998.918503  0.000941 -3.985142  0.004226
     spin moment: S , {S} =    0.00001   0.00000   0.00000  -0.00001
   scf:   17    -3998.918421    -3998.918409    -3998.918511  0.000586 -3.985288  0.002626
     spin moment: S , {S} =    0.00000   0.00000   0.00000  -0.00000
   scf:   18    -3998.918414    -3998.918411    -3998.918513  0.000256 -3.985384  0.001434
     spin moment: S , {S} =    0.00000   0.00000   0.00000  -0.00000
   scf:   19    -3998.918413    -3998.918412    -3998.918513  0.000120 -3.985384  0.000926
     spin moment: S , {S} =    0.00000   0.00000   0.00000  -0.00000
   scf:   20    -3998.918413    -3998.918412    -3998.918514  0.000117 -3.985374  0.000512
     spin moment: S , {S} =    0.00000   0.00000   0.00000   0.00000
   scf:   21    -3998.918413    -3998.918413    -3998.918514  0.000093 -3.985368  0.000359
     spin moment: S , {S} =    0.00000   0.00000   0.00000  -0.00000
   scf:   22    -3998.918413    -3998.918413    -3998.918514  0.000043 -3.985377  0.000243
     spin moment: S , {S} =    0.00000   0.00000   0.00000  -0.00000
   scf:   23    -3998.918413    -3998.918413    -3998.918514  0.000016 -3.985388  0.000165
     spin moment: S , {S} =    0.00000   0.00000   0.00000  -0.00000
   scf:   24    -3998.918413    -3998.918413    -3998.918514  0.000010 -3.985391  0.000121
     spin moment: S , {S} =    0.00000   0.00000   0.00000  -0.00000
mix: Pulay -- resetting history
   scf:   25    -3998.918413    -3998.918413    -3998.918514  0.000015 -3.985391  0.000054
     spin moment: S , {S} =    0.00000   0.00000   0.00000  -0.00000
   scf:   26    -3998.918413    -3998.918413    -3998.918514  0.000008 -3.985388  0.000017
     spin moment: S , {S} =    0.00000   0.00000   0.00000  -0.00000
   scf:   27    -3998.918413    -3998.918413    -3998.918514  0.000002 -3.985387  0.000008
     spin moment: S , {S} =    0.00000   0.00000   0.00000  -0.00000
   scf:   28    -3998.918413    -3998.918413    -3998.918514  0.000001 -3.985387  0.000005
     spin moment: S , {S} =    0.00000   0.00000   0.00000  -0.00000
   scf:   29    -3998.918413    -3998.918413    -3998.918514  0.000001 -3.985387  0.000003
     spin moment: S , {S} =    0.00000   0.00000   0.00000  -0.00000
   scf:   30    -3998.918413    -3998.918413    -3998.918514  0.000000 -3.985387  0.000002
     spin moment: S , {S} =    0.00000  -0.00000  -0.00000  -0.00000
   scf:   31    -3998.918413    -3998.918413    -3998.918514  0.000000 -3.985387  0.000001
     spin moment: S , {S} =    0.00000  -0.00000  -0.00000  -0.00000
   scf:   32    -3998.918413    -3998.918413    -3998.918514  0.000000 -3.985387  0.000001
     spin moment: S , {S} =    0.00000  -0.00000  -0.00000  -0.00000
   scf:   33    -3998.918413    -3998.918413    -3998.918514  0.000000 -3.985387  0.000001
     spin moment: S , {S} =    0.00000  -0.00000   0.00000  -0.00000

SCF Convergence by DM+H criterion
max |DM_out - DM_in|         :     0.0000001172
max |H_out - H_in|      (eV) :     0.0000006299
SCF cycle converged after 33 iterations

Using DM_out to compute the final energy and forces
No. of atoms with KB's overlaping orbs in proc 0. Max # of overlaps:      24     168

siesta: E_KS(eV) =            -3998.9184

siesta: E_KS - E_eggbox =     -3998.9184
     spin moment: S , {S} =    0.00000  -0.00000   0.00000  -0.00000

siesta: Atomic forces (eV/Ang):
     1   -0.032171   -0.010338    0.000002
     2   -0.024395   -0.039649   -0.000003
     3    0.000639    0.044426    0.000003
     4   -0.023604    0.007068    0.000001
     5    0.008463   -0.040138   -0.000004
     6    0.046110    0.004718    0.000003
     7   -0.202286    0.136901    0.000018
     8    0.106642   -0.092985   -0.000076
     9    0.035358    0.064280    0.000127
    10    0.098203    0.075677    0.000014
    11   -0.018153    0.039896   -0.000023
    12    0.132995    0.091393   -0.000003
    13   -0.113744   -0.133295   -0.000002
    14   -0.030068   -0.058601    0.000003
    15   -0.000652    0.062204   -0.000002
    16    0.010776    0.089655    0.008019
    17    0.009882   -0.058801   -0.039868
    18   -0.132370    0.075949    0.008320
    19   -0.017900    0.024715   -0.041186
    20    0.041666   -0.047802    0.026334
    21   -0.210930    0.231698    0.050406
    22   -0.131593    0.005678    0.020755
    23    0.075521    0.006724   -0.050082
    24    0.126192   -0.117162   -0.026546
    25   -3.846514   -2.540022    0.003041
    26   -0.066746    0.092716    0.006576
    27    0.052884   -0.130465    0.002809
    28   -0.040399   -0.140166   -0.000869
    29    0.087751   -0.471471   -0.001097
    30    0.050359    0.177635    0.008252
----------------------------------------
   Tot   -4.008085   -2.649564   -0.025077
----------------------------------------
   Max    3.846514
   Res    0.493783    sqrt( Sum f_i^2 / 3N )
----------------------------------------
   Max    3.846514    constrained

Stress tensor Voigt[x,y,z,yz,xz,xy] (kbar):       -1.80       -0.25       -0.23       -0.05        0.05        0.30
(Free)E + p*V (eV/cell)    -3996.8939
Target enthalpy (eV/cell)    -3998.9185

mulliken: Atomic and Orbital Populations:

Species: H                   

Atom      Orb        Charge      Spin       Svec
----------------------------------------------------------------
    1  1 1s         0.50893   0.00000     -0.000   0.000  -0.000
    1  2 1s         0.18800   0.00000      0.000  -0.000  -0.000
    1  3 2Ppy       0.02799   0.00000     -0.000   0.000  -0.000
    1  4 2Ppz       0.04005   0.00000     -0.000  -0.000   0.000
    1  5 2Ppx       0.02508   0.00000      0.000  -0.000  -0.000
    1     Total     0.79004   0.00000     -0.000   0.000  -0.000

    4  1 1s         1.02440   0.00000      0.000  -0.000   0.000
    4  2 1s         0.09499   0.00000      0.000   0.000  -0.000
    4  3 2Ppy       0.03900   0.00000     -0.000  -0.000   0.000
    4  4 2Ppz       0.01997   0.00000      0.000   0.000  -0.000
    4  5 2Ppx       0.01357   0.00000      0.000   0.000   0.000
    4     Total     1.19193   0.00000      0.000  -0.000   0.000

    9  1 1s         0.47131   0.00000      0.000  -0.000  -0.000
    9  2 1s         0.19605   0.00000     -0.000   0.000   0.000
    9  3 2Ppy       0.02897   0.00000      0.000   0.000   0.000
    9  4 2Ppz       0.04668   0.00000     -0.000   0.000  -0.000
    9  5 2Ppx       0.01148   0.00000      0.000  -0.000  -0.000
    9     Total     0.75449   0.00000      0.000  -0.000  -0.000

   10  1 1s         0.48392   0.00000      0.000  -0.000  -0.000
   10  2 1s         0.19576   0.00000     -0.000   0.000  -0.000
   10  3 2Ppy       0.00700   0.00000      0.000  -0.000  -0.000
   10  4 2Ppz       0.05304   0.00000     -0.000  -0.000   0.000
   10  5 2Ppx       0.02934   0.00000      0.000   0.000   0.000
   10     Total     0.76906   0.00000      0.000  -0.000  -0.000

   13  1 1s         0.99898   0.00000     -0.000  -0.000   0.000
   13  2 1s         0.10130   0.00000     -0.000  -0.000   0.000
   13  3 2Ppy       0.02806   0.00000      0.000   0.000  -0.000
   13  4 2Ppz       0.01409   0.00000      0.000   0.000  -0.000
   13  5 2Ppx       0.01783   0.00000     -0.000   0.000   0.000
   13     Total     1.16026   0.00000     -0.000  -0.000   0.000

   18  1 1s         1.04988   0.00000     -0.000   0.000   0.000
   18  2 1s         0.08382   0.00000      0.000  -0.000  -0.000
   18  3 2Ppy       0.02785   0.00000     -0.000   0.000   0.000
   18  4 2Ppz       0.01889   0.00000      0.000  -0.000  -0.000
   18  5 2Ppx       0.01764   0.00000      0.000  -0.000   0.000
   18     Total     1.19808   0.00000     -0.000   0.000   0.000

   21  1 1s         1.06624   0.00000      0.000  -0.000   0.000
   21  2 1s         0.08280   0.00000     -0.000   0.000  -0.000
   21  3 2Ppy       0.02230   0.00000     -0.000   0.000  -0.000
   21  4 2Ppz       0.02109   0.00000     -0.000  -0.000   0.000
   21  5 2Ppx       0.01157   0.00000     -0.000  -0.000  -0.000
   21     Total     1.20400   0.00000     -0.000  -0.000   0.000

   22  1 1s         1.05229   0.00000     -0.000   0.000   0.000
   22  2 1s         0.08360   0.00000      0.000  -0.000   0.000
   22  3 2Ppy       0.02009   0.00000      0.000  -0.000   0.000
   22  4 2Ppz       0.01769   0.00000     -0.000  -0.000   0.000
   22  5 2Ppx       0.01709   0.00000      0.000   0.000  -0.000
   22     Total     1.19076   0.00000     -0.000   0.000   0.000

   23  1 1s         1.06483   0.00000      0.000   0.000   0.000
   23  2 1s         0.08215   0.00000     -0.000  -0.000  -0.000
   23  3 2Ppy       0.01685   0.00000      0.000  -0.000  -0.000
   23  4 2Ppz       0.02463   0.00000     -0.000   0.000   0.000
   23  5 2Ppx       0.01347   0.00000      0.000  -0.000  -0.000
   23     Total     1.20193   0.00000      0.000   0.000   0.000

   27  1 1s         0.46045   0.00000      0.000   0.000   0.000
   27  2 1s         0.19079   0.00000     -0.000  -0.000  -0.000
   27  3 2Ppy       0.02353   0.00000     -0.000  -0.000  -0.000
   27  4 2Ppz       0.02424   0.00000     -0.000  -0.000   0.000
   27  5 2Ppx       0.02865   0.00000      0.000   0.000   0.000
   27     Total     0.72765   0.00000     -0.000   0.000   0.000

   30  1 1s         0.48384   0.00000     -0.000   0.000  -0.000
   30  2 1s         0.18895   0.00000     -0.000  -0.000   0.000
   30  3 2Ppy       0.02674   0.00000      0.000  -0.000  -0.000
   30  4 2Ppz       0.03449   0.00000      0.000  -0.000   0.000
   30  5 2Ppx       0.02328   0.00000      0.000  -0.000  -0.000
   30     Total     0.75730   0.00000     -0.000  -0.000  -0.000

----------------------------------------------------------------
Total              10.94550   0.00000      0.000  -0.000   0.000


Species: N                   

Atom      Orb        Charge      Spin       Svec
----------------------------------------------------------------
    2  1 2s         1.38079   0.00000      0.000   0.000   0.000
    2  2 2s         0.12677   0.00000     -0.000  -0.000  -0.000
    2  3 2py        1.06858   0.00000      0.000  -0.000   0.000
    2  4 2pz        1.49519   0.00000      0.000   0.000   0.000
    2  5 2px        1.01714   0.00000     -0.000  -0.000   0.000
    2  6 2py        0.19589   0.00000     -0.000  -0.000  -0.000
    2  7 2pz        0.01434   0.00000     -0.000  -0.000  -0.000
    2  8 2px        0.21005   0.00000      0.000   0.000  -0.000
    2  9 3Pdxy      0.00676   0.00000     -0.000   0.000  -0.000
    2 10 3Pdyz      0.00608   0.00000     -0.000   0.000  -0.000
    2 11 3Pdz2      0.00152   0.00000      0.000   0.000  -0.000
    2 12 3Pdxz      0.00304   0.00000     -0.000   0.000  -0.000
    2 13 3Pdx2-y2   0.00297   0.00000      0.000   0.000  -0.000
    2     Total     5.52913   0.00000      0.000   0.000   0.000

    5  1 2s         1.55792   0.00000     -0.000  -0.000   0.000
    5  2 2s         0.08126   0.00000      0.000   0.000   0.000
    5  3 2py        0.90445   0.00000      0.000   0.000   0.000
    5  4 2pz        1.22247   0.00000      0.000  -0.000   0.000
    5  5 2px        1.14233   0.00000      0.000   0.000   0.000
    5  6 2py        0.23006   0.00000     -0.000  -0.000  -0.000
    5  7 2pz        0.05522   0.00000      0.000   0.000  -0.000
    5  8 2px        0.14618   0.00000     -0.000  -0.000  -0.000
    5  9 3Pdxy      0.00854   0.00000      0.000   0.000   0.000
    5 10 3Pdyz      0.00703   0.00000     -0.000  -0.000  -0.000
    5 11 3Pdz2      0.00189   0.00000     -0.000  -0.000  -0.000
    5 12 3Pdxz      0.01128   0.00000      0.000   0.000  -0.000
    5 13 3Pdx2-y2   0.00920   0.00000      0.000   0.000   0.000
    5     Total     5.37783   0.00000      0.000  -0.000   0.000

    8  1 2s         1.28216   0.00000     -0.000  -0.000  -0.000
    8  2 2s         0.17278   0.00000      0.000   0.000   0.000
    8  3 2py        1.06937   0.00000     -0.000   0.000   0.000
    8  4 2pz        1.56698   0.00000      0.000  -0.000   0.000
    8  5 2px        1.00249   0.00000     -0.000   0.000   0.000
    8  6 2py        0.19401   0.00000      0.000  -0.000   0.000
    8  7 2pz        0.02715   0.00000     -0.000   0.000   0.000
    8  8 2px        0.22875   0.00000      0.000  -0.000  -0.000
    8  9 3Pdxy      0.00274   0.00000      0.000  -0.000   0.000
    8 10 3Pdyz      0.00084   0.00000      0.000   0.000  -0.000
    8 11 3Pdz2      0.00267   0.00000      0.000  -0.000  -0.000
    8 12 3Pdxz      0.00242   0.00000      0.000   0.000   0.000
    8 13 3Pdx2-y2   0.00414   0.00000     -0.000  -0.000  -0.000
    8     Total     5.55650   0.00000     -0.000   0.000   0.000

   11  1 2s         1.45862   0.00000      0.000  -0.000   0.000
   11  2 2s         0.11335   0.00000     -0.000   0.000   0.000
   11  3 2py        1.23450   0.00000      0.000   0.000   0.000
   11  4 2pz        1.29339   0.00000      0.000   0.000   0.000
   11  5 2px        0.80263   0.00000      0.000   0.000   0.000
   11  6 2py        0.10572   0.00000     -0.000  -0.000   0.000
   11  7 2pz        0.04471   0.00000     -0.000  -0.000   0.000
   11  8 2px        0.31686   0.00000     -0.000   0.000  -0.000
   11  9 3Pdxy      0.00737   0.00000      0.000   0.000   0.000
   11 10 3Pdyz      0.00592   0.00000      0.000   0.000  -0.000
   11 11 3Pdz2      0.00047   0.00000      0.000  -0.000  -0.000
   11 12 3Pdxz      0.00497   0.00000     -0.000   0.000   0.000
   11 13 3Pdx2-y2   0.00503   0.00000      0.000  -0.000   0.000
   11     Total     5.39355   0.00000      0.000   0.000   0.000

   14  1 2s         1.50477   0.00000      0.000   0.000   0.000
   14  2 2s         0.10321   0.00000     -0.000  -0.000   0.000
   14  3 2py        0.84509   0.00000      0.000  -0.000   0.000
   14  4 2pz        1.23751   0.00000     -0.000  -0.000   0.000
   14  5 2px        1.17515   0.00000     -0.000   0.000   0.000
   14  6 2py        0.27707   0.00000      0.000  -0.000   0.000
   14  7 2pz        0.05446   0.00000      0.000  -0.000   0.000
   14  8 2px        0.13253   0.00000      0.000  -0.000   0.000
   14  9 3Pdxy      0.00947   0.00000      0.000   0.000  -0.000
   14 10 3Pdyz      0.00488   0.00000     -0.000  -0.000  -0.000
   14 11 3Pdz2      0.00148   0.00000      0.000   0.000   0.000
   14 12 3Pdxz      0.01067   0.00000      0.000   0.000  -0.000
   14 13 3Pdx2-y2   0.00794   0.00000     -0.000   0.000   0.000
   14     Total     5.36423   0.00000     -0.000  -0.000   0.000

   16  1 2s         1.37699   0.00000     -0.000   0.000  -0.000
   16  2 2s         0.12672   0.00000      0.000  -0.000   0.000
   16  3 2py        0.99169   0.00000      0.000   0.000   0.000
   16  4 2pz        1.54724   0.00000     -0.000   0.000  -0.000
   16  5 2px        1.08049   0.00000     -0.000   0.000   0.000
   16  6 2py        0.23934   0.00000     -0.000   0.000  -0.000
   16  7 2pz        0.00323   0.00000      0.000  -0.000   0.000
   16  8 2px        0.18039   0.00000      0.000  -0.000  -0.000
   16  9 3Pdxy      0.00157   0.00000     -0.000   0.000   0.000
   16 10 3Pdyz      0.00475   0.00000      0.000  -0.000  -0.000
   16 11 3Pdz2      0.00088   0.00000     -0.000   0.000   0.000
   16 12 3Pdxz      0.00236   0.00000     -0.000  -0.000  -0.000
   16 13 3Pdx2-y2   0.00609   0.00000     -0.000  -0.000  -0.000
   16     Total     5.56175   0.00000     -0.000   0.000   0.000

   26  1 2s         1.36703   0.00000      0.000   0.000   0.000
   26  2 2s         0.12826   0.00000     -0.000  -0.000  -0.000
   26  3 2py        1.11631   0.00000     -0.000  -0.000  -0.000
   26  4 2pz        1.52849   0.00000     -0.000   0.000   0.000
   26  5 2px        0.94199   0.00000     -0.000  -0.000   0.000
   26  6 2py        0.16961   0.00000      0.000   0.000   0.000
   26  7 2pz        0.00485   0.00000     -0.000   0.000  -0.000
   26  8 2px        0.26695   0.00000      0.000  -0.000   0.000
   26  9 3Pdxy      0.00069   0.00000     -0.000   0.000  -0.000
   26 10 3Pdyz      0.00082   0.00000     -0.000  -0.000  -0.000
   26 11 3Pdz2     -0.00130   0.00000     -0.000  -0.000  -0.000
   26 12 3Pdxz      0.00464   0.00000      0.000  -0.000  -0.000
   26 13 3Pdx2-y2   0.00206   0.00000      0.000   0.000  -0.000
   26     Total     5.53040   0.00000     -0.000   0.000   0.000

----------------------------------------------------------------
Total              49.25889   0.00000     -0.000   0.000   0.000


Species: Si                  

Atom      Orb        Charge      Spin       Svec
----------------------------------------------------------------
    3  1 3s         0.55087   0.00000     -0.000   0.000  -0.000
    3  2 3s         0.38739   0.00000     -0.000   0.000  -0.000
    3  3 3py        0.08239   0.00000     -0.000  -0.000  -0.000
    3  4 3pz        0.53742   0.00000     -0.000   0.000  -0.000
    3  5 3px        0.36881   0.00000     -0.000  -0.000  -0.000
    3  6 3py        0.49837   0.00000      0.000   0.000   0.000
    3  7 3pz        0.17564   0.00000     -0.000  -0.000  -0.000
    3  8 3px        0.23705   0.00000      0.000  -0.000  -0.000
    3  9 3Pdxy      0.10832   0.00000     -0.000  -0.000  -0.000
    3 10 3Pdyz      0.05222   0.00000     -0.000   0.000  -0.000
    3 11 3Pdz2      0.01017   0.00000     -0.000   0.000  -0.000
    3 12 3Pdxz      0.13312   0.00000      0.000  -0.000  -0.000
    3 13 3Pdx2-y2   0.32450   0.00000      0.000   0.000  -0.000
    3     Total     3.46628   0.00000     -0.000   0.000  -0.000

    6  1 3s         0.66116   0.00000      0.000   0.000  -0.000
    6  2 3s         0.37044   0.00000     -0.000  -0.000  -0.000
    6  3 3py        0.12967   0.00000     -0.000   0.000  -0.000
    6  4 3pz        0.69592   0.00000      0.000   0.000   0.000
    6  5 3px        0.49072   0.00000      0.000  -0.000  -0.000
    6  6 3py        0.46631   0.00000      0.000  -0.000  -0.000
    6  7 3pz        0.24288   0.00000     -0.000  -0.000  -0.000
    6  8 3px        0.24555   0.00000      0.000  -0.000  -0.000
    6  9 3Pdxy      0.18462   0.00000     -0.000   0.000  -0.000
    6 10 3Pdyz      0.14692   0.00000      0.000  -0.000   0.000
    6 11 3Pdz2      0.01164   0.00000     -0.000  -0.000  -0.000
    6 12 3Pdxz      0.03660   0.00000     -0.000  -0.000   0.000
    6 13 3Pdx2-y2   0.18829   0.00000     -0.000   0.000   0.000
    6     Total     3.87071   0.00000      0.000   0.000  -0.000

    7  1 3s         0.62707   0.00000      0.000  -0.000  -0.000
    7  2 3s         0.36943   0.00000      0.000   0.000   0.000
    7  3 3py        0.37350   0.00000      0.000  -0.000  -0.000
    7  4 3pz        0.49343   0.00000     -0.000   0.000   0.000
    7  5 3px        0.07927   0.00000     -0.000  -0.000   0.000
    7  6 3py        0.30285   0.00000     -0.000   0.000   0.000
    7  7 3pz        0.20800   0.00000      0.000  -0.000   0.000
    7  8 3px        0.42248   0.00000      0.000   0.000  -0.000
    7  9 3Pdxy      0.20437   0.00000      0.000   0.000  -0.000
    7 10 3Pdyz      0.14284   0.00000     -0.000  -0.000   0.000
    7 11 3Pdz2      0.01064   0.00000     -0.000   0.000  -0.000
    7 12 3Pdxz      0.15135   0.00000      0.000  -0.000  -0.000
    7 13 3Pdx2-y2   0.24072   0.00000     -0.000  -0.000  -0.000
    7     Total     3.62596   0.00000     -0.000   0.000  -0.000

   12  1 3s         0.53296   0.00000     -0.000  -0.000  -0.000
   12  2 3s         0.40077   0.00000      0.000   0.000  -0.000
   12  3 3py        0.22298   0.00000     -0.000   0.000  -0.000
   12  4 3pz        0.43710   0.00000     -0.000  -0.000  -0.000
   12  5 3px        0.29285   0.00000     -0.000  -0.000  -0.000
   12  6 3py        0.40103   0.00000      0.000  -0.000  -0.000
   12  7 3pz        0.16890   0.00000      0.000   0.000  -0.000
   12  8 3px        0.34280   0.00000      0.000   0.000  -0.000
   12  9 3Pdxy      0.38751   0.00000     -0.000  -0.000  -0.000
   12 10 3Pdyz      0.08063   0.00000      0.000   0.000  -0.000
   12 11 3Pdz2      0.01023   0.00000      0.000  -0.000  -0.000
   12 12 3Pdxz      0.09274   0.00000     -0.000   0.000  -0.000
   12 13 3Pdx2-y2   0.16502   0.00000     -0.000  -0.000  -0.000
   12     Total     3.53554   0.00000     -0.000   0.000  -0.000

   15  1 3s         0.66145   0.00000      0.000   0.000  -0.000
   15  2 3s         0.36718   0.00000     -0.000  -0.000   0.000
   15  3 3py       -0.03129   0.00000      0.000   0.000  -0.000
   15  4 3pz        0.51124   0.00000      0.000   0.000   0.000
   15  5 3px        0.39008   0.00000      0.000  -0.000   0.000
   15  6 3py        0.47399   0.00000     -0.000   0.000   0.000
   15  7 3pz        0.19980   0.00000     -0.000  -0.000  -0.000
   15  8 3px        0.33983   0.00000     -0.000   0.000  -0.000
   15  9 3Pdxy      0.14155   0.00000      0.000   0.000  -0.000
   15 10 3Pdyz      0.12589   0.00000      0.000   0.000   0.000
   15 11 3Pdz2      0.01397   0.00000     -0.000  -0.000   0.000
   15 12 3Pdxz      0.12494   0.00000     -0.000  -0.000   0.000
   15 13 3Pdx2-y2   0.30263   0.00000      0.000  -0.000  -0.000
   15     Total     3.62126   0.00000     -0.000  -0.000   0.000

   17  1 3s         0.73150   0.00000      0.000  -0.000  -0.000
   17  2 3s         0.35636   0.00000     -0.000   0.000  -0.000
   17  3 3py        0.09603   0.00000      0.000  -0.000  -0.000
   17  4 3pz        0.62547   0.00000     -0.000  -0.000  -0.000
   17  5 3px        0.35595   0.00000     -0.000   0.000  -0.000
   17  6 3py        0.45338   0.00000     -0.000   0.000   0.000
   17  7 3pz        0.15139   0.00000     -0.000   0.000  -0.000
   17  8 3px        0.33493   0.00000      0.000  -0.000   0.000
   17  9 3Pdxy      0.15087   0.00000      0.000  -0.000  -0.000
   17 10 3Pdyz      0.02343   0.00000      0.000  -0.000   0.000
   17 11 3Pdz2      0.00910   0.00000     -0.000  -0.000   0.000
   17 12 3Pdxz      0.12880   0.00000      0.000   0.000  -0.000
   17 13 3Pdx2-y2   0.12700   0.00000      0.000  -0.000  -0.000
   17     Total     3.54421   0.00000      0.000  -0.000  -0.000

   19  1 3s         0.86227   0.00000      0.000  -0.000   0.000
   19  2 3s         0.31310   0.00000     -0.000   0.000  -0.000
   19  3 3py        0.44188   0.00000      0.000   0.000   0.000
   19  4 3pz        0.65999   0.00000      0.000   0.000   0.000
   19  5 3px        0.35317   0.00000     -0.000   0.000   0.000
   19  6 3py        0.32402   0.00000     -0.000  -0.000  -0.000
   19  7 3pz        0.26877   0.00000     -0.000   0.000   0.000
   19  8 3px        0.35677   0.00000      0.000  -0.000   0.000
   19  9 3Pdxy      0.09326   0.00000     -0.000   0.000   0.000
   19 10 3Pdyz      0.02930   0.00000      0.000  -0.000  -0.000
   19 11 3Pdz2      0.01450   0.00000     -0.000  -0.000  -0.000
   19 12 3Pdxz      0.05651   0.00000     -0.000  -0.000  -0.000
   19 13 3Pdx2-y2   0.13139   0.00000      0.000  -0.000   0.000
   19     Total     3.90492   0.00000      0.000   0.000   0.000

   20  1 3s         0.54065   0.00000     -0.000  -0.000  -0.000
   20  2 3s         0.44396   0.00000      0.000   0.000  -0.000
   20  3 3py        0.31048   0.00000     -0.000   0.000  -0.000
   20  4 3pz        0.25483   0.00000     -0.000   0.000  -0.000
   20  5 3px        0.45503   0.00000      0.000  -0.000  -0.000
   20  6 3py        0.38748   0.00000      0.000  -0.000  -0.000
   20  7 3pz        0.42325   0.00000      0.000  -0.000   0.000
   20  8 3px        0.27753   0.00000     -0.000   0.000  -0.000
   20  9 3Pdxy      0.07000   0.00000     -0.000   0.000  -0.000
   20 10 3Pdyz      0.08422   0.00000     -0.000   0.000   0.000
   20 11 3Pdz2      0.05095   0.00000     -0.000  -0.000  -0.000
   20 12 3Pdxz      0.07240   0.00000      0.000   0.000   0.000
   20 13 3Pdx2-y2   0.04581   0.00000      0.000   0.000   0.000
   20     Total     3.41659   0.00000     -0.000   0.000  -0.000

   24  1 3s         0.60344   0.00000     -0.000  -0.000  -0.000
   24  2 3s         0.37075   0.00000      0.000   0.000   0.000
   24  3 3py        0.27114   0.00000     -0.000   0.000  -0.000
   24  4 3pz        0.40853   0.00000      0.000  -0.000  -0.000
   24  5 3px        0.16963   0.00000      0.000   0.000   0.000
   24  6 3py        0.39593   0.00000      0.000   0.000  -0.000
   24  7 3pz        0.19340   0.00000      0.000  -0.000  -0.000
   24  8 3px        0.35933   0.00000     -0.000  -0.000  -0.000
   24  9 3Pdxy      0.14247   0.00000      0.000  -0.000   0.000
   24 10 3Pdyz      0.14050   0.00000      0.000   0.000   0.000
   24 11 3Pdz2      0.01475   0.00000     -0.000  -0.000  -0.000
   24 12 3Pdxz      0.12174   0.00000     -0.000   0.000  -0.000
   24 13 3Pdx2-y2   0.34714   0.00000     -0.000   0.000  -0.000
   24     Total     3.53876   0.00000     -0.000  -0.000  -0.000

   28  1 3s         0.43298   0.00000      0.000  -0.000  -0.000
   28  2 3s         0.37807   0.00000     -0.000   0.000  -0.000
   28  3 3py        0.15568   0.00000     -0.000  -0.000  -0.000
   28  4 3pz        0.39857   0.00000     -0.000  -0.000  -0.000
   28  5 3px        0.17010   0.00000      0.000  -0.000  -0.000
   28  6 3py        0.37110   0.00000      0.000   0.000  -0.000
   28  7 3pz        0.20492   0.00000      0.000  -0.000  -0.000
   28  8 3px        0.38410   0.00000     -0.000  -0.000  -0.000
   28  9 3Pdxy      0.14390   0.00000     -0.000  -0.000  -0.000
   28 10 3Pdyz      0.12330   0.00000     -0.000  -0.000  -0.000
   28 11 3Pdz2      0.01539   0.00000      0.000  -0.000  -0.000
   28 12 3Pdxz      0.15675   0.00000     -0.000   0.000  -0.000
   28 13 3Pdx2-y2   0.35170   0.00000     -0.000   0.000  -0.000
   28     Total     3.28657   0.00000      0.000  -0.000  -0.000

----------------------------------------------------------------
Total              85.06969   0.00000      0.000  -0.000  -0.000


Species: O                   

Atom      Orb        Charge      Spin       Svec
----------------------------------------------------------------
   25  1 2s         1.74733   0.00000     -0.000   0.000   0.000
   25  2 2s         0.06198   0.00000      0.000  -0.000   0.000
   25  3 2py        1.46879   0.00000     -0.000  -0.000   0.000
   25  4 2pz        1.51645   0.00000     -0.000   0.000   0.000
   25  5 2px        1.59422   0.00000     -0.000   0.000   0.000
   25  6 2py        0.03362   0.00000      0.000  -0.000   0.000
   25  7 2pz       -0.00226   0.00000      0.000  -0.000   0.000
   25  8 2px        0.02361   0.00000      0.000  -0.000   0.000
   25  9 3Pdxy      0.00709   0.00000     -0.000  -0.000  -0.000
   25 10 3Pdyz      0.00606   0.00000      0.000  -0.000  -0.000
   25 11 3Pdz2      0.00128   0.00000     -0.000  -0.000  -0.000
   25 12 3Pdxz      0.00435   0.00000     -0.000   0.000  -0.000
   25 13 3Pdx2-y2   0.00725   0.00000     -0.000   0.000   0.000
   25     Total     6.46979   0.00000     -0.000  -0.000   0.000

   29  1 2s         1.73512   0.00000     -0.000  -0.000  -0.000
   29  2 2s         0.07381   0.00000      0.000   0.000   0.000
   29  3 2py        1.48253   0.00000      0.000   0.000   0.000
   29  4 2pz        1.52909   0.00000      0.000   0.000   0.000
   29  5 2px        1.52526   0.00000      0.000   0.000   0.000
   29  6 2py        0.04212   0.00000     -0.000  -0.000  -0.000
   29  7 2pz        0.00602   0.00000     -0.000  -0.000   0.000
   29  8 2px        0.03815   0.00000     -0.000   0.000   0.000
   29  9 3Pdxy      0.00812   0.00000     -0.000  -0.000  -0.000
   29 10 3Pdyz      0.00484   0.00000     -0.000   0.000  -0.000
   29 11 3Pdz2      0.00134   0.00000     -0.000  -0.000  -0.000
   29 12 3Pdxz      0.00624   0.00000      0.000   0.000  -0.000
   29 13 3Pdx2-y2   0.00787   0.00000     -0.000   0.000  -0.000
   29     Total     6.46052   0.00000      0.000   0.000   0.000

----------------------------------------------------------------
Total              98.00000   0.00000     -0.000   0.000  -0.000


siesta: Eigenvalues (eV):
ik =     1
  -22.9444  -22.9444  -22.5640  -22.5640  -21.9919  -21.9919  -21.2415  -21.2415  -21.0180  -21.0180
  -20.6654  -20.6654  -19.4241  -19.4241  -19.2402  -19.2402  -18.6385  -18.6385  -15.3322  -15.3322
  -14.3919  -14.3919  -13.6800  -13.6800  -13.6133  -13.6133  -13.3141  -13.3141  -12.9100  -12.9100
  -12.4801  -12.4801  -12.0386  -12.0386  -11.9393  -11.9393  -11.4903  -11.4903  -11.4807  -11.4807
  -10.8933  -10.8933  -10.7726  -10.7726  -10.1954  -10.1954   -9.8579   -9.8579   -9.5897   -9.5897
   -9.3651   -9.3651   -9.1878   -9.1878   -9.1184   -9.1184   -8.8332   -8.8332   -8.7431   -8.7431
   -8.4212   -8.4212   -8.1482   -8.1482   -8.1410   -8.1410   -8.1366   -8.1366   -8.0005   -8.0005
   -7.9234   -7.9234   -7.3392   -7.3392   -7.3376   -7.3376   -7.3313   -7.3313   -6.8441   -6.8441
   -6.7314   -6.7314   -6.6689   -6.6689   -6.4285   -6.4285   -6.3715   -6.3715   -6.1459   -6.1459
   -5.9670   -5.9670   -5.7400   -5.7400   -5.5653   -5.5653   -4.2246   -4.2246   -3.7462   -3.7462
   -2.8699   -2.8699   -2.4994   -2.4994   -2.2201   -2.2201   -2.2006   -2.2006   -2.0650   -2.0650
   -1.9704   -1.9704   -1.6527   -1.6527   -1.6129   -1.6129   -1.5738   -1.5738   -1.3448   -1.3448
   -1.1008   -1.1008   -0.6089   -0.6089   -0.4098   -0.4098   -0.2414   -0.2414   -0.2143   -0.2143
   -0.1638   -0.1638   -0.0834   -0.0834    0.2350    0.2350    0.3819    0.3819    0.5774    0.5774
    0.6380    0.6380    0.7252    0.7252    1.0472    1.0472    1.2385    1.2385    1.3160    1.3160
    1.3575    1.3575    1.6208    1.6208    1.8584    1.8584    2.0551    2.0551    2.2497    2.2497
    2.5142    2.5142    2.6309    2.6309    2.6759    2.6759    2.8726    2.8726    2.9622    2.9622
    3.0468    3.0468    3.1039    3.1039    3.1260    3.1260    3.4594    3.4594    3.6227    3.6227
    3.8236    3.8236    3.9193    3.9193    4.2452    4.2452    4.3363    4.3363    4.3653    4.3653
    4.4406    4.4406    4.5791    4.5791    4.7354    4.7354    4.9823    4.9823    5.0266    5.0266
    5.1269    5.1269    5.3718    5.3718    5.5566    5.5566    5.5674    5.5674    5.8810    5.8810
    5.9024    5.9024    6.0556    6.0556    6.1404    6.1404    6.4216    6.4216    6.5026    6.5026
    6.5906    6.5906    6.7400    6.7400    6.8108    6.8108    7.0042    7.0042    7.2779    7.2779
    7.3120    7.3120    7.5782    7.5782    7.6996    7.6996    7.8147    7.8147    7.9090    7.9090
    8.1487    8.1487    8.3707    8.3707    8.3827    8.3827    8.4946    8.4946    8.5360    8.5360
    8.5442    8.5442    9.0272    9.0272    9.0360    9.0360    9.4015    9.4015    9.6752    9.6752
    9.6989    9.6989    9.8899    9.8899    9.9183    9.9183    9.9991    9.9991   10.0163   10.0163
   10.0925   10.0925   10.5733   10.5733   10.6928   10.6928   11.0191   11.0191   11.1447   11.1447
   11.3681   11.3681   11.5424   11.5424   11.5909   11.5909   11.8200   11.8200   11.8375   11.8375
   12.1268   12.1268   12.2865   12.2865   12.5660   12.5660   12.6650   12.6650   12.6978   12.6978
   12.9148   12.9148   13.2005   13.2005   13.3420   13.3420   13.4084   13.4084   13.5730   13.5730
   13.7835   13.7835   14.0461   14.0461   14.4492   14.4492   14.5663   14.5663   14.8644   14.8644
   14.9239   14.9239   15.4600   15.4600   15.5732   15.5732   16.0424   16.0424   16.3407   16.3407
   16.5189   16.5189   16.8694   16.8694   16.9341   16.9341   17.1718   17.1718   17.4807   17.4807
   18.0160   18.0160   18.0747   18.0747   18.4282   18.4282   18.6580   18.6580   18.8524   18.8524
   18.8820   18.8820   19.7821   19.7821   19.9791   19.9791   20.2479   20.2479   20.4387   20.4387
   20.9355   20.9355   21.1617   21.1617   21.3354   21.3354   22.1676   22.1676   22.3389   22.3389
   22.5753   22.5753   22.9318   22.9318   23.0616   23.0616   23.1094   23.1094   23.1774   23.1774
   24.5691   24.5691   24.8260   24.8260   25.1437   25.1437   25.7024   25.7024   25.9367   25.9367
   26.1928   26.1928   26.6552   26.6552   27.0178   27.0178   28.0213   28.0213   28.1574   28.1574
   28.4389   28.4389   28.6852   28.6852   29.6424   29.6424   30.4628   30.4628   30.8375   30.8375
   30.8440   30.8440   31.1250   31.1250   31.3621   31.3621   31.4659   31.4659   31.9638   31.9638
   32.0941   32.0941   32.3026   32.3026   32.9004   32.9004   33.5206   33.5206   33.9973   33.9973
   34.2757   34.2757   34.3202   34.3202   34.9211   34.9211   35.3119   35.3119   35.5256   35.5256
   36.1076   36.1076   36.3944   36.3944   37.2454   37.2454   37.5211   37.5211   37.9568   37.9568
   38.0786   38.0786   38.6888   38.6888   38.9752   38.9752   39.1292   39.1292   39.2336   39.2336
   40.0421   40.0421   40.6351   40.6351   40.9717   40.9717   41.2944   41.2944   41.6116   41.6116
   42.2361   42.2361   42.3747   42.3747   43.0054   43.0054   43.3144   43.3144   43.7346   43.7346
   44.4862   44.4862   44.7282   44.7282   44.8586   44.8586   45.3232   45.3232   45.7222   45.7222
   46.2608   46.2608   46.2854   46.2854   46.6299   46.6299   46.7084   46.7084   47.3726   47.3726
   47.8945   47.8945   48.1336   48.1336   48.8999   48.8999   49.1599   49.1599   49.5718   49.5718
   50.2118   50.2118   50.3428   50.3428   50.5279   50.5279   50.7240   50.7240   51.7138   51.7138
   52.2945   52.2945   52.3138   52.3138   54.0911   54.0911   54.7340   54.7340   54.8406   54.8406
   55.5416   55.5416   56.2526   56.2526   56.3422   56.3422   56.8217   56.8217   57.0071   57.0071
   58.5217   58.5217   58.6108   58.6108   58.9704   58.9704   60.0468   60.0468   60.1453   60.1453
   60.8229   60.8229   61.9839   61.9839   62.1218   62.1218   62.4636   62.4636   63.3974   63.3974
   65.8530   65.8530   66.3831   66.3831   67.3431   67.3431   67.6853   67.6853   68.3761   68.3761
   69.3274   69.3274   71.4960   71.4960   74.0835   74.0835   81.1790   81.1790   92.3053   92.3053
   92.7708   92.7708   93.2099   93.2099   95.8908   95.8908   98.4393   98.4393  100.5292  100.5292
  101.8772  101.8772  103.1243  103.1243  114.1764  114.1764  120.9784  120.9784  123.3514  123.3514
  136.5404  136.5404  140.8862  140.8862
siesta: Fermi energy =      -3.985387 eV

siesta: Program's energy decomposition (eV):
siesta: Ebs     =     -1116.841808
siesta: Eions   =      3553.971015
siesta: Ena     =       377.796288
siesta: Ekin    =      2751.274720
siesta: Enl     =     -2532.242838
siesta: Eso     =        -0.004701
siesta: Edftu   =         0.000000
siesta: DEna    =        37.217951
siesta: DUscf   =        14.071870
siesta: DUext   =         0.000000
siesta: Exc     =     -1093.060688
siesta: eta*DQ  =         0.000000
siesta: Emadel  =         0.000000
siesta: Emeta   =         0.000000
siesta: Emolmec =         0.000000
siesta: Ekinion =         0.000000
siesta: Eharris =     -3998.918413
siesta: Etot    =     -3998.918413
siesta: FreeEng =     -3998.918514

siesta: Final energy (eV):
siesta:  Band Struct. =   -1116.841808
siesta:       Kinetic =    2751.274720
siesta:       Hartree =    7434.087054
siesta:       Edftu   =       0.000000
siesta:       Eso     =      -0.004701
siesta:    Ext. field =       0.000000
siesta:   Exch.-corr. =   -1093.060688
siesta:  Ion-electron =  -17317.666764
siesta:       Ion-ion =    4226.451966
siesta:       Ekinion =       0.000000
siesta:         Total =   -3998.918413
siesta:         Fermi =      -3.985387

siesta: Atomic forces (eV/Ang):
siesta:      1   -0.032171   -0.010338    0.000002
siesta:      2   -0.024395   -0.039649   -0.000003
siesta:      3    0.000639    0.044426    0.000003
siesta:      4   -0.023604    0.007068    0.000001
siesta:      5    0.008463   -0.040138   -0.000004
siesta:      6    0.046110    0.004718    0.000003
siesta:      7   -0.202286    0.136901    0.000018
siesta:      8    0.106642   -0.092985   -0.000076
siesta:      9    0.035358    0.064280    0.000127
siesta:     10    0.098203    0.075677    0.000014
siesta:     11   -0.018153    0.039896   -0.000023
siesta:     12    0.132995    0.091393   -0.000003
siesta:     13   -0.113744   -0.133295   -0.000002
siesta:     14   -0.030068   -0.058601    0.000003
siesta:     15   -0.000652    0.062204   -0.000002
siesta:     16    0.010776    0.089655    0.008019
siesta:     17    0.009882   -0.058801   -0.039868
siesta:     18   -0.132370    0.075949    0.008320
siesta:     19   -0.017900    0.024715   -0.041186
siesta:     20    0.041666   -0.047802    0.026334
siesta:     21   -0.210930    0.231698    0.050406
siesta:     22   -0.131593    0.005678    0.020755
siesta:     23    0.075521    0.006724   -0.050082
siesta:     24    0.126192   -0.117162   -0.026546
siesta:     25   -3.846514   -2.540022    0.003041
siesta:     26   -0.066746    0.092716    0.006576
siesta:     27    0.052884   -0.130465    0.002809
siesta:     28   -0.040399   -0.140166   -0.000869
siesta:     29    0.087751   -0.471471   -0.001097
siesta:     30    0.050359    0.177635    0.008252
siesta: ----------------------------------------
siesta:    Tot   -4.008085   -2.649564   -0.025077

siesta: Stress tensor (static) (eV/Ang**3):
siesta:    -0.001122    0.000189    0.000031
siesta:     0.000189   -0.000158   -0.000028
siesta:     0.000031   -0.000028   -0.000141

siesta: Cell volume =       4274.808474 Ang**3

siesta: Pressure (static):
siesta:                Solid            Molecule  Units
siesta:           0.00000516          0.00000096  Ry/Bohr**3
siesta:           0.00047361          0.00008773  eV/Ang**3
siesta:           0.75882304          0.14055957  kBar
(Free)E+ p_basis*V_orbitals  =       -3977.790429
(Free)Eharris+ p_basis*V_orbitals  =       -3977.790429
     spin moment: S , {S} =    0.00000  -0.00000   0.00000  -0.00000

siesta: Electric dipole (a.u.)  =   -0.278549    2.667420   -0.013008
siesta: Electric dipole (Debye) =   -0.708000    6.779911   -0.033063

cite: Please see "AT.bib" for an exhaustive BiBTeX file.
cite: Please clearly indicate Siesta version in published work: v4.1.5-1-g384057250
cite: This calculation has made use of the following articles
cite: which are encouraged to be cited in a published work.
        Primary SIESTA paper
          DOI: www.doi.org/10.1088/0953-8984/14/11/302
        Spin-orbit coupling (on-site approximation)
          DOI: www.doi.org/10.1088/0953-8984/19/19/489001


WARNING: alloc-realloc-dealloc name mismatch
         Name: atomlist isa
         Size:              -120. Bytes
         Node:     0
         Subsequent mismatches will not be reported
>> End of run:  22-MAY-2023  10:12:14
Job completed
