Siesta Version  : v4.1.5-1-g384057250
Architecture    : gcc
Compiler version: GNU Fortran (Ubuntu 11.3.0-1ubuntu1~22.04) 11.3.0
Compiler flags  : mpifort -O2 -fPIC -ftree-vectorize -fallow-argument-mismatch
PP flags        : -DFC_HAVE_ABORT -DMPI -DSIESTA__FLOOK -DSIESTA__METIS -DSIESTA__MUMPS -DCDF -DNCDF -DNCDF_4 -DNCDF_PARALLEL -DSIESTA__MRRR -DSIESTA__ELPA
Libraries       : libncdf.a libfdict.a  -lflookall -ldl -lnetcdff -lnetcdf -lhdf5_hl -lhdf5 -lhdf5_fortran -lz -lscalapack-openmpi -lopenblas -lmetis -lzmumps -lcmumps -ldmumps -lmumps_common -lpord -lsmumps -lesmumps -lscotch -lscotcherr -fopenmp -lelpa
PARALLEL version
NetCDF support
NetCDF-4 support
NetCDF-4 MPI-IO support
METIS ordering support
Lua support

* Running on 4 nodes in parallel
>> Start of run:  28-JUN-2023  16:42:00

                           ***********************       
                           *  WELCOME TO SIESTA  *       
                           ***********************       

reinit: Reading from standard input
reinit: Dumped input in INPUT_TMP.61244
************************** Dump of input data file ****************************
SystemLabel      GC
NumberOfAtoms    29
NumberOfSpecies  4
%block ChemicalSpeciesLabel
    1    8  O
    2    7  N
    3   14  Si
    4    1  H
%endblock ChemicalSpeciesLabel
# Single point calculation
MD.TypeOfRun                CG
MD.Steps                    0
SCF.MustConverge            F # In case it does not. There can be 2 very close atoms
AtomicCoordinatesFormat NotScaledCartesianAng
%block AtomicCoordinatesAndAtomicSpecies
1.043624880    3.939228610    0.000000000       1
-3.040641290   1.071078170    0.000000000       2
2.054601450    1.213582070    0.000000000       2
0.999014100    -1.732643800   0.000000000       2
-2.132351640   -1.812968220   0.000000000       2
3.860190550    -1.112298180   0.000000000       2
-1.236183220   1.152964460    0.000000000       3
-0.532924260   -0.939006270   0.000000000       3
0.635660470    2.374516770    0.000000000       3
2.245170240    -0.549967100   0.000000000       3
-3.449816660   -0.583665030   0.000000000       3
2.963714090    1.790992630    0.000000000       4
-4.845591350   -1.123549660   0.000000000       4
4.007020910    -2.152308560   0.000000000       4
4.772194380    -0.502318160   0.000000000       4
-2.265399090   -2.864605110   0.000000000       4
8.753973597    7.507570946    0.000000000       3
10.658857567   8.714209886    0.000000000       3
10.163103427   4.741235976    0.000000000       3
12.240573717   7.210453136    0.000000000       3
8.813596267    5.790143376    0.000000000       2
7.214838537    8.261248256    0.000000000       2
11.815398687   5.471073196    0.000000000       2
10.850202367   10.206363636   0.000000000       4
13.724941697   7.429183956    0.000000000       4
7.103493257    9.310443366    0.000000000       4
6.282280827    7.636334076    0.000000000       4
10.152876597   3.133124856    0.000000000       1
12.590824567   4.744381636    0.000000000       4
%endblock AtomicCoordinatesAndAtomicSpecies
%include ../../../Defaults.fdf
************************** End of input data file *****************************

reinit: -----------------------------------------------------------------------
reinit: System Name: 
reinit: -----------------------------------------------------------------------
reinit: System Label: GC
reinit: -----------------------------------------------------------------------

initatom: Reading input for the pseudopotentials and atomic orbitals ----------
Species number:   1 Atomic number:    8 Label: O
Species number:   2 Atomic number:    7 Label: N
Species number:   3 Atomic number:   14 Label: Si
Species number:   4 Atomic number:    1 Label: H

Ground state valence configuration:   2s02  2p04
Reading pseudopotential information in formatted form from O.psf

Pseudopotential generated from a relativistic atomic calculation

Valence configuration for pseudopotential generation:
2s( 2.00) rc: 0.45
2p( 4.00) rc: 0.92
3d( 0.00) rc: 2.24
4f( 0.00) rc: 0.25
Ground state valence configuration:   2s02  2p03
Reading pseudopotential information in formatted form from N.psf

Pseudopotential generated from a relativistic atomic calculation

Valence configuration for pseudopotential generation:
2s( 2.00) rc: 0.94
2p( 3.00) rc: 0.59
3d( 0.00) rc: 3.46
4f( 0.00) rc: 2.47
Ground state valence configuration:   3s02  3p02
Reading pseudopotential information in formatted form from Si.psf

Pseudopotential generated from a relativistic atomic calculation

Valence configuration for pseudopotential generation:
3s( 2.00) rc: 1.67
3p( 2.00) rc: 2.04
3d( 0.00) rc: 2.89
4f( 0.00) rc: 2.49
Ground state valence configuration:   1s01
Reading pseudopotential information in formatted form from H.psf

Pseudopotential generated from a relativistic atomic calculation

Valence configuration for pseudopotential generation:
1s( 1.00) rc: 0.01
2p( 0.00) rc: 0.60
3d( 0.00) rc: 1.99
4f( 0.00) rc: 2.49
For O, standard SIESTA heuristics set lmxkb to 3
 (one more than the basis l, including polarization orbitals).
Use PS.lmax or PS.KBprojectors blocks to override.
For N, standard SIESTA heuristics set lmxkb to 3
 (one more than the basis l, including polarization orbitals).
Use PS.lmax or PS.KBprojectors blocks to override.
For Si, standard SIESTA heuristics set lmxkb to 3
 (one more than the basis l, including polarization orbitals).
Use PS.lmax or PS.KBprojectors blocks to override.
For H, standard SIESTA heuristics set lmxkb to 2
 (one more than the basis l, including polarization orbitals).
Use PS.lmax or PS.KBprojectors blocks to override.

<basis_specs>
===============================================================================
O                    Z=   8    Mass=  16.000        Charge= 0.17977+309
Lmxo=1 Lmxkb= 3    BasisType=split      Semic=F
L=0  Nsemic=0  Cnfigmx=2
          i=1  nzeta=2  polorb=0  (2s)
            splnorm:   0.28000    
               vcte:    0.0000    
               rinn:    0.0000    
               qcoe:    0.0000    
               qyuk:    0.0000    
               qwid:   0.10000E-01
                rcs:    0.0000      0.0000    
            lambdas:    1.0000      1.0000    
L=1  Nsemic=0  Cnfigmx=2
          i=1  nzeta=2  polorb=1  (2p)
            splnorm:   0.28000    
               vcte:    0.0000    
               rinn:    0.0000    
               qcoe:    0.0000    
               qyuk:    0.0000    
               qwid:   0.10000E-01
                rcs:    0.0000      0.0000    
            lambdas:    1.0000      1.0000    
-------------------------------------------------------------------------------
L=0  Nkbl=1  erefs: 0.17977+309
L=1  Nkbl=1  erefs: 0.17977+309
L=2  Nkbl=1  erefs: 0.17977+309
L=3  Nkbl=1  erefs: 0.17977+309
===============================================================================
</basis_specs>

atom: Called for O                     (Z =   8)

read_vps: Pseudopotential generation method:
read_vps: ATM4.2.7  Troullier-Martins                       
Valence charge for ps generation:    6.00000

xc_check: Exchange-correlation functional:
xc_check: GGA Perdew, Burke & Ernzerhof 1996
V l=0 = -2*Zval/r beyond r=  1.1000
V l=1 = -2*Zval/r beyond r=  1.1000
V l=2 = -2*Zval/r beyond r=  2.2154
V l=3 = -2*Zval/r beyond r=  1.1000
All V_l potentials equal beyond r=  2.2154
This should be close to max(r_c) in ps generation
All pots = -2*Zval/r beyond r=  2.2154

VLOCAL1: 99.0% of the norm of Vloc inside      8.845 Ry
VLOCAL1: 99.9% of the norm of Vloc inside     20.157 Ry
atom: Maximum radius for 4*pi*r*r*local-pseudopot. charge    2.67231
atom: Maximum radius for r*vlocal+2*Zval:    2.32897
GHOST: No ghost state for L =  0
GHOST: No ghost state for L =  1
GHOST: No ghost state for L =  2
GHOST: No ghost state for L =  3

KBgen: Kleinman-Bylander projectors: 
   l= 0   rc=  2.243238   el= -1.759686   Ekb=**********   kbcos= -0.171774
   l= 1   rc=  2.328968   el= -0.663873   Ekb=-14.506792   kbcos= -0.519897
   l= 2   rc=  2.573941   el=  0.002031   Ekb= -1.137373   kbcos= -0.019581
   l= 3   rc=  2.606321   el=  0.003153   Ekb= -1.013546   kbcos= -0.003122

KBgen: Total number of Kleinman-Bylander projectors:   16
atom: -------------------------------------------------------------------------

atom: SANKEY-TYPE ORBITALS:
atom: Selected multiple-zeta basis: split     

SPLIT: Orbitals with angular momentum L= 0

SPLIT: Basis orbitals for state 2s

SPLIT: PAO cut-off radius determined from an
SPLIT: energy shift=  0.002000 Ry

   izeta = 1
                 lambda =    1.000000
                     rc =    4.243912
                 energy =   -1.758270
                kinetic =    3.286084
    potential(screened) =   -5.044353
       potential(ionic) =  -12.921184

   izeta = 2
                 rmatch =    2.187845
              splitnorm =    0.280000
                 energy =   -0.885018
                kinetic =    8.134434
    potential(screened) =   -9.019452
       potential(ionic) =  -17.710645

SPLIT: Orbitals with angular momentum L= 1

SPLIT: Basis orbitals for state 2p

SPLIT: PAO cut-off radius determined from an
SPLIT: energy shift=  0.002000 Ry

   izeta = 1
                 lambda =    1.000000
                     rc =    5.314825
                 energy =   -0.661986
                kinetic =    4.917472
    potential(screened) =   -5.579458
       potential(ionic) =  -13.236259

   izeta = 2
                 rmatch =    2.160663
              splitnorm =    0.280000
                 energy =   -0.068760
                kinetic =    9.183374
    potential(screened) =   -9.252135
       potential(ionic) =  -18.274251

POLgen: Perturbative polarization orbital with L=  2

POLgen: Polarization orbital for state 2p

   izeta = 1
                     rc =    5.314825
                 energy =    1.970580
                kinetic =    3.886128
    potential(screened) =   -1.915547
       potential(ionic) =   -7.749584
atom: Total number of Sankey-type orbitals: 13

atm_pop: Valence configuration (for local Pseudopot. screening):
 2s( 2.00)                                                            
 2p( 4.00)                                                            
Vna: chval, zval:    6.00000   6.00000

Vna:  Cut-off radius for the neutral-atom potential:   5.314825

atom: _________________________________________________________________________

<basis_specs>
===============================================================================
N                    Z=   7    Mass=  14.010        Charge= 0.17977+309
Lmxo=1 Lmxkb= 3    BasisType=split      Semic=F
L=0  Nsemic=0  Cnfigmx=2
          i=1  nzeta=2  polorb=0  (2s)
            splnorm:   0.28000    
               vcte:    0.0000    
               rinn:    0.0000    
               qcoe:    0.0000    
               qyuk:    0.0000    
               qwid:   0.10000E-01
                rcs:    0.0000      0.0000    
            lambdas:    1.0000      1.0000    
L=1  Nsemic=0  Cnfigmx=2
          i=1  nzeta=2  polorb=1  (2p)
            splnorm:   0.28000    
               vcte:    0.0000    
               rinn:    0.0000    
               qcoe:    0.0000    
               qyuk:    0.0000    
               qwid:   0.10000E-01
                rcs:    0.0000      0.0000    
            lambdas:    1.0000      1.0000    
-------------------------------------------------------------------------------
L=0  Nkbl=1  erefs: 0.17977+309
L=1  Nkbl=1  erefs: 0.17977+309
L=2  Nkbl=1  erefs: 0.17977+309
L=3  Nkbl=1  erefs: 0.17977+309
===============================================================================
</basis_specs>

atom: Called for N                     (Z =   7)

read_vps: Pseudopotential generation method:
read_vps: ATM4.2.7  Troullier-Martins                       
Valence charge for ps generation:    5.00000

xc_check: Exchange-correlation functional:
xc_check: GGA Perdew, Burke & Ernzerhof 1996
V l=0 = -2*Zval/r beyond r=  1.2889
V l=1 = -2*Zval/r beyond r=  1.2889
V l=2 = -2*Zval/r beyond r=  3.4178
V l=3 = -2*Zval/r beyond r=  2.4084
All V_l potentials equal beyond r=  3.3753
This should be close to max(r_c) in ps generation
All pots = -2*Zval/r beyond r=  3.4178

VLOCAL1: 99.0% of the norm of Vloc inside      3.810 Ry
VLOCAL1: 99.9% of the norm of Vloc inside      8.683 Ry
atom: Maximum radius for 4*pi*r*r*local-pseudopot. charge    4.02088
atom: Maximum radius for r*vlocal+2*Zval:    3.54838
GHOST: No ghost state for L =  0
GHOST: No ghost state for L =  1
GHOST: No ghost state for L =  2
GHOST: No ghost state for L =  3

KBgen: Kleinman-Bylander projectors: 
   l= 0   rc=  3.417763   el= -1.365098   Ekb= -4.433130   kbcos= -0.707855
   l= 1   rc=  3.375302   el= -0.521201   Ekb=-13.264039   kbcos= -0.535594
   l= 2   rc=  3.872880   el=  0.001991   Ekb= -0.641094   kbcos= -0.062456
   l= 3   rc=  3.970931   el=  0.003093   Ekb= -0.474517   kbcos= -0.018236

KBgen: Total number of Kleinman-Bylander projectors:   16
atom: -------------------------------------------------------------------------

atom: SANKEY-TYPE ORBITALS:
atom: Selected multiple-zeta basis: split     

SPLIT: Orbitals with angular momentum L= 0

SPLIT: Basis orbitals for state 2s

SPLIT: PAO cut-off radius determined from an
SPLIT: energy shift=  0.002000 Ry

   izeta = 1
                 lambda =    1.000000
                     rc =    4.730425
                 energy =   -1.363399
                kinetic =    1.245246
    potential(screened) =   -2.608645
       potential(ionic) =   -8.121105

   izeta = 2
                 rmatch =    2.531849
              splitnorm =    0.280000
                 energy =   -0.959908
                kinetic =    2.409435
    potential(screened) =   -3.369343
       potential(ionic) =   -9.427975

SPLIT: Orbitals with angular momentum L= 1

SPLIT: Basis orbitals for state 2p

SPLIT: PAO cut-off radius determined from an
SPLIT: energy shift=  0.002000 Ry

   izeta = 1
                 lambda =    1.000000
                     rc =    5.924108
                 energy =   -0.519262
                kinetic =    3.672940
    potential(screened) =   -4.192202
       potential(ionic) =   -9.518354

   izeta = 2
                 rmatch =    2.531849
              splitnorm =    0.280000
                 energy =   -0.104258
                kinetic =    6.807538
    potential(screened) =   -6.911796
       potential(ionic) =  -13.149920

POLgen: Perturbative polarization orbital with L=  2

POLgen: Polarization orbital for state 2p

   izeta = 1
                     rc =    5.924108
                 energy =    1.427508
                kinetic =    2.872379
    potential(screened) =   -1.444871
       potential(ionic) =   -5.563644
atom: Total number of Sankey-type orbitals: 13

atm_pop: Valence configuration (for local Pseudopot. screening):
 2s( 2.00)                                                            
 2p( 3.00)                                                            
Vna: chval, zval:    5.00000   5.00000

Vna:  Cut-off radius for the neutral-atom potential:   5.924108

atom: _________________________________________________________________________

<basis_specs>
===============================================================================
Si                   Z=  14    Mass=  28.090        Charge= 0.17977+309
Lmxo=1 Lmxkb= 3    BasisType=split      Semic=F
L=0  Nsemic=0  Cnfigmx=3
          i=1  nzeta=2  polorb=0  (3s)
            splnorm:   0.28000    
               vcte:    0.0000    
               rinn:    0.0000    
               qcoe:    0.0000    
               qyuk:    0.0000    
               qwid:   0.10000E-01
                rcs:    0.0000      0.0000    
            lambdas:    1.0000      1.0000    
L=1  Nsemic=0  Cnfigmx=3
          i=1  nzeta=2  polorb=1  (3p)
            splnorm:   0.28000    
               vcte:    0.0000    
               rinn:    0.0000    
               qcoe:    0.0000    
               qyuk:    0.0000    
               qwid:   0.10000E-01
                rcs:    0.0000      0.0000    
            lambdas:    1.0000      1.0000    
-------------------------------------------------------------------------------
L=0  Nkbl=1  erefs: 0.17977+309
L=1  Nkbl=1  erefs: 0.17977+309
L=2  Nkbl=1  erefs: 0.17977+309
L=3  Nkbl=1  erefs: 0.17977+309
===============================================================================
</basis_specs>

atom: Called for Si                    (Z =  14)

read_vps: Pseudopotential generation method:
read_vps: ATM4.2.7  Troullier-Martins                       
Valence charge for ps generation:    4.00000

xc_check: Exchange-correlation functional:
xc_check: GGA Perdew, Burke & Ernzerhof 1996
V l=0 = -2*Zval/r beyond r=  2.7826
V l=1 = -2*Zval/r beyond r=  2.7826
V l=2 = -2*Zval/r beyond r=  2.9253
V l=3 = -2*Zval/r beyond r=  2.7826
All V_l potentials equal beyond r=  2.8530
This should be close to max(r_c) in ps generation
All pots = -2*Zval/r beyond r=  2.9253

VLOCAL1: 99.0% of the norm of Vloc inside      5.333 Ry
VLOCAL1: 99.9% of the norm of Vloc inside     12.154 Ry
atom: Maximum radius for 4*pi*r*r*local-pseudopot. charge    3.39869
atom: Maximum radius for r*vlocal+2*Zval:    2.96205
GHOST: No ghost state for L =  0
GHOST: No ghost state for L =  1
GHOST: No ghost state for L =  2
GHOST: No ghost state for L =  3

KBgen: Kleinman-Bylander projectors: 
   l= 0   rc=  3.075247   el= -0.794092   Ekb=  5.879390   kbcos=  0.167461
   l= 1   rc=  3.153101   el= -0.300068   Ekb=  2.642817   kbcos=  0.058301
   l= 2   rc=  3.273594   el=  0.001958   Ekb= -1.185135   kbcos= -0.104411
   l= 3   rc=  3.232927   el=  0.003046   Ekb= -0.497174   kbcos= -0.015889

KBgen: Total number of Kleinman-Bylander projectors:   16
atom: -------------------------------------------------------------------------

atom: SANKEY-TYPE ORBITALS:
atom: Selected multiple-zeta basis: split     

SPLIT: Orbitals with angular momentum L= 0

SPLIT: Basis orbitals for state 3s

SPLIT: PAO cut-off radius determined from an
SPLIT: energy shift=  0.002000 Ry

   izeta = 1
                 lambda =    1.000000
                     rc =    6.429618
                 energy =   -0.792283
                kinetic =    0.525293
    potential(screened) =   -1.317576
       potential(ionic) =   -3.744923

   izeta = 2
                 rmatch =    3.998416
              splitnorm =    0.280000
                 energy =   -0.583081
                kinetic =    1.069570
    potential(screened) =   -1.652651
       potential(ionic) =   -4.235185

SPLIT: Orbitals with angular momentum L= 1

SPLIT: Basis orbitals for state 3p

SPLIT: PAO cut-off radius determined from an
SPLIT: energy shift=  0.002000 Ry

   izeta = 1
                 lambda =    1.000000
                     rc =    8.464845
                 energy =   -0.298236
                kinetic =    0.785360
    potential(screened) =   -1.083596
       potential(ionic) =   -3.273779

   izeta = 2
                 rmatch =    4.587816
              splitnorm =    0.280000
                 energy =   -0.131871
                kinetic =    1.403687
    potential(screened) =   -1.535557
       potential(ionic) =   -4.015310

POLgen: Perturbative polarization orbital with L=  2

POLgen: Polarization orbital for state 3p

   izeta = 1
                     rc =    8.464845
                 energy =    0.321949
                kinetic =    1.055677
    potential(screened) =   -0.733728
       potential(ionic) =   -2.672950
atom: Total number of Sankey-type orbitals: 13

atm_pop: Valence configuration (for local Pseudopot. screening):
 3s( 2.00)                                                            
 3p( 2.00)                                                            
Vna: chval, zval:    4.00000   4.00000

Vna:  Cut-off radius for the neutral-atom potential:   8.464845

atom: _________________________________________________________________________

<basis_specs>
===============================================================================
H                    Z=   1    Mass=  1.0100        Charge= 0.17977+309
Lmxo=0 Lmxkb= 2    BasisType=split      Semic=F
L=0  Nsemic=0  Cnfigmx=1
          i=1  nzeta=2  polorb=1  (1s)
            splnorm:   0.62000    
               vcte:    0.0000    
               rinn:    0.0000    
               qcoe:    0.0000    
               qyuk:    0.0000    
               qwid:   0.10000E-01
                rcs:    0.0000      0.0000    
            lambdas:    1.0000      1.0000    
-------------------------------------------------------------------------------
L=0  Nkbl=1  erefs: 0.17977+309
L=1  Nkbl=1  erefs: 0.17977+309
L=2  Nkbl=1  erefs: 0.17977+309
===============================================================================
</basis_specs>

atom: Called for H                     (Z =   1)

read_vps: Pseudopotential generation method:
read_vps: ATM4.2.7  Troullier-Martins                       
Valence charge for ps generation:    1.00000

xc_check: Exchange-correlation functional:
xc_check: GGA Perdew, Burke & Ernzerhof 1996
V l=0 = -2*Zval/r beyond r=  0.0098
V l=1 = -2*Zval/r beyond r=  0.5817
V l=2 = -2*Zval/r beyond r=  1.9372
All V_l potentials equal beyond r=  1.9372
This should be close to max(r_c) in ps generation
All pots = -2*Zval/r beyond r=  1.9372

VLOCAL1: 99.0% of the norm of Vloc inside     11.567 Ry
VLOCAL1: 99.9% of the norm of Vloc inside     26.362 Ry
atom: Maximum radius for 4*pi*r*r*local-pseudopot. charge    2.25106
atom: Maximum radius for r*vlocal+2*Zval:    1.91306
GHOST: No ghost state for L =  0
GHOST: No ghost state for L =  1
GHOST: No ghost state for L =  2

KBgen: Kleinman-Bylander projectors: 
   l= 0   rc=  2.036604   el= -0.477180   Ekb= -6.081590   kbcos= -0.277285
   l= 1   rc=  2.195416   el=  0.001076   Ekb= -0.926943   kbcos= -0.034643
   l= 2   rc=  2.251056   el=  0.002010   Ekb= -0.130941   kbcos= -0.009788

KBgen: Total number of Kleinman-Bylander projectors:    9
atom: -------------------------------------------------------------------------

atom: SANKEY-TYPE ORBITALS:
atom: Selected multiple-zeta basis: split     

SPLIT: Orbitals with angular momentum L= 0

SPLIT: Basis orbitals for state 1s

SPLIT: PAO cut-off radius determined from an
SPLIT: energy shift=  0.002000 Ry

   izeta = 1
                 lambda =    1.000000
                     rc =    6.518340
                 energy =   -0.475305
                kinetic =    0.912139
    potential(screened) =   -1.387444
       potential(ionic) =   -1.907295

   izeta = 2
                 rmatch =    2.141150
              splitnorm =    0.620000
                 energy =    0.566467
                kinetic =    3.772856
    potential(screened) =   -3.206389
       potential(ionic) =   -3.759093

POLgen: Perturbative polarization orbital with L=  1

POLgen: Polarization orbital for state 1s

   izeta = 1
                     rc =    6.518340
                 energy =    0.533861
                kinetic =    1.121086
    potential(screened) =   -0.587225
       potential(ionic) =   -1.053027
atom: Total number of Sankey-type orbitals:  5

atm_pop: Valence configuration (for local Pseudopot. screening):
 1s( 1.00)                                                            
Vna: chval, zval:    1.00000   1.00000

Vna:  Cut-off radius for the neutral-atom potential:   6.518340

atom: _________________________________________________________________________

prinput: Basis input ----------------------------------------------------------

PAO.BasisType split     

%block ChemicalSpeciesLabel
    1    8 O                       # Species index, atomic number, species label
    2    7 N                       # Species index, atomic number, species label
    3   14 Si                      # Species index, atomic number, species label
    4    1 H                       # Species index, atomic number, species label
%endblock ChemicalSpeciesLabel

%block PAO.Basis                 # Define Basis set
O                     2                    # Species label, number of l-shells
 n=2   0   2                         # n, l, Nzeta 
   4.244      2.188   
   1.000      1.000   
 n=2   1   2 P   1                   # n, l, Nzeta, Polarization, NzetaPol
   5.315      2.161   
   1.000      1.000   
N                     2                    # Species label, number of l-shells
 n=2   0   2                         # n, l, Nzeta 
   4.730      2.532   
   1.000      1.000   
 n=2   1   2 P   1                   # n, l, Nzeta, Polarization, NzetaPol
   5.924      2.532   
   1.000      1.000   
Si                    2                    # Species label, number of l-shells
 n=3   0   2                         # n, l, Nzeta 
   6.430      3.998   
   1.000      1.000   
 n=3   1   2 P   1                   # n, l, Nzeta, Polarization, NzetaPol
   8.465      4.588   
   1.000      1.000   
H                     1                    # Species label, number of l-shells
 n=1   0   2 P   1                   # n, l, Nzeta, Polarization, NzetaPol
   6.518      2.141   
   1.000      1.000   
%endblock PAO.Basis

prinput: ----------------------------------------------------------------------

Dumping basis to NetCDF file O.ion.nc
Dumping basis to NetCDF file N.ion.nc
Dumping basis to NetCDF file Si.ion.nc
Dumping basis to NetCDF file H.ion.nc
coor:   Atomic-coordinates input format  =     Cartesian coordinates
coor:                                          (in Angstroms)

siesta: Atomic coordinates (Bohr) and species
siesta:      1.97217   7.44407   0.00000  1        1
siesta:     -5.74598   2.02405   0.00000  2        2
siesta:      3.88264   2.29334   0.00000  2        3
siesta:      1.88786  -3.27422   0.00000  2        4
siesta:     -4.02956  -3.42601   0.00000  2        5
siesta:      7.29471  -2.10194   0.00000  2        6
siesta:     -2.33605   2.17879   0.00000  3        7
siesta:     -1.00708  -1.77447   0.00000  3        8
siesta:      1.20122   4.48719   0.00000  3        9
siesta:      4.24276  -1.03929   0.00000  3       10
siesta:     -6.51921  -1.10297   0.00000  3       11
siesta:      5.60061   3.38449   0.00000  4       12
siesta:     -9.15684  -2.12320   0.00000  4       13
siesta:      7.57218  -4.06728   0.00000  4       14
siesta:      9.01814  -0.94924   0.00000  4       15
siesta:     -4.28099  -5.41332   0.00000  4       16
siesta:     16.54262  14.18726   0.00000  3       17
siesta:     20.14233  16.46748   0.00000  3       18
siesta:     19.20549   8.95964   0.00000  3       19
siesta:     23.13134  13.62579   0.00000  3       20
siesta:     16.65529  10.94179   0.00000  2       21
siesta:     13.63407  15.61150   0.00000  2       22
siesta:     22.32788  10.33883   0.00000  2       23
siesta:     20.50392  19.28724   0.00000  4       24
siesta:     25.93639  14.03913   0.00000  4       25
siesta:     13.42366  17.59420   0.00000  4       26
siesta:     11.87179  14.43059   0.00000  4       27
siesta:     19.18616   5.92075   0.00000  1       28
siesta:     23.79322   8.96559   0.00000  4       29

siesta: Automatic unit cell vectors (Ang):
siesta:   28.016169    0.000000    0.000000
siesta:    0.000000   21.966648    0.000000
siesta:    0.000000    0.000000    9.854683

siesta: System type = molecule  

initatomlists: Number of atoms, orbitals, and projectors:     29   297   394

siesta: ******************** Simulation parameters ****************************
siesta:
siesta: The following are some of the parameters of the simulation.
siesta: A complete list of the parameters used, including default values,
siesta: can be found in file out.fdf
siesta:
redata: Spin configuration                          = spin-orbit
redata: Number of spin components                   = 8
redata: Time-Reversal Symmetry                      = F
redata: Spin spiral                                 = F
############################################################
This spin-orbit implementation uses a local approximation.
From 4.2 and onwards the full non-local approximation is implemented
You are strongly advised to use >=4.2 versions!
############################################################
redata: Long output                                 =   F
redata: Number of Atomic Species                    =        4
redata: Charge density info will appear in .RHO file
redata: Write Mulliken Pop.                         = Atomic and Orbital charges
redata: Matel table size (NRTAB)                    =     1024
redata: Mesh Cutoff                                 =   340.0000 Ry
redata: Net charge of the system                    =     0.0000 |e|
redata: Min. number of SCF Iter                     =        1
redata: Max. number of SCF Iter                     =      200
redata: SCF mix quantity                            = Hamiltonian
redata: Mix DM or H after convergence               =   F
redata: Recompute H after scf cycle                 =   F
redata: Mix DM in first SCF step                    =   T
redata: Write Pulay info on disk                    =   F
redata: New DM Occupancy tolerance                  = 0.000000000001
redata: No kicks to SCF
redata: DM Mixing Weight for Kicks                  =     0.5000
redata: Require Harris convergence for SCF          =   F
redata: Harris energy tolerance for SCF             =     0.000100 eV
redata: Require DM convergence for SCF              =   T
redata: DM tolerance for SCF                        =     0.000008
redata: Require EDM convergence for SCF             =   F
redata: EDM tolerance for SCF                       =     0.001000 eV
redata: Require H convergence for SCF               =   T
redata: Hamiltonian tolerance for SCF               =     0.000001 eV
redata: Require (free) Energy convergence for SCF   =   F
redata: (free) Energy tolerance for SCF             =     0.000100 eV
redata: Using Saved Data (generic)                  =   F
redata: Use continuation files for DM               =   F
redata: Neglect nonoverlap interactions             =   F
redata: Method of Calculation                       = Diagonalization
redata: Electronic Temperature                      =   299.9978 K
redata: Fix the spin of the system                  =   F
redata: Dynamics option                             = Single-point calculation
mix.SCF: Pulay mixing                            = Pulay
mix.SCF:    Variant                              = stable
mix.SCF:    History steps                        = 6
mix.SCF:    Linear mixing weight                 =     0.250000
mix.SCF:    Mixing weight                        =     0.250000
mix.SCF:    SVD condition                        = 0.1000E-07
mix.SCF:    Restart steps                        = 24
mix.SCF:    Restart save steps                   = 3
mix.SCF: Spin-component mixing                   all
redata: Save all siesta data in one NC              =   F
redata: ***********************************************************************

%block SCF.Mixers
  Pulay
%endblock SCF.Mixers

%block SCF.Mixer.Pulay
  # Mixing method
  method pulay
  variant stable

  # Mixing options
  weight 0.2500
  weight.linear 0.2500
  history 6
  restart 24
  restart.save 3
%endblock SCF.Mixer.Pulay

DM_history_depth set to one: no extrapolation allowed by default for geometry relaxation
Size of DM history Fstack: 1
Total number of electrons:    98.000000
Total ionic charge:    98.000000

* ProcessorY, Blocksize:    2  24


* Orbital distribution balance (max,min):    81    72


Time-reversal symmetry not used.

siesta: k-grid: Number of k-points =     1
siesta: k-grid: Cutoff (effective) =     4.927 Ang
siesta: k-grid: Supercell and displacements
siesta: k-grid:    1   0   0      0.000
siesta: k-grid:    0   1   0      0.000
siesta: k-grid:    0   0   1      0.000

diag: Algorithm                                     = ELPA-1stage
diag: Parallel over k                               =   F
diag: Use parallel 2D distribution                  =   T
diag: Parallel block-size                           = 24
diag: Parallel distribution                         =     2 x     2
diag: Used triangular part                          = Lower
diag: Absolute tolerance                            =  0.100E-15
diag: Orthogonalization factor                      =  0.100E-05
diag: Memory factor                                 =  1.0000


ts: **************************************************************
ts: Save H and S matrices                           =    F
ts: Save DM and EDM matrices                        =    F
ts: Only save the overlap matrix S                  =    F
ts: **************************************************************

************************ Begin: TS CHECKS AND WARNINGS ************************
************************ End: TS CHECKS AND WARNINGS **************************


                     ====================================
                        Single-point calculation
                     ====================================

outcoor: Atomic coordinates (Ang):                          
    1.04362488    3.93922861    0.00000000   1       1  O
   -3.04064129    1.07107817    0.00000000   2       2  N
    2.05460145    1.21358207    0.00000000   2       3  N
    0.99901410   -1.73264380    0.00000000   2       4  N
   -2.13235164   -1.81296822    0.00000000   2       5  N
    3.86019055   -1.11229818    0.00000000   2       6  N
   -1.23618322    1.15296446    0.00000000   3       7  Si
   -0.53292426   -0.93900627    0.00000000   3       8  Si
    0.63566047    2.37451677    0.00000000   3       9  Si
    2.24517024   -0.54996710    0.00000000   3      10  Si
   -3.44981666   -0.58366503    0.00000000   3      11  Si
    2.96371409    1.79099263    0.00000000   4      12  H
   -4.84559135   -1.12354966    0.00000000   4      13  H
    4.00702091   -2.15230856    0.00000000   4      14  H
    4.77219438   -0.50231816    0.00000000   4      15  H
   -2.26539909   -2.86460511    0.00000000   4      16  H
    8.75397360    7.50757095    0.00000000   3      17  Si
   10.65885757    8.71420989    0.00000000   3      18  Si
   10.16310343    4.74123598    0.00000000   3      19  Si
   12.24057372    7.21045314    0.00000000   3      20  Si
    8.81359627    5.79014338    0.00000000   2      21  N
    7.21483854    8.26124826    0.00000000   2      22  N
   11.81539869    5.47107320    0.00000000   2      23  N
   10.85020237   10.20636364    0.00000000   4      24  H
   13.72494170    7.42918396    0.00000000   4      25  H
    7.10349326    9.31044337    0.00000000   4      26  H
    6.28228083    7.63633408    0.00000000   4      27  H
   10.15287660    3.13312486    0.00000000   1      28  O
   12.59082457    4.74438164    0.00000000   4      29  H

outcell: Unit cell vectors (Ang):
       28.016169    0.000000    0.000000
        0.000000   21.966648    0.000000
        0.000000    0.000000    9.854683

outcell: Cell vector modules (Ang)   :   28.016169   21.966648    9.854683
outcell: Cell angles (23,13,12) (deg):     90.0000     90.0000     90.0000
outcell: Cell volume (Ang**3)        :   6064.7824
<dSpData1D:S at geom step 0
  <sparsity:sparsity for geom step 0
    nrows_g=297 nrows=81 sparsity=.1371 nnzs=12093, refcount: 8>
  <dData1D:(new from dSpData1D) n=12093, refcount: 1>
refcount: 1>
new_DM -- step:     1
Initializing Density Matrix...
DM filled with atomic data:
<dSpData2D:DM initialized from atoms
  <sparsity:sparsity for geom step 0
    nrows_g=297 nrows=81 sparsity=.1371 nnzs=12093, refcount: 9>
  <dData2D:DM n=12093 m=8, refcount: 1>
refcount: 1>
     spin moment: S , {S} =   56.00000   0.00000   0.00000  56.00000
No. of atoms with KB's overlaping orbs in proc 0. Max # of overlaps:      29     142

Initializing spin-orbit part of the Hamiltonian
  Adding spin-orbit effects for O 
  Adding spin-orbit effects for N 
  Adding spin-orbit effects for Si
  Adding spin-orbit effects for H 


New grid distribution:   1
           1       1:  160    1:   63    1:   30
           2       1:  160    1:   63   31:   60
           3       1:  160   64:  125    1:   30
           4       1:  160   64:  125   31:   60

InitMesh: MESH =   320 x   250 x   120 =     9600000
InitMesh: (bp) =   160 x   125 x    60 =     1200000
InitMesh: Mesh cutoff (required, used) =   340.000   357.976 Ry
ExtMesh (bp) on 0 =   264 x   167 x   142 =     6260496
New grid distribution:   2
           1      59:  160    1:   39    1:   60
           2       1:   58    1:   40    1:   60
           3      59:  160   40:  125    1:   60
           4       1:   58   41:  125    1:   60
New grid distribution:   3
           1      60:  160    1:   42    1:   60
           2       1:   59    1:   41    1:   60
           3      60:  160   43:  125    1:   60
           4       1:   59   42:  125    1:   60
Setting up quadratic distribution...
ExtMesh (bp) on 0 =   206 x   143 x   172 =     5066776
PhiOnMesh: Number of (b)points on node 0 =               238680
PhiOnMesh: nlist on node 0 =              2528596

stepf: Fermi-Dirac step function

siesta: Program's energy decomposition (eV):
siesta: Ebs     =      -626.543466
siesta: Eions   =      3585.165840
siesta: Ena     =       382.019161
siesta: Ekin    =      3369.930388
siesta: Enl     =     -3298.462190
siesta: Eso     =        -0.003411
siesta: Edftu   =         0.000000
siesta: DEna    =       153.676073
siesta: DUscf   =        82.041535
siesta: DUext   =         0.000000
siesta: Exc     =     -1204.265815
siesta: eta*DQ  =         0.000000
siesta: Emadel  =         0.000000
siesta: Emeta   =         0.000000
siesta: Emolmec =         0.000000
siesta: Ekinion =         0.000000
siesta: Eharris =     -4019.951177
siesta: Etot    =     -4100.230097
siesta: FreeEng =     -4100.231519

        iscf     Eharris(eV)        E_KS(eV)     FreeEng(eV)     dDmax    Ef(eV) dHmax(eV)
   scf:    1    -4019.951177    -4100.230097    -4100.231519  0.964979 -4.904555 21.902026
     spin moment: S , {S} =    2.00726  -0.00000  -0.00000   2.00726
timer: Routine,Calls,Time,% = IterSCF        1      13.486  19.14
   scf:    2    -4146.519742    -4135.598831    -4135.600787  0.448598 -4.235539 11.835991
     spin moment: S , {S} =    1.98796   0.00000   0.00000   1.98796
   scf:    3    -4102.478950    -4131.950189    -4131.973203  0.419723 -4.340958 12.622770
     spin moment: S , {S} =    2.28426  -0.00000   0.00000   2.28426
   scf:    4    -4149.973240    -4144.886398    -4144.886398  0.318927 -3.908475  7.170786
     spin moment: S , {S} =    0.00010   0.00000  -0.00000   0.00010
   scf:    5    -4146.285210    -4145.695242    -4145.695242  0.037581 -3.692102  4.646319
     spin moment: S , {S} =    0.00006   0.00000   0.00000   0.00006
   scf:    6    -4146.456492    -4146.084306    -4146.084306  0.024329 -3.669335  2.331254
     spin moment: S , {S} =    0.00003   0.00000  -0.00000   0.00003
   scf:    7    -4146.447673    -4146.262053    -4146.262053  0.022284 -3.571092  0.885082
     spin moment: S , {S} =    0.00001   0.00000   0.00000   0.00001
   scf:    8    -4146.378493    -4146.318376    -4146.318376  0.011981 -3.815547  0.521204
     spin moment: S , {S} =    0.00000   0.00000   0.00000   0.00000
   scf:    9    -4146.357971    -4146.337464    -4146.337464  0.006732 -3.770880  0.406470
     spin moment: S , {S} =    0.00000   0.00000   0.00000   0.00000
   scf:   10    -4146.390927    -4146.356779    -4146.356779  0.023156 -3.805652  0.254472
     spin moment: S , {S} =    0.00000   0.00000   0.00000  -0.00000
   scf:   11    -4146.360966    -4146.358917    -4146.358917  0.005687 -3.788364  0.070902
     spin moment: S , {S} =    0.00000   0.00000   0.00000  -0.00000
   scf:   12    -4146.360407    -4146.359679    -4146.359679  0.001133 -3.783731  0.032696
     spin moment: S , {S} =    0.00000   0.00000   0.00000  -0.00000
   scf:   13    -4146.360285    -4146.359979    -4146.359979  0.001140 -3.780256  0.021488
     spin moment: S , {S} =    0.00000   0.00000   0.00000  -0.00000
   scf:   14    -4146.360285    -4146.360126    -4146.360126  0.000730 -3.779974  0.012799
     spin moment: S , {S} =    0.00000   0.00000   0.00000  -0.00000
   scf:   15    -4146.360259    -4146.360188    -4146.360188  0.000755 -3.778863  0.007650
     spin moment: S , {S} =    0.00000  -0.00000   0.00000  -0.00000
   scf:   16    -4146.360256    -4146.360219    -4146.360219  0.000674 -3.778077  0.005134
     spin moment: S , {S} =    0.00000  -0.00000   0.00000   0.00000
   scf:   17    -4146.360237    -4146.360227    -4146.360227  0.000371 -3.777947  0.003769
     spin moment: S , {S} =    0.00000  -0.00000   0.00000   0.00000
   scf:   18    -4146.360235    -4146.360231    -4146.360231  0.000233 -3.778120  0.002566
     spin moment: S , {S} =    0.00000  -0.00000   0.00000   0.00000
   scf:   19    -4146.360235    -4146.360233    -4146.360233  0.000212 -3.778310  0.001714
     spin moment: S , {S} =    0.00000  -0.00000   0.00000   0.00000
   scf:   20    -4146.360234    -4146.360233    -4146.360233  0.000101 -3.778348  0.001252
     spin moment: S , {S} =    0.00000  -0.00000   0.00000   0.00000
   scf:   21    -4146.360235    -4146.360234    -4146.360234  0.000151 -3.778340  0.000741
     spin moment: S , {S} =    0.00000  -0.00000   0.00000   0.00000
   scf:   22    -4146.360235    -4146.360234    -4146.360234  0.000102 -3.778309  0.000298
     spin moment: S , {S} =    0.00000  -0.00000   0.00000   0.00000
   scf:   23    -4146.360234    -4146.360234    -4146.360234  0.000048 -3.778301  0.000151
     spin moment: S , {S} =    0.00000  -0.00000   0.00000   0.00000
   scf:   24    -4146.360234    -4146.360234    -4146.360234  0.000020 -3.778303  0.000096
     spin moment: S , {S} =    0.00000  -0.00000   0.00000   0.00000
mix: Pulay -- resetting history
   scf:   25    -4146.360234    -4146.360234    -4146.360234  0.000013 -3.778305  0.000057
     spin moment: S , {S} =    0.00000  -0.00000   0.00000   0.00000
   scf:   26    -4146.360234    -4146.360234    -4146.360234  0.000004 -3.778306  0.000035
     spin moment: S , {S} =    0.00000  -0.00000   0.00000   0.00000
   scf:   27    -4146.360234    -4146.360234    -4146.360234  0.000004 -3.778305  0.000021
     spin moment: S , {S} =    0.00000  -0.00000   0.00000   0.00000
   scf:   28    -4146.360234    -4146.360234    -4146.360234  0.000002 -3.778304  0.000012
     spin moment: S , {S} =    0.00000  -0.00000   0.00000   0.00000
   scf:   29    -4146.360234    -4146.360234    -4146.360234  0.000001 -3.778304  0.000008
     spin moment: S , {S} =    0.00000  -0.00000   0.00000   0.00000
   scf:   30    -4146.360234    -4146.360234    -4146.360234  0.000001 -3.778304  0.000004
     spin moment: S , {S} =    0.00000  -0.00000   0.00000   0.00000
   scf:   31    -4146.360234    -4146.360234    -4146.360234  0.000000 -3.778304  0.000003
     spin moment: S , {S} =    0.00000  -0.00000   0.00000   0.00000
   scf:   32    -4146.360234    -4146.360234    -4146.360234  0.000000 -3.778304  0.000002
     spin moment: S , {S} =    0.00000  -0.00000   0.00000   0.00000
   scf:   33    -4146.360234    -4146.360234    -4146.360234  0.000000 -3.778304  0.000001
     spin moment: S , {S} =    0.00000  -0.00000   0.00000   0.00000

SCF Convergence by DM+H criterion
max |DM_out - DM_in|         :     0.0000002061
max |H_out - H_in|      (eV) :     0.0000009557
SCF cycle converged after 33 iterations

Using DM_out to compute the final energy and forces
No. of atoms with KB's overlaping orbs in proc 0. Max # of overlaps:      29     142

siesta: E_KS(eV) =            -4146.3602

siesta: E_KS - E_eggbox =     -4146.3602
     spin moment: S , {S} =    0.00000  -0.00000   0.00000   0.00000

siesta: Atomic forces (eV/Ang):
     1    1.182266    1.531739   -0.000000
     2    0.019298    0.030886    0.000000
     3    0.817953   -0.448331   -0.000000
     4    0.801369   -0.015908    0.000000
     5    0.047795   -0.094370    0.000000
     6    1.857125    0.653362    0.000000
     7    0.041620   -0.267722    0.000000
     8   -0.457083    0.312977   -0.000000
     9   -0.222797    1.334081    0.000000
    10   -1.140501    0.381718    0.000000
    11   -0.027175   -0.019066   -0.000000
    12   -0.354742   -0.244007   -0.000000
    13    0.066391   -0.036864    0.000000
    14    0.234132   -0.078514    0.000000
    15   -1.354603   -0.938445   -0.000000
    16   -0.085808    0.098053    0.000000
    17    1.105977   -1.178273   -0.000000
    18   -0.233203    0.212637    0.000000
    19   -0.193080   -1.365498    0.000000
    20   -0.010225   -0.456084    0.000000
    21   -0.349870    1.124764    0.000000
    22   -2.266768   -0.869974   -0.000000
    23    0.274630    0.611463   -0.000000
    24    0.151059   -0.152740   -0.000000
    25    0.104529    0.041056   -0.000000
    26   -0.390227   -0.150029    0.000000
    27    1.778640    1.418552    0.000000
    28    0.856093    2.294115   -0.000000
    29    0.056843    0.101222   -0.000000
----------------------------------------
   Tot    2.309638    3.830799    0.000000
----------------------------------------
   Max    2.294115
   Res    0.676013    sqrt( Sum f_i^2 / 3N )
----------------------------------------
   Max    2.294115    constrained

Stress tensor Voigt[x,y,z,yz,xz,xy] (kbar):       -0.16        1.32       -0.10       -0.00        0.00        1.23
(Free)E + p*V (eV/cell)    -4147.7084
Target enthalpy (eV/cell)    -4146.3602

mulliken: Atomic and Orbital Populations:

Species: O                   

Atom      Orb        Charge      Spin       Svec
----------------------------------------------------------------
    1  1 2s         1.74831   0.00000      0.000   0.000  -0.000
    1  2 2s         0.06685   0.00000     -0.000  -0.000   0.000
    1  3 2py        1.42151   0.00000     -0.000  -0.000  -0.000
    1  4 2pz        1.54107   0.00000     -0.000   0.000  -0.000
    1  5 2px        1.62255   0.00000     -0.000  -0.000  -0.000
    1  6 2py        0.04076   0.00000      0.000   0.000   0.000
    1  7 2pz       -0.00444   0.00000      0.000   0.000   0.000
    1  8 2px        0.00708   0.00000      0.000   0.000   0.000
    1  9 3Pdxy      0.00713   0.00000     -0.000   0.000   0.000
    1 10 3Pdyz      0.00914   0.00000     -0.000   0.000   0.000
    1 11 3Pdz2      0.00161   0.00000     -0.000   0.000  -0.000
    1 12 3Pdxz      0.00039   0.00000      0.000  -0.000   0.000
    1 13 3Pdx2-y2   0.00700   0.00000      0.000  -0.000   0.000
    1     Total     6.46897   0.00000     -0.000   0.000  -0.000

   28  1 2s         1.74708   0.00000      0.000  -0.000   0.000
   28  2 2s         0.06706   0.00000     -0.000   0.000   0.000
   28  3 2py        1.40451   0.00000     -0.000  -0.000   0.000
   28  4 2pz        1.54016   0.00000      0.000   0.000   0.000
   28  5 2px        1.64408   0.00000     -0.000  -0.000   0.000
   28  6 2py        0.04387   0.00000      0.000   0.000   0.000
   28  7 2pz       -0.00357   0.00000     -0.000  -0.000   0.000
   28  8 2px        0.01064   0.00000      0.000  -0.000   0.000
   28  9 3Pdxy      0.00652   0.00000     -0.000  -0.000   0.000
   28 10 3Pdyz      0.00985   0.00000     -0.000  -0.000  -0.000
   28 11 3Pdz2      0.00127   0.00000      0.000   0.000   0.000
   28 12 3Pdxz     -0.00018   0.00000      0.000   0.000   0.000
   28 13 3Pdx2-y2   0.00774   0.00000     -0.000  -0.000  -0.000
   28     Total     6.47902   0.00000     -0.000  -0.000   0.000

----------------------------------------------------------------
Total              12.94799   0.00000     -0.000  -0.000   0.000


Species: N                   

Atom      Orb        Charge      Spin       Svec
----------------------------------------------------------------
    2  1 2s         1.55181   0.00000     -0.000   0.000  -0.000
    2  2 2s         0.08402   0.00000      0.000  -0.000   0.000
    2  3 2py        1.04326   0.00000      0.000  -0.000  -0.000
    2  4 2pz        1.22414   0.00000      0.000  -0.000  -0.000
    2  5 2px        0.98895   0.00000      0.000  -0.000  -0.000
    2  6 2py        0.18869   0.00000     -0.000   0.000   0.000
    2  7 2pz        0.05548   0.00000     -0.000   0.000   0.000
    2  8 2px        0.19602   0.00000     -0.000   0.000   0.000
    2  9 3Pdxy      0.00840   0.00000     -0.000  -0.000  -0.000
    2 10 3Pdyz      0.01100   0.00000     -0.000   0.000   0.000
    2 11 3Pdz2      0.00196   0.00000      0.000  -0.000   0.000
    2 12 3Pdxz      0.00757   0.00000     -0.000   0.000   0.000
    2 13 3Pdx2-y2   0.00910   0.00000     -0.000   0.000  -0.000
    2     Total     5.37040   0.00000      0.000  -0.000  -0.000

    3  1 2s         1.40131   0.00000     -0.000  -0.000  -0.000
    3  2 2s         0.11611   0.00000      0.000   0.000   0.000
    3  3 2py        0.94139   0.00000     -0.000   0.000  -0.000
    3  4 2pz        1.54313   0.00000      0.000   0.000  -0.000
    3  5 2px        1.08120   0.00000      0.000  -0.000  -0.000
    3  6 2py        0.24858   0.00000      0.000  -0.000   0.000
    3  7 2pz        0.00749   0.00000     -0.000  -0.000   0.000
    3  8 2px        0.17874   0.00000     -0.000   0.000   0.000
    3  9 3Pdxy      0.00402   0.00000     -0.000  -0.000   0.000
    3 10 3Pdyz      0.00420   0.00000     -0.000   0.000  -0.000
    3 11 3Pdz2      0.00075   0.00000     -0.000   0.000   0.000
    3 12 3Pdxz      0.00280   0.00000      0.000  -0.000  -0.000
    3 13 3Pdx2-y2   0.00286   0.00000      0.000  -0.000  -0.000
    3     Total     5.53259   0.00000      0.000   0.000  -0.000

    4  1 2s         1.45964   0.00000     -0.000   0.000  -0.000
    4  2 2s         0.11896   0.00000      0.000  -0.000   0.000
    4  3 2py        1.13134   0.00000     -0.000   0.000  -0.000
    4  4 2pz        1.29437   0.00000      0.000  -0.000  -0.000
    4  5 2px        0.82589   0.00000     -0.000   0.000  -0.000
    4  6 2py        0.14945   0.00000      0.000  -0.000   0.000
    4  7 2pz        0.05370   0.00000     -0.000   0.000   0.000
    4  8 2px        0.29227   0.00000     -0.000  -0.000   0.000
    4  9 3Pdxy      0.00869   0.00000     -0.000  -0.000  -0.000
    4 10 3Pdyz      0.01045   0.00000      0.000   0.000   0.000
    4 11 3Pdz2      0.00126   0.00000      0.000  -0.000  -0.000
    4 12 3Pdxz      0.00500   0.00000     -0.000  -0.000  -0.000
    4 13 3Pdx2-y2   0.00797   0.00000      0.000   0.000  -0.000
    4     Total     5.35900   0.00000      0.000  -0.000  -0.000

    5  1 2s         1.37629   0.00000      0.000  -0.000  -0.000
    5  2 2s         0.12791   0.00000     -0.000   0.000   0.000
    5  3 2py        1.02647   0.00000      0.000  -0.000  -0.000
    5  4 2pz        1.50093   0.00000      0.000   0.000  -0.000
    5  5 2px        1.05989   0.00000      0.000  -0.000  -0.000
    5  6 2py        0.20358   0.00000      0.000   0.000   0.000
    5  7 2pz        0.01338   0.00000     -0.000  -0.000   0.000
    5  8 2px        0.20095   0.00000     -0.000   0.000   0.000
    5  9 3Pdxy      0.00393   0.00000     -0.000   0.000   0.000
    5 10 3Pdyz      0.00241   0.00000      0.000   0.000   0.000
    5 11 3Pdz2      0.00142   0.00000      0.000  -0.000   0.000
    5 12 3Pdxz      0.00685   0.00000      0.000  -0.000   0.000
    5 13 3Pdx2-y2   0.00560   0.00000     -0.000   0.000   0.000
    5     Total     5.52962   0.00000      0.000  -0.000  -0.000

    6  1 2s         1.26993   0.00000      0.000  -0.000  -0.000
    6  2 2s         0.17891   0.00000      0.000   0.000   0.000
    6  3 2py        1.07642   0.00000      0.000  -0.000  -0.000
    6  4 2pz        1.57579   0.00000     -0.000   0.000  -0.000
    6  5 2px        0.95512   0.00000      0.000  -0.000  -0.000
    6  6 2py        0.18794   0.00000     -0.000  -0.000   0.000
    6  7 2pz        0.02974   0.00000      0.000  -0.000   0.000
    6  8 2px        0.25557   0.00000      0.000   0.000   0.000
    6  9 3Pdxy      0.00251   0.00000     -0.000   0.000   0.000
    6 10 3Pdyz      0.00017   0.00000      0.000   0.000  -0.000
    6 11 3Pdz2      0.00178   0.00000     -0.000   0.000   0.000
    6 12 3Pdxz      0.00324   0.00000      0.000  -0.000  -0.000
    6 13 3Pdx2-y2   0.00395   0.00000     -0.000   0.000   0.000
    6     Total     5.54108   0.00000      0.000  -0.000  -0.000

   21  1 2s         1.42501   0.00000      0.000  -0.000  -0.000
   21  2 2s         0.12775   0.00000     -0.000   0.000   0.000
   21  3 2py        0.87079   0.00000      0.000   0.000  -0.000
   21  4 2pz        1.29376   0.00000      0.000   0.000   0.000
   21  5 2px        1.15601   0.00000     -0.000  -0.000  -0.000
   21  6 2py        0.27576   0.00000     -0.000  -0.000   0.000
   21  7 2pz        0.04908   0.00000     -0.000  -0.000   0.000
   21  8 2px        0.16341   0.00000      0.000   0.000   0.000
   21  9 3Pdxy      0.00653   0.00000     -0.000  -0.000  -0.000
   21 10 3Pdyz      0.00512   0.00000     -0.000  -0.000  -0.000
   21 11 3Pdz2      0.00017   0.00000     -0.000   0.000   0.000
   21 12 3Pdxz      0.00575   0.00000      0.000  -0.000   0.000
   21 13 3Pdx2-y2   0.00562   0.00000     -0.000  -0.000  -0.000
   21     Total     5.38476   0.00000      0.000  -0.000   0.000

   22  1 2s         1.29428   0.00000      0.000   0.000   0.000
   22  2 2s         0.16773   0.00000     -0.000  -0.000   0.000
   22  3 2py        1.05551   0.00000     -0.000   0.000  -0.000
   22  4 2pz        1.55959   0.00000      0.000   0.000  -0.000
   22  5 2px        0.98127   0.00000     -0.000  -0.000  -0.000
   22  6 2py        0.19687   0.00000      0.000   0.000   0.000
   22  7 2pz        0.02815   0.00000     -0.000  -0.000   0.000
   22  8 2px        0.23525   0.00000      0.000  -0.000   0.000
   22  9 3Pdxy      0.00333   0.00000     -0.000   0.000   0.000
   22 10 3Pdyz      0.00035   0.00000      0.000  -0.000  -0.000
   22 11 3Pdz2      0.00257   0.00000     -0.000  -0.000  -0.000
   22 12 3Pdxz      0.00314   0.00000     -0.000  -0.000  -0.000
   22 13 3Pdx2-y2   0.00476   0.00000      0.000  -0.000  -0.000
   22     Total     5.53279   0.00000     -0.000   0.000  -0.000

   23  1 2s         1.39744   0.00000     -0.000   0.000   0.000
   23  2 2s         0.11780   0.00000      0.000  -0.000  -0.000
   23  3 2py        1.00640   0.00000     -0.000  -0.000  -0.000
   23  4 2pz        1.52393   0.00000      0.000   0.000  -0.000
   23  5 2px        1.06550   0.00000      0.000  -0.000  -0.000
   23  6 2py        0.21172   0.00000      0.000   0.000   0.000
   23  7 2pz        0.00496   0.00000     -0.000  -0.000   0.000
   23  8 2px        0.19801   0.00000     -0.000   0.000   0.000
   23  9 3Pdxy      0.00530   0.00000      0.000  -0.000  -0.000
   23 10 3Pdyz      0.00445   0.00000     -0.000  -0.000  -0.000
   23 11 3Pdz2      0.00058   0.00000      0.000   0.000  -0.000
   23 12 3Pdxz      0.00243   0.00000      0.000  -0.000  -0.000
   23 13 3Pdx2-y2   0.00138   0.00000     -0.000   0.000  -0.000
   23     Total     5.53990   0.00000      0.000  -0.000  -0.000

----------------------------------------------------------------
Total              56.73813   0.00000      0.000  -0.000  -0.000


Species: Si                  

Atom      Orb        Charge      Spin       Svec
----------------------------------------------------------------
    7  1 3s         0.66756   0.00000      0.000  -0.000   0.000
    7  2 3s         0.36518   0.00000     -0.000   0.000   0.000
    7  3 3py        0.48746   0.00000      0.000   0.000   0.000
    7  4 3pz        0.68879   0.00000      0.000   0.000  -0.000
    7  5 3px        0.12469   0.00000      0.000  -0.000  -0.000
    7  6 3py        0.26479   0.00000      0.000  -0.000   0.000
    7  7 3pz        0.25938   0.00000     -0.000   0.000   0.000
    7  8 3px        0.43867   0.00000     -0.000   0.000   0.000
    7  9 3Pdxy      0.24577   0.00000     -0.000  -0.000   0.000
    7 10 3Pdyz      0.02942   0.00000     -0.000  -0.000  -0.000
    7 11 3Pdz2      0.01176   0.00000      0.000  -0.000   0.000
    7 12 3Pdxz      0.14576   0.00000      0.000   0.000  -0.000
    7 13 3Pdx2-y2   0.11295   0.00000      0.000  -0.000  -0.000
    7     Total     3.84219   0.00000      0.000   0.000   0.000

    8  1 3s         0.65712   0.00000     -0.000  -0.000  -0.000
    8  2 3s         0.36840   0.00000      0.000   0.000   0.000
    8  3 3py        0.38780   0.00000     -0.000  -0.000  -0.000
    8  4 3pz        0.52716   0.00000      0.000  -0.000   0.000
    8  5 3px       -0.03112   0.00000      0.000   0.000  -0.000
    8  6 3py        0.30896   0.00000     -0.000   0.000   0.000
    8  7 3pz        0.20171   0.00000      0.000   0.000   0.000
    8  8 3px        0.51460   0.00000     -0.000  -0.000  -0.000
    8  9 3Pdxy      0.24572   0.00000      0.000  -0.000   0.000
    8 10 3Pdyz      0.11216   0.00000      0.000  -0.000  -0.000
    8 11 3Pdz2      0.01459   0.00000      0.000  -0.000   0.000
    8 12 3Pdxz      0.15300   0.00000      0.000   0.000   0.000
    8 13 3Pdx2-y2   0.20012   0.00000      0.000  -0.000   0.000
    8     Total     3.66023   0.00000      0.000  -0.000   0.000

    9  1 3s         0.60477   0.00000     -0.000   0.000   0.000
    9  2 3s         0.36644   0.00000      0.000  -0.000  -0.000
    9  3 3py        0.07594   0.00000      0.000   0.000  -0.000
    9  4 3pz        0.48425   0.00000     -0.000   0.000  -0.000
    9  5 3px        0.37767   0.00000     -0.000   0.000  -0.000
    9  6 3py        0.44731   0.00000     -0.000  -0.000   0.000
    9  7 3pz        0.18788   0.00000     -0.000  -0.000  -0.000
    9  8 3px        0.27386   0.00000      0.000  -0.000   0.000
    9  9 3Pdxy      0.31233   0.00000     -0.000   0.000  -0.000
    9 10 3Pdyz      0.18950   0.00000      0.000  -0.000  -0.000
    9 11 3Pdz2      0.01645   0.00000      0.000  -0.000   0.000
    9 12 3Pdxz      0.09657   0.00000     -0.000   0.000  -0.000
    9 13 3Pdx2-y2   0.17150   0.00000      0.000  -0.000   0.000
    9     Total     3.60447   0.00000     -0.000   0.000  -0.000

   10  1 3s         0.48360   0.00000      0.000   0.000   0.000
   10  2 3s         0.37729   0.00000     -0.000  -0.000   0.000
   10  3 3py        0.24236   0.00000      0.000  -0.000   0.000
   10  4 3pz        0.41014   0.00000     -0.000  -0.000   0.000
   10  5 3px        0.10138   0.00000     -0.000   0.000   0.000
   10  6 3py        0.32765   0.00000      0.000   0.000   0.000
   10  7 3pz        0.22213   0.00000     -0.000   0.000   0.000
   10  8 3px        0.42806   0.00000      0.000  -0.000  -0.000
   10  9 3Pdxy      0.16951   0.00000      0.000  -0.000  -0.000
   10 10 3Pdyz      0.14073   0.00000      0.000  -0.000   0.000
   10 11 3Pdz2      0.01046   0.00000      0.000   0.000   0.000
   10 12 3Pdxz      0.17443   0.00000      0.000  -0.000   0.000
   10 13 3Pdx2-y2   0.31048   0.00000      0.000   0.000  -0.000
   10     Total     3.39821   0.00000     -0.000  -0.000   0.000

   11  1 3s         0.55272   0.00000     -0.000  -0.000   0.000
   11  2 3s         0.38550   0.00000     -0.000  -0.000   0.000
   11  3 3py        0.32137   0.00000     -0.000   0.000   0.000
   11  4 3pz        0.53889   0.00000     -0.000   0.000   0.000
   11  5 3px        0.12315   0.00000      0.000  -0.000   0.000
   11  6 3py        0.28701   0.00000      0.000  -0.000   0.000
   11  7 3pz        0.17787   0.00000      0.000   0.000   0.000
   11  8 3px        0.44725   0.00000     -0.000   0.000  -0.000
   11  9 3Pdxy      0.22526   0.00000     -0.000  -0.000   0.000
   11 10 3Pdyz      0.12609   0.00000     -0.000   0.000   0.000
   11 11 3Pdz2      0.00955   0.00000     -0.000  -0.000  -0.000
   11 12 3Pdxz      0.05257   0.00000     -0.000  -0.000   0.000
   11 13 3Pdx2-y2   0.20365   0.00000     -0.000  -0.000   0.000
   11     Total     3.45087   0.00000     -0.000   0.000   0.000

   17  1 3s         0.64025   0.00000     -0.000   0.000   0.000
   17  2 3s         0.36024   0.00000      0.000  -0.000   0.000
   17  3 3py        0.22874   0.00000      0.000   0.000   0.000
   17  4 3pz        0.42492   0.00000     -0.000   0.000   0.000
   17  5 3px        0.24492   0.00000      0.000   0.000   0.000
   17  6 3py        0.38765   0.00000     -0.000  -0.000  -0.000
   17  7 3pz        0.21081   0.00000     -0.000  -0.000   0.000
   17  8 3px        0.36796   0.00000     -0.000  -0.000  -0.000
   17  9 3Pdxy      0.30240   0.00000     -0.000  -0.000  -0.000
   17 10 3Pdyz      0.14335   0.00000     -0.000  -0.000   0.000
   17 11 3Pdz2      0.00914   0.00000      0.000   0.000   0.000
   17 12 3Pdxz      0.14321   0.00000     -0.000  -0.000   0.000
   17 13 3Pdx2-y2   0.16314   0.00000      0.000   0.000  -0.000
   17     Total     3.62672   0.00000     -0.000   0.000   0.000

   18  1 3s         0.74450   0.00000     -0.000   0.000   0.000
   18  2 3s         0.33920   0.00000      0.000  -0.000   0.000
   18  3 3py        0.08092   0.00000      0.000  -0.000   0.000
   18  4 3pz        0.82445   0.00000      0.000  -0.000   0.000
   18  5 3px        0.55538   0.00000     -0.000  -0.000   0.000
   18  6 3py        0.51700   0.00000     -0.000   0.000   0.000
   18  7 3pz        0.19732   0.00000     -0.000   0.000   0.000
   18  8 3px        0.24983   0.00000      0.000   0.000   0.000
   18  9 3Pdxy      0.10344   0.00000     -0.000   0.000  -0.000
   18 10 3Pdyz      0.02736   0.00000     -0.000  -0.000  -0.000
   18 11 3Pdz2      0.00876   0.00000     -0.000   0.000  -0.000
   18 12 3Pdxz      0.03017   0.00000      0.000   0.000  -0.000
   18 13 3Pdx2-y2   0.11331   0.00000      0.000  -0.000   0.000
   18     Total     3.79164   0.00000     -0.000  -0.000   0.000

   19  1 3s         0.45885   0.00000      0.000   0.000  -0.000
   19  2 3s         0.36563   0.00000      0.000   0.000  -0.000
   19  3 3py        0.08224   0.00000      0.000   0.000   0.000
   19  4 3pz        0.42846   0.00000      0.000   0.000  -0.000
   19  5 3px        0.35468   0.00000      0.000   0.000   0.000
   19  6 3py        0.47052   0.00000     -0.000  -0.000  -0.000
   19  7 3pz        0.18359   0.00000     -0.000   0.000   0.000
   19  8 3px        0.23949   0.00000     -0.000  -0.000  -0.000
   19  9 3Pdxy      0.34161   0.00000     -0.000   0.000  -0.000
   19 10 3Pdyz      0.18775   0.00000     -0.000  -0.000  -0.000
   19 11 3Pdz2      0.01605   0.00000     -0.000   0.000  -0.000
   19 12 3Pdxz      0.08686   0.00000     -0.000  -0.000   0.000
   19 13 3Pdx2-y2   0.23609   0.00000     -0.000   0.000  -0.000
   19     Total     3.45181   0.00000     -0.000   0.000  -0.000

   20  1 3s         0.67308   0.00000      0.000   0.000  -0.000
   20  2 3s         0.37820   0.00000     -0.000   0.000   0.000
   20  3 3py        0.33167   0.00000     -0.000   0.000  -0.000
   20  4 3pz        0.58849   0.00000      0.000   0.000  -0.000
   20  5 3px        0.13757   0.00000     -0.000  -0.000  -0.000
   20  6 3py        0.29232   0.00000      0.000  -0.000   0.000
   20  7 3pz        0.16402   0.00000     -0.000  -0.000  -0.000
   20  8 3px        0.50002   0.00000      0.000   0.000   0.000
   20  9 3Pdxy      0.10047   0.00000      0.000  -0.000  -0.000
   20 10 3Pdyz      0.13399   0.00000      0.000  -0.000  -0.000
   20 11 3Pdz2      0.00735   0.00000      0.000  -0.000   0.000
   20 12 3Pdxz      0.02701   0.00000     -0.000   0.000   0.000
   20 13 3Pdx2-y2   0.17185   0.00000     -0.000  -0.000  -0.000
   20     Total     3.50604   0.00000      0.000   0.000  -0.000

----------------------------------------------------------------
Total              89.07030   0.00000     -0.000  -0.000   0.000


Species: H                   

Atom      Orb        Charge      Spin       Svec
----------------------------------------------------------------
   12  1 1s         0.49875   0.00000     -0.000  -0.000   0.000
   12  2 1s         0.18156   0.00000      0.000   0.000   0.000
   12  3 2Ppy       0.02924   0.00000     -0.000   0.000   0.000
   12  4 2Ppz       0.03451   0.00000     -0.000  -0.000   0.000
   12  5 2Ppx       0.02288   0.00000     -0.000   0.000   0.000
   12     Total     0.76694   0.00000     -0.000  -0.000   0.000

   13  1 1s         1.01875   0.00000     -0.000   0.000  -0.000
   13  2 1s         0.09540   0.00000      0.000  -0.000   0.000
   13  3 2Ppy       0.01808   0.00000     -0.000   0.000  -0.000
   13  4 2Ppz       0.02002   0.00000     -0.000   0.000   0.000
   13  5 2Ppx       0.03521   0.00000      0.000  -0.000   0.000
   13     Total     1.18747   0.00000     -0.000   0.000  -0.000

   14  1 1s         0.46019   0.00000     -0.000   0.000   0.000
   14  2 1s         0.19989   0.00000     -0.000   0.000   0.000
   14  3 2Ppy       0.01787   0.00000     -0.000   0.000   0.000
   14  4 2Ppz       0.04547   0.00000      0.000  -0.000   0.000
   14  5 2Ppx       0.01716   0.00000     -0.000   0.000   0.000
   14     Total     0.74058   0.00000     -0.000   0.000   0.000

   15  1 1s         0.50196   0.00000      0.000   0.000  -0.000
   15  2 1s         0.17798   0.00000      0.000  -0.000   0.000
   15  3 2Ppy       0.00528   0.00000      0.000   0.000  -0.000
   15  4 2Ppz       0.04374   0.00000      0.000  -0.000  -0.000
   15  5 2Ppx       0.02805   0.00000      0.000   0.000  -0.000
   15     Total     0.75702   0.00000      0.000   0.000   0.000

   16  1 1s         0.50989   0.00000      0.000   0.000   0.000
   16  2 1s         0.18726   0.00000     -0.000  -0.000   0.000
   16  3 2Ppy       0.02979   0.00000      0.000   0.000   0.000
   16  4 2Ppz       0.03983   0.00000     -0.000  -0.000   0.000
   16  5 2Ppx       0.02360   0.00000     -0.000  -0.000   0.000
   16     Total     0.79037   0.00000     -0.000   0.000   0.000

   24  1 1s         1.06338   0.00000      0.000   0.000  -0.000
   24  2 1s         0.07446   0.00000      0.000  -0.000   0.000
   24  3 2Ppy       0.03205   0.00000      0.000   0.000   0.000
   24  4 2Ppz       0.03079   0.00000      0.000   0.000   0.000
   24  5 2Ppx       0.01729   0.00000      0.000  -0.000  -0.000
   24     Total     1.21796   0.00000      0.000   0.000  -0.000

   25  1 1s         1.04319   0.00000      0.000  -0.000  -0.000
   25  2 1s         0.08646   0.00000     -0.000   0.000   0.000
   25  3 2Ppy       0.01228   0.00000     -0.000  -0.000  -0.000
   25  4 2Ppz       0.01843   0.00000      0.000  -0.000  -0.000
   25  5 2Ppx       0.03571   0.00000      0.000  -0.000   0.000
   25     Total     1.19607   0.00000      0.000  -0.000  -0.000

   26  1 1s         0.47602   0.00000     -0.000  -0.000   0.000
   26  2 1s         0.19615   0.00000      0.000   0.000   0.000
   26  3 2Ppy       0.02096   0.00000     -0.000  -0.000  -0.000
   26  4 2Ppz       0.04934   0.00000      0.000   0.000  -0.000
   26  5 2Ppx       0.01616   0.00000     -0.000  -0.000   0.000
   26     Total     0.75864   0.00000     -0.000  -0.000   0.000

   27  1 1s         0.51681   0.00000      0.000   0.000  -0.000
   27  2 1s         0.16853   0.00000     -0.000  -0.000   0.000
   27  3 2Ppy       0.00681   0.00000     -0.000   0.000  -0.000
   27  4 2Ppz       0.03859   0.00000      0.000   0.000   0.000
   27  5 2Ppx       0.02853   0.00000     -0.000  -0.000  -0.000
   27     Total     0.75927   0.00000      0.000   0.000  -0.000

   29  1 1s         0.48414   0.00000     -0.000   0.000   0.000
   29  2 1s         0.18786   0.00000      0.000  -0.000   0.000
   29  3 2Ppy       0.02513   0.00000     -0.000  -0.000  -0.000
   29  4 2Ppz       0.03411   0.00000     -0.000   0.000   0.000
   29  5 2Ppx       0.02414   0.00000     -0.000   0.000   0.000
   29     Total     0.75538   0.00000     -0.000   0.000   0.000

----------------------------------------------------------------
Total              98.00000   0.00000     -0.000   0.000   0.000


siesta: Eigenvalues (eV):
ik =     1
  -22.0014  -22.0014  -21.7304  -21.7304  -21.6110  -21.6110  -21.6010  -21.6010  -21.2638  -21.2638
  -20.9524  -20.9524  -20.8962  -20.8962  -19.8823  -19.8823  -19.3886  -19.3886  -19.3576  -19.3576
  -14.7230  -14.7230  -13.9360  -13.9360  -13.3356  -13.3356  -13.2633  -13.2633  -13.1365  -13.1365
  -12.9687  -12.9687  -12.8928  -12.8928  -12.5160  -12.5160  -12.3929  -12.3929  -12.0027  -12.0027
  -11.5248  -11.5248  -10.8050  -10.8050  -10.7822  -10.7822  -10.7557  -10.7557  -10.0616  -10.0616
   -9.5116   -9.5116   -9.2879   -9.2879   -8.8937   -8.8937   -8.7333   -8.7333   -8.7170   -8.7170
   -8.6472   -8.6472   -8.3646   -8.3646   -8.2320   -8.2320   -7.8382   -7.8382   -7.6819   -7.6819
   -7.4767   -7.4767   -7.4039   -7.4039   -7.3157   -7.3157   -6.9540   -6.9540   -6.7077   -6.7077
   -6.5508   -6.5508   -6.4595   -6.4595   -6.1290   -6.1290   -6.1020   -6.1020   -6.0388   -6.0388
   -5.6463   -5.6463   -5.6017   -5.6017   -5.4053   -5.4053   -4.3413   -4.3413   -3.2177   -3.2177
   -2.3445   -2.3445   -2.2830   -2.2830   -2.2769   -2.2769   -1.9316   -1.9316   -1.8953   -1.8953
   -1.8193   -1.8193   -1.7469   -1.7469   -1.6064   -1.6064   -1.5489   -1.5489   -0.9825   -0.9825
   -0.9435   -0.9435   -0.8705   -0.8705   -0.4218   -0.4218   -0.1266   -0.1266   -0.0083   -0.0083
    0.1974    0.1974    0.4005    0.4005    0.4921    0.4921    0.7152    0.7152    0.7258    0.7258
    0.9498    0.9498    1.1597    1.1597    1.3140    1.3140    1.3511    1.3511    1.4675    1.4675
    1.6391    1.6391    1.8127    1.8127    1.9029    1.9029    2.3014    2.3014    2.7130    2.7130
    2.7175    2.7175    2.8393    2.8393    2.9548    2.9548    3.1436    3.1436    3.3294    3.3294
    3.3442    3.3442    3.7367    3.7367    3.8111    3.8111    4.1060    4.1060    4.2454    4.2454
    4.4403    4.4403    4.5385    4.5385    4.5791    4.5791    4.6038    4.6038    4.8129    4.8129
    4.9172    4.9172    4.9728    4.9728    5.2044    5.2044    5.5281    5.5281    5.6242    5.6242
    5.6784    5.6784    5.8076    5.8076    5.8259    5.8259    5.9001    5.9001    5.9585    5.9585
    6.1886    6.1886    6.3000    6.3000    6.6623    6.6623    6.6911    6.6911    6.8377    6.8377
    7.0666    7.0666    7.1669    7.1669    7.3553    7.3553    7.4729    7.4729    7.7165    7.7165
    7.8276    7.8276    8.0298    8.0298    8.1137    8.1137    8.2015    8.2015    8.2949    8.2949
    8.4586    8.4586    8.6528    8.6528    8.7221    8.7221    8.9512    8.9512    9.1912    9.1912
    9.2055    9.2055    9.2262    9.2262    9.7830    9.7830    9.7873    9.7873    9.8461    9.8461
    9.9784    9.9784   10.1849   10.1849   10.4055   10.4055   10.6487   10.6487   10.7836   10.7836
   10.8721   10.8721   11.0562   11.0562   11.2405   11.2405   11.6834   11.6834   11.7829   11.7829
   11.8354   11.8354   11.9175   11.9175   12.1540   12.1540   12.3361   12.3361   12.5149   12.5149
   12.7227   12.7227   12.7672   12.7672   13.3488   13.3488   13.5151   13.5151   13.7327   13.7327
   13.7512   13.7512   14.0719   14.0719   14.1960   14.1960   14.3877   14.3877   14.7947   14.7947
   14.8872   14.8872   15.3539   15.3539   15.9659   15.9659   16.3876   16.3876   16.6906   16.6906
   16.9204   16.9204   17.3929   17.3929   17.6961   17.6961   18.1739   18.1739   18.2997   18.2997
   18.5575   18.5575   19.1271   19.1271   19.3059   19.3059   19.9071   19.9071   20.2670   20.2670
   20.9065   20.9065   21.3300   21.3300   21.7716   21.7716   22.2048   22.2048   22.3957   22.3957
   23.1062   23.1062   23.2483   23.2483   23.7364   23.7364   23.8229   23.8229   23.8270   23.8270
   24.8099   24.8099   25.1824   25.1824   26.0271   26.0271   26.7465   26.7465   27.3512   27.3512
   28.2945   28.2945   29.0541   29.0541   29.1155   29.1155   29.4716   29.4716   29.5660   29.5660
   30.0099   30.0099   30.0824   30.0824   30.2212   30.2212   30.5721   30.5721   30.7541   30.7541
   31.0029   31.0029   31.2015   31.2015   31.4952   31.4952   31.6153   31.6153   32.2124   32.2124
   32.7018   32.7018   33.8187   33.8187   34.4912   34.4912   34.7508   34.7508   34.9918   34.9918
   34.9926   34.9926   35.1832   35.1832   35.3528   35.3528   35.6294   35.6294   35.9332   35.9332
   36.7494   36.7494   36.7554   36.7554   36.9955   36.9955   37.1616   37.1616   37.4751   37.4751
   38.1398   38.1398   38.2533   38.2533   39.3791   39.3791   39.4332   39.4332   39.9010   39.9010
   40.2138   40.2138   40.5005   40.5005   40.6345   40.6345   40.6451   40.6451   40.9533   40.9533
   41.0087   41.0087   41.4555   41.4555   42.4087   42.4087   42.5944   42.5944   43.0336   43.0336
   43.1203   43.1203   43.7845   43.7845   43.8633   43.8633   44.0073   44.0073   44.2429   44.2429
   44.6523   44.6523   44.7292   44.7292   45.0140   45.0140   45.3157   45.3157   46.1139   46.1139
   46.3342   46.3342   46.8126   46.8126   47.1639   47.1639   48.6569   48.6569   48.9553   48.9553
   49.4199   49.4199   50.3420   50.3420   50.4697   50.4697   50.7409   50.7409   50.8911   50.8911
   51.3392   51.3392   51.6154   51.6154   52.6749   52.6749   52.7083   52.7083   54.1710   54.1710
   54.2372   54.2372   54.6145   54.6145   54.6871   54.6871   55.8093   55.8093   55.8392   55.8392
   55.8598   55.8598   56.0102   56.0102   56.5191   56.5191   57.8344   57.8344   58.1914   58.1914
   58.6447   58.6447   60.1097   60.1097   60.5125   60.5125   60.5240   60.5240   61.1210   61.1210
   61.8404   61.8404   61.9568   61.9568   62.1936   62.1936   64.4544   64.4544   66.4725   66.4725
   67.1146   67.1146   67.1613   67.1613   68.1958   68.1958   68.6948   68.6948   70.8141   70.8141
   74.0177   74.0177   79.9913   79.9913   91.0194   91.0194   91.9336   91.9336   93.3282   93.3282
   98.3488   98.3488   98.7401   98.7401   99.6919   99.6919  103.3142  103.3142  103.7162  103.7162
  110.0554  110.0554  111.5921  111.5921  123.6066  123.6066  125.7210  125.7210  129.9113  129.9113
  134.9786  134.9786  138.2356  138.2356
siesta: Fermi energy =      -3.778304 eV

siesta: Program's energy decomposition (eV):
siesta: Ebs     =     -1135.642882
siesta: Eions   =      3585.165840
siesta: Ena     =       382.019161
siesta: Ekin    =      2903.321240
siesta: Enl     =     -2788.066802
siesta: Eso     =        -0.004284
siesta: Edftu   =         0.000000
siesta: DEna    =        46.983526
siesta: DUscf   =        14.359862
siesta: DUext   =         0.000000
siesta: Exc     =     -1119.807098
siesta: eta*DQ  =         0.000000
siesta: Emadel  =         0.000000
siesta: Emeta   =         0.000000
siesta: Emolmec =         0.000000
siesta: Ekinion =         0.000000
siesta: Eharris =     -4146.360234
siesta: Etot    =     -4146.360234
siesta: FreeEng =     -4146.360234

siesta: Final energy (eV):
siesta:  Band Struct. =   -1135.642882
siesta:       Kinetic =    2903.321240
siesta:       Hartree =    8125.027122
siesta:       Edftu   =       0.000000
siesta:       Eso     =      -0.004284
siesta:    Ext. field =       0.000000
siesta:   Exch.-corr. =   -1119.807098
siesta:  Ion-electron =  -18835.384880
siesta:       Ion-ion =    4780.487666
siesta:       Ekinion =       0.000000
siesta:         Total =   -4146.360234
siesta:         Fermi =      -3.778304

siesta: Atomic forces (eV/Ang):
siesta:      1    1.182266    1.531739   -0.000000
siesta:      2    0.019298    0.030886    0.000000
siesta:      3    0.817953   -0.448331   -0.000000
siesta:      4    0.801369   -0.015908    0.000000
siesta:      5    0.047795   -0.094370    0.000000
siesta:      6    1.857125    0.653362    0.000000
siesta:      7    0.041620   -0.267722    0.000000
siesta:      8   -0.457083    0.312977   -0.000000
siesta:      9   -0.222797    1.334081    0.000000
siesta:     10   -1.140501    0.381718    0.000000
siesta:     11   -0.027175   -0.019066   -0.000000
siesta:     12   -0.354742   -0.244007   -0.000000
siesta:     13    0.066391   -0.036864    0.000000
siesta:     14    0.234132   -0.078514    0.000000
siesta:     15   -1.354603   -0.938445   -0.000000
siesta:     16   -0.085808    0.098053    0.000000
siesta:     17    1.105977   -1.178273   -0.000000
siesta:     18   -0.233203    0.212637    0.000000
siesta:     19   -0.193080   -1.365498    0.000000
siesta:     20   -0.010225   -0.456084    0.000000
siesta:     21   -0.349870    1.124764    0.000000
siesta:     22   -2.266768   -0.869974   -0.000000
siesta:     23    0.274630    0.611463   -0.000000
siesta:     24    0.151059   -0.152740   -0.000000
siesta:     25    0.104529    0.041056   -0.000000
siesta:     26   -0.390227   -0.150029    0.000000
siesta:     27    1.778640    1.418552    0.000000
siesta:     28    0.856093    2.294115   -0.000000
siesta:     29    0.056843    0.101222   -0.000000
siesta: ----------------------------------------
siesta:    Tot    2.309638    3.830799    0.000000

siesta: Stress tensor (static) (eV/Ang**3):
siesta:    -0.000099    0.000767    0.000000
siesta:     0.000767    0.000827   -0.000000
siesta:     0.000000   -0.000000   -0.000061

siesta: Cell volume =       6064.782368 Ang**3

siesta: Pressure (static):
siesta:                Solid            Molecule  Units
siesta:          -0.00000242         -0.00000125  Ry/Bohr**3
siesta:          -0.00022229         -0.00011435  eV/Ang**3
siesta:          -0.35615236         -0.18320926  kBar
(Free)E+ p_basis*V_orbitals  =       -4126.509817
(Free)Eharris+ p_basis*V_orbitals  =       -4126.509817
     spin moment: S , {S} =    0.00000  -0.00000   0.00000   0.00000

siesta: Electric dipole (a.u.)  =    1.508717   -0.012294   -0.000000
siesta: Electric dipole (Debye) =    3.834778   -0.031247   -0.000000

cite: Please see "GC.bib" for an exhaustive BiBTeX file.
cite: Please clearly indicate Siesta version in published work: v4.1.5-1-g384057250
cite: This calculation has made use of the following articles
cite: which are encouraged to be cited in a published work.
        Primary SIESTA paper
          DOI: www.doi.org/10.1088/0953-8984/14/11/302
        Spin-orbit coupling (on-site approximation)
          DOI: www.doi.org/10.1088/0953-8984/19/19/489001


WARNING: alloc-realloc-dealloc name mismatch
         Name: atomlist isa
         Size:              -116. Bytes
         Node:     0
         Subsequent mismatches will not be reported
>> End of run:  28-JUN-2023  16:46:58
Job completed
