Siesta Version  : v4.1.5-1-g384057250
Architecture    : gcc
Compiler version: GNU Fortran (Debian 12.2.0-14) 12.2.0
Compiler flags  : mpifort -O2 -fPIC -ftree-vectorize -fallow-argument-mismatch
PP flags        : -DFC_HAVE_ABORT -DMPI -DSIESTA__FLOOK -DSIESTA__METIS -DSIESTA__MUMPS -DCDF -DNCDF -DNCDF_4 -DNCDF_PARALLEL -DSIESTA__MRRR -DSIESTA__ELPA
Libraries       : libncdf.a libfdict.a  -lflookall -ldl -lnetcdff -lnetcdf -lz -lscalapack-openmpi -lopenblas -lmetis -lzmumps -lcmumps -ldmumps -lmumps_common -lpord -lsmumps -lesmumps -lscotch -lscotcherr -fopenmp -lelpa
PARALLEL version
NetCDF support
NetCDF-4 support
NetCDF-4 MPI-IO support
METIS ordering support
Lua support

* Running on 32 nodes in parallel
>> Start of run:  16-OCT-2023  20:42:47

                           ***********************       
                           *  WELCOME TO SIESTA  *       
                           ***********************       

reinit: Reading from standard input
reinit: Dumped input in INPUT_TMP.81742
************************** Dump of input data file ****************************
# mpirun -np 4 siesta-4.1.5 < AT.fdf > AT.out &
SystemLabel      AT
NumberOfAtoms    30
NumberOfSpecies  4
%block ChemicalSpeciesLabel
    1    1  H
    2    7  N
    3   14  Si
    4    8  O
%endblock ChemicalSpeciesLabel
############################################
# This overrides Defaults.fdf configuration
############################################
MD.TypeOfRun                Verlet # CG, Verlet
MD.Steps                    0
MaxSCFIterations            300
AtomicCoordinatesFormat NotScaledCartesianAng
%block AtomicCoordinatesAndAtomicSpecies
    2.28494382 -5.19529124 0.0  1  1  H
    1.37433094 -4.6647107 0.0  2  2  N
    -0.21830245 -5.49458215 0.0  3  3  Si
    -0.17484108 -6.98516892 0.0  1  4  H
    -1.66171682 -4.58600741 0.0  2  5  N
    -1.09026419 -2.87456374 0.0  3  6  Si
    -1.53038332 -0.70765692 0.0  3  7  Si
    -3.14415959 -0.09186471 0.0  2  8  N
    -3.40268075 0.95848335 0.0  1  9  H
    -3.95073599 -0.76720972 0.0  1  10  H
    -0.17836637 0.41349951 0.0  2  11  N
    1.49520211 -0.0473996 0.0  3  12  Si
    2.45603905 1.10727302 0.0  1  13  H
    2.30451743 -1.58574382 0.0  2  14  N
    1.10725559 -2.84610319 0.0  3  15  Si
    0.32171785229644984 9.329341493061067 0.0  1  16  H
    -0.4869928277035502 8.637135613061067 0.0  2  17  N
    -2.14358266770355 9.350255713061067 0.0  3  18  Si
    -2.04671749770355 10.860980923061067 0.0  1  19  H
    -3.86973901770355 8.007207583061067 0.0  3  20  Si
    -6.2241932677035505 7.999220653061068 0.0  3  21  Si
    -6.786611387703551 8.733710303061066 -1.20183078  1  22  H
    -6.524007017703551 6.520129523061067 -0.08618332  1  23  H
    -6.78672384770355 8.564053113061068 1.28814761  1  24  H
    -2.9403483777035504 5.936636353061067 0.0  3  25  Si
    -3.8898167377035504 4.648100223061067 0.0  4  26  O
    -1.1494035077035503 5.762900883061067 0.0  2  27  N
    -0.8184121477035502 4.730543903061067 0.0  1  28  H
    0.1590547122964498 6.957447303061066 0.0  3  29  Si
    1.7249916422964497 6.690200453061067 0.0  4  30  O
%endblock AtomicCoordinatesAndAtomicSpecies
%include ../../../../Defaults.fdf
************************** End of input data file *****************************

reinit: -----------------------------------------------------------------------
reinit: System Name: 
reinit: -----------------------------------------------------------------------
reinit: System Label: AT
reinit: -----------------------------------------------------------------------

initatom: Reading input for the pseudopotentials and atomic orbitals ----------
Species number:   1 Atomic number:    1 Label: H
Species number:   2 Atomic number:    7 Label: N
Species number:   3 Atomic number:   14 Label: Si
Species number:   4 Atomic number:    8 Label: O

Ground state valence configuration:   1s01
Reading pseudopotential information in formatted form from H.psf

Pseudopotential generated from a relativistic atomic calculation

Valence configuration for pseudopotential generation:
1s( 1.00) rc: 0.01
2p( 0.00) rc: 0.60
3d( 0.00) rc: 1.99
4f( 0.00) rc: 2.49
Ground state valence configuration:   2s02  2p03
Reading pseudopotential information in formatted form from N.psf

Pseudopotential generated from a relativistic atomic calculation

Valence configuration for pseudopotential generation:
2s( 2.00) rc: 0.94
2p( 3.00) rc: 0.59
3d( 0.00) rc: 3.46
4f( 0.00) rc: 2.47
Ground state valence configuration:   3s02  3p02
Reading pseudopotential information in formatted form from Si.psf

Pseudopotential generated from a relativistic atomic calculation

Valence configuration for pseudopotential generation:
3s( 2.00) rc: 1.67
3p( 2.00) rc: 2.04
3d( 0.00) rc: 2.89
4f( 0.00) rc: 2.49
Ground state valence configuration:   2s02  2p04
Reading pseudopotential information in formatted form from O.psf

Pseudopotential generated from a relativistic atomic calculation

Valence configuration for pseudopotential generation:
2s( 2.00) rc: 0.45
2p( 4.00) rc: 0.92
3d( 0.00) rc: 2.24
4f( 0.00) rc: 0.25
For H, standard SIESTA heuristics set lmxkb to 2
 (one more than the basis l, including polarization orbitals).
Use PS.lmax or PS.KBprojectors blocks to override.
For N, standard SIESTA heuristics set lmxkb to 3
 (one more than the basis l, including polarization orbitals).
Use PS.lmax or PS.KBprojectors blocks to override.
For Si, standard SIESTA heuristics set lmxkb to 3
 (one more than the basis l, including polarization orbitals).
Use PS.lmax or PS.KBprojectors blocks to override.
For O, standard SIESTA heuristics set lmxkb to 3
 (one more than the basis l, including polarization orbitals).
Use PS.lmax or PS.KBprojectors blocks to override.

<basis_specs>
===============================================================================
H                    Z=   1    Mass=  1.0100        Charge= 0.17977+309
Lmxo=0 Lmxkb= 2    BasisType=split      Semic=F
L=0  Nsemic=0  Cnfigmx=1
          i=1  nzeta=2  polorb=1  (1s)
            splnorm:   0.62000    
               vcte:    0.0000    
               rinn:    0.0000    
               qcoe:    0.0000    
               qyuk:    0.0000    
               qwid:   0.10000E-01
                rcs:    0.0000      0.0000    
            lambdas:    1.0000      1.0000    
-------------------------------------------------------------------------------
L=0  Nkbl=1  erefs: 0.17977+309
L=1  Nkbl=1  erefs: 0.17977+309
L=2  Nkbl=1  erefs: 0.17977+309
===============================================================================
</basis_specs>

atom: Called for H                     (Z =   1)

read_vps: Pseudopotential generation method:
read_vps: ATM4.2.7  Troullier-Martins                       
Valence charge for ps generation:    1.00000

xc_check: Exchange-correlation functional:
xc_check: GGA Perdew, Burke & Ernzerhof 1996
V l=0 = -2*Zval/r beyond r=  0.0098
V l=1 = -2*Zval/r beyond r=  0.5817
V l=2 = -2*Zval/r beyond r=  1.9372
All V_l potentials equal beyond r=  1.9372
This should be close to max(r_c) in ps generation
All pots = -2*Zval/r beyond r=  1.9372

VLOCAL1: 99.0% of the norm of Vloc inside     11.567 Ry
VLOCAL1: 99.9% of the norm of Vloc inside     26.362 Ry
atom: Maximum radius for 4*pi*r*r*local-pseudopot. charge    2.25106
atom: Maximum radius for r*vlocal+2*Zval:    1.91306
GHOST: No ghost state for L =  0
GHOST: No ghost state for L =  1
GHOST: No ghost state for L =  2

KBgen: Kleinman-Bylander projectors: 
   l= 0   rc=  2.036604   el= -0.477180   Ekb= -6.081590   kbcos= -0.277285
   l= 1   rc=  2.195416   el=  0.001076   Ekb= -0.926943   kbcos= -0.034643
   l= 2   rc=  2.251056   el=  0.002010   Ekb= -0.130941   kbcos= -0.009788

KBgen: Total number of Kleinman-Bylander projectors:    9
atom: -------------------------------------------------------------------------

atom: SANKEY-TYPE ORBITALS:
atom: Selected multiple-zeta basis: split     

SPLIT: Orbitals with angular momentum L= 0

SPLIT: Basis orbitals for state 1s

SPLIT: PAO cut-off radius determined from an
SPLIT: energy shift=  0.002000 Ry

   izeta = 1
                 lambda =    1.000000
                     rc =    6.518340
                 energy =   -0.475305
                kinetic =    0.912139
    potential(screened) =   -1.387444
       potential(ionic) =   -1.907295

   izeta = 2
                 rmatch =    2.141150
              splitnorm =    0.620000
                 energy =    0.566467
                kinetic =    3.772856
    potential(screened) =   -3.206389
       potential(ionic) =   -3.759093

POLgen: Perturbative polarization orbital with L=  1

POLgen: Polarization orbital for state 1s

   izeta = 1
                     rc =    6.518340
                 energy =    0.533861
                kinetic =    1.121086
    potential(screened) =   -0.587225
       potential(ionic) =   -1.053027
atom: Total number of Sankey-type orbitals:  5

atm_pop: Valence configuration (for local Pseudopot. screening):
 1s( 1.00)                                                            
Vna: chval, zval:    1.00000   1.00000

Vna:  Cut-off radius for the neutral-atom potential:   6.518340

atom: _________________________________________________________________________

<basis_specs>
===============================================================================
N                    Z=   7    Mass=  14.010        Charge= 0.17977+309
Lmxo=1 Lmxkb= 3    BasisType=split      Semic=F
L=0  Nsemic=0  Cnfigmx=2
          i=1  nzeta=2  polorb=0  (2s)
            splnorm:   0.28000    
               vcte:    0.0000    
               rinn:    0.0000    
               qcoe:    0.0000    
               qyuk:    0.0000    
               qwid:   0.10000E-01
                rcs:    0.0000      0.0000    
            lambdas:    1.0000      1.0000    
L=1  Nsemic=0  Cnfigmx=2
          i=1  nzeta=2  polorb=1  (2p)
            splnorm:   0.28000    
               vcte:    0.0000    
               rinn:    0.0000    
               qcoe:    0.0000    
               qyuk:    0.0000    
               qwid:   0.10000E-01
                rcs:    0.0000      0.0000    
            lambdas:    1.0000      1.0000    
-------------------------------------------------------------------------------
L=0  Nkbl=1  erefs: 0.17977+309
L=1  Nkbl=1  erefs: 0.17977+309
L=2  Nkbl=1  erefs: 0.17977+309
L=3  Nkbl=1  erefs: 0.17977+309
===============================================================================
</basis_specs>

atom: Called for N                     (Z =   7)

read_vps: Pseudopotential generation method:
read_vps: ATM4.2.7  Troullier-Martins                       
Valence charge for ps generation:    5.00000

xc_check: Exchange-correlation functional:
xc_check: GGA Perdew, Burke & Ernzerhof 1996
V l=0 = -2*Zval/r beyond r=  1.2889
V l=1 = -2*Zval/r beyond r=  1.2889
V l=2 = -2*Zval/r beyond r=  3.4178
V l=3 = -2*Zval/r beyond r=  2.4084
All V_l potentials equal beyond r=  3.3753
This should be close to max(r_c) in ps generation
All pots = -2*Zval/r beyond r=  3.4178

VLOCAL1: 99.0% of the norm of Vloc inside      3.810 Ry
VLOCAL1: 99.9% of the norm of Vloc inside      8.683 Ry
atom: Maximum radius for 4*pi*r*r*local-pseudopot. charge    4.02088
atom: Maximum radius for r*vlocal+2*Zval:    3.54838
GHOST: No ghost state for L =  0
GHOST: No ghost state for L =  1
GHOST: No ghost state for L =  2
GHOST: No ghost state for L =  3

KBgen: Kleinman-Bylander projectors: 
   l= 0   rc=  3.417763   el= -1.365098   Ekb= -4.433130   kbcos= -0.707855
   l= 1   rc=  3.375302   el= -0.521201   Ekb=-13.264039   kbcos= -0.535594
   l= 2   rc=  3.872880   el=  0.001991   Ekb= -0.641094   kbcos= -0.062456
   l= 3   rc=  3.970931   el=  0.003093   Ekb= -0.474517   kbcos= -0.018236

KBgen: Total number of Kleinman-Bylander projectors:   16
atom: -------------------------------------------------------------------------

atom: SANKEY-TYPE ORBITALS:
atom: Selected multiple-zeta basis: split     

SPLIT: Orbitals with angular momentum L= 0

SPLIT: Basis orbitals for state 2s

SPLIT: PAO cut-off radius determined from an
SPLIT: energy shift=  0.002000 Ry

   izeta = 1
                 lambda =    1.000000
                     rc =    4.730425
                 energy =   -1.363399
                kinetic =    1.245246
    potential(screened) =   -2.608645
       potential(ionic) =   -8.121105

   izeta = 2
                 rmatch =    2.531849
              splitnorm =    0.280000
                 energy =   -0.959908
                kinetic =    2.409435
    potential(screened) =   -3.369343
       potential(ionic) =   -9.427975

SPLIT: Orbitals with angular momentum L= 1

SPLIT: Basis orbitals for state 2p

SPLIT: PAO cut-off radius determined from an
SPLIT: energy shift=  0.002000 Ry

   izeta = 1
                 lambda =    1.000000
                     rc =    5.924108
                 energy =   -0.519262
                kinetic =    3.672940
    potential(screened) =   -4.192202
       potential(ionic) =   -9.518354

   izeta = 2
                 rmatch =    2.531849
              splitnorm =    0.280000
                 energy =   -0.104258
                kinetic =    6.807538
    potential(screened) =   -6.911796
       potential(ionic) =  -13.149920

POLgen: Perturbative polarization orbital with L=  2

POLgen: Polarization orbital for state 2p

   izeta = 1
                     rc =    5.924108
                 energy =    1.427508
                kinetic =    2.872379
    potential(screened) =   -1.444871
       potential(ionic) =   -5.563644
atom: Total number of Sankey-type orbitals: 13

atm_pop: Valence configuration (for local Pseudopot. screening):
 2s( 2.00)                                                            
 2p( 3.00)                                                            
Vna: chval, zval:    5.00000   5.00000

Vna:  Cut-off radius for the neutral-atom potential:   5.924108

atom: _________________________________________________________________________

<basis_specs>
===============================================================================
Si                   Z=  14    Mass=  28.090        Charge= 0.17977+309
Lmxo=1 Lmxkb= 3    BasisType=split      Semic=F
L=0  Nsemic=0  Cnfigmx=3
          i=1  nzeta=2  polorb=0  (3s)
            splnorm:   0.28000    
               vcte:    0.0000    
               rinn:    0.0000    
               qcoe:    0.0000    
               qyuk:    0.0000    
               qwid:   0.10000E-01
                rcs:    0.0000      0.0000    
            lambdas:    1.0000      1.0000    
L=1  Nsemic=0  Cnfigmx=3
          i=1  nzeta=2  polorb=1  (3p)
            splnorm:   0.28000    
               vcte:    0.0000    
               rinn:    0.0000    
               qcoe:    0.0000    
               qyuk:    0.0000    
               qwid:   0.10000E-01
                rcs:    0.0000      0.0000    
            lambdas:    1.0000      1.0000    
-------------------------------------------------------------------------------
L=0  Nkbl=1  erefs: 0.17977+309
L=1  Nkbl=1  erefs: 0.17977+309
L=2  Nkbl=1  erefs: 0.17977+309
L=3  Nkbl=1  erefs: 0.17977+309
===============================================================================
</basis_specs>

atom: Called for Si                    (Z =  14)

read_vps: Pseudopotential generation method:
read_vps: ATM4.2.7  Troullier-Martins                       
Valence charge for ps generation:    4.00000

xc_check: Exchange-correlation functional:
xc_check: GGA Perdew, Burke & Ernzerhof 1996
V l=0 = -2*Zval/r beyond r=  2.7826
V l=1 = -2*Zval/r beyond r=  2.7826
V l=2 = -2*Zval/r beyond r=  2.9253
V l=3 = -2*Zval/r beyond r=  2.7826
All V_l potentials equal beyond r=  2.8530
This should be close to max(r_c) in ps generation
All pots = -2*Zval/r beyond r=  2.9253

VLOCAL1: 99.0% of the norm of Vloc inside      5.333 Ry
VLOCAL1: 99.9% of the norm of Vloc inside     12.154 Ry
atom: Maximum radius for 4*pi*r*r*local-pseudopot. charge    3.39869
atom: Maximum radius for r*vlocal+2*Zval:    2.96205
GHOST: No ghost state for L =  0
GHOST: No ghost state for L =  1
GHOST: No ghost state for L =  2
GHOST: No ghost state for L =  3

KBgen: Kleinman-Bylander projectors: 
   l= 0   rc=  3.075247   el= -0.794092   Ekb=  5.879390   kbcos=  0.167461
   l= 1   rc=  3.153101   el= -0.300068   Ekb=  2.642817   kbcos=  0.058301
   l= 2   rc=  3.273594   el=  0.001958   Ekb= -1.185135   kbcos= -0.104411
   l= 3   rc=  3.232927   el=  0.003046   Ekb= -0.497174   kbcos= -0.015889

KBgen: Total number of Kleinman-Bylander projectors:   16
atom: -------------------------------------------------------------------------

atom: SANKEY-TYPE ORBITALS:
atom: Selected multiple-zeta basis: split     

SPLIT: Orbitals with angular momentum L= 0

SPLIT: Basis orbitals for state 3s

SPLIT: PAO cut-off radius determined from an
SPLIT: energy shift=  0.002000 Ry

   izeta = 1
                 lambda =    1.000000
                     rc =    6.429618
                 energy =   -0.792283
                kinetic =    0.525293
    potential(screened) =   -1.317576
       potential(ionic) =   -3.744923

   izeta = 2
                 rmatch =    3.998416
              splitnorm =    0.280000
                 energy =   -0.583081
                kinetic =    1.069570
    potential(screened) =   -1.652651
       potential(ionic) =   -4.235185

SPLIT: Orbitals with angular momentum L= 1

SPLIT: Basis orbitals for state 3p

SPLIT: PAO cut-off radius determined from an
SPLIT: energy shift=  0.002000 Ry

   izeta = 1
                 lambda =    1.000000
                     rc =    8.464845
                 energy =   -0.298236
                kinetic =    0.785360
    potential(screened) =   -1.083596
       potential(ionic) =   -3.273779

   izeta = 2
                 rmatch =    4.587816
              splitnorm =    0.280000
                 energy =   -0.131871
                kinetic =    1.403687
    potential(screened) =   -1.535557
       potential(ionic) =   -4.015310

POLgen: Perturbative polarization orbital with L=  2

POLgen: Polarization orbital for state 3p

   izeta = 1
                     rc =    8.464845
                 energy =    0.321949
                kinetic =    1.055677
    potential(screened) =   -0.733728
       potential(ionic) =   -2.672950
atom: Total number of Sankey-type orbitals: 13

atm_pop: Valence configuration (for local Pseudopot. screening):
 3s( 2.00)                                                            
 3p( 2.00)                                                            
Vna: chval, zval:    4.00000   4.00000

Vna:  Cut-off radius for the neutral-atom potential:   8.464845

atom: _________________________________________________________________________

<basis_specs>
===============================================================================
O                    Z=   8    Mass=  16.000        Charge= 0.17977+309
Lmxo=1 Lmxkb= 3    BasisType=split      Semic=F
L=0  Nsemic=0  Cnfigmx=2
          i=1  nzeta=2  polorb=0  (2s)
            splnorm:   0.28000    
               vcte:    0.0000    
               rinn:    0.0000    
               qcoe:    0.0000    
               qyuk:    0.0000    
               qwid:   0.10000E-01
                rcs:    0.0000      0.0000    
            lambdas:    1.0000      1.0000    
L=1  Nsemic=0  Cnfigmx=2
          i=1  nzeta=2  polorb=1  (2p)
            splnorm:   0.28000    
               vcte:    0.0000    
               rinn:    0.0000    
               qcoe:    0.0000    
               qyuk:    0.0000    
               qwid:   0.10000E-01
                rcs:    0.0000      0.0000    
            lambdas:    1.0000      1.0000    
-------------------------------------------------------------------------------
L=0  Nkbl=1  erefs: 0.17977+309
L=1  Nkbl=1  erefs: 0.17977+309
L=2  Nkbl=1  erefs: 0.17977+309
L=3  Nkbl=1  erefs: 0.17977+309
===============================================================================
</basis_specs>

atom: Called for O                     (Z =   8)

read_vps: Pseudopotential generation method:
read_vps: ATM4.2.7  Troullier-Martins                       
Valence charge for ps generation:    6.00000

xc_check: Exchange-correlation functional:
xc_check: GGA Perdew, Burke & Ernzerhof 1996
V l=0 = -2*Zval/r beyond r=  1.1000
V l=1 = -2*Zval/r beyond r=  1.1000
V l=2 = -2*Zval/r beyond r=  2.2154
V l=3 = -2*Zval/r beyond r=  1.1000
All V_l potentials equal beyond r=  2.2154
This should be close to max(r_c) in ps generation
All pots = -2*Zval/r beyond r=  2.2154

VLOCAL1: 99.0% of the norm of Vloc inside      8.845 Ry
VLOCAL1: 99.9% of the norm of Vloc inside     20.157 Ry
atom: Maximum radius for 4*pi*r*r*local-pseudopot. charge    2.67231
atom: Maximum radius for r*vlocal+2*Zval:    2.32897
GHOST: No ghost state for L =  0
GHOST: No ghost state for L =  1
GHOST: No ghost state for L =  2
GHOST: No ghost state for L =  3

KBgen: Kleinman-Bylander projectors: 
   l= 0   rc=  2.243238   el= -1.759686   Ekb=**********   kbcos= -0.171774
   l= 1   rc=  2.328968   el= -0.663873   Ekb=-14.506792   kbcos= -0.519897
   l= 2   rc=  2.573941   el=  0.002031   Ekb= -1.137373   kbcos= -0.019581
   l= 3   rc=  2.606321   el=  0.003153   Ekb= -1.013546   kbcos= -0.003122

KBgen: Total number of Kleinman-Bylander projectors:   16
atom: -------------------------------------------------------------------------

atom: SANKEY-TYPE ORBITALS:
atom: Selected multiple-zeta basis: split     

SPLIT: Orbitals with angular momentum L= 0

SPLIT: Basis orbitals for state 2s

SPLIT: PAO cut-off radius determined from an
SPLIT: energy shift=  0.002000 Ry

   izeta = 1
                 lambda =    1.000000
                     rc =    4.243912
                 energy =   -1.758270
                kinetic =    3.286084
    potential(screened) =   -5.044353
       potential(ionic) =  -12.921184

   izeta = 2
                 rmatch =    2.187845
              splitnorm =    0.280000
                 energy =   -0.885018
                kinetic =    8.134434
    potential(screened) =   -9.019452
       potential(ionic) =  -17.710645

SPLIT: Orbitals with angular momentum L= 1

SPLIT: Basis orbitals for state 2p

SPLIT: PAO cut-off radius determined from an
SPLIT: energy shift=  0.002000 Ry

   izeta = 1
                 lambda =    1.000000
                     rc =    5.314825
                 energy =   -0.661986
                kinetic =    4.917472
    potential(screened) =   -5.579458
       potential(ionic) =  -13.236259

   izeta = 2
                 rmatch =    2.160663
              splitnorm =    0.280000
                 energy =   -0.068760
                kinetic =    9.183374
    potential(screened) =   -9.252135
       potential(ionic) =  -18.274251

POLgen: Perturbative polarization orbital with L=  2

POLgen: Polarization orbital for state 2p

   izeta = 1
                     rc =    5.314825
                 energy =    1.970580
                kinetic =    3.886128
    potential(screened) =   -1.915547
       potential(ionic) =   -7.749584
atom: Total number of Sankey-type orbitals: 13

atm_pop: Valence configuration (for local Pseudopot. screening):
 2s( 2.00)                                                            
 2p( 4.00)                                                            
Vna: chval, zval:    6.00000   6.00000

Vna:  Cut-off radius for the neutral-atom potential:   5.314825

atom: _________________________________________________________________________

prinput: Basis input ----------------------------------------------------------

PAO.BasisType split     

%block ChemicalSpeciesLabel
    1    1 H                       # Species index, atomic number, species label
    2    7 N                       # Species index, atomic number, species label
    3   14 Si                      # Species index, atomic number, species label
    4    8 O                       # Species index, atomic number, species label
%endblock ChemicalSpeciesLabel

%block PAO.Basis                 # Define Basis set
H                     1                    # Species label, number of l-shells
 n=1   0   2 P   1                   # n, l, Nzeta, Polarization, NzetaPol
   6.518      2.141   
   1.000      1.000   
N                     2                    # Species label, number of l-shells
 n=2   0   2                         # n, l, Nzeta 
   4.730      2.532   
   1.000      1.000   
 n=2   1   2 P   1                   # n, l, Nzeta, Polarization, NzetaPol
   5.924      2.532   
   1.000      1.000   
Si                    2                    # Species label, number of l-shells
 n=3   0   2                         # n, l, Nzeta 
   6.430      3.998   
   1.000      1.000   
 n=3   1   2 P   1                   # n, l, Nzeta, Polarization, NzetaPol
   8.465      4.588   
   1.000      1.000   
O                     2                    # Species label, number of l-shells
 n=2   0   2                         # n, l, Nzeta 
   4.244      2.188   
   1.000      1.000   
 n=2   1   2 P   1                   # n, l, Nzeta, Polarization, NzetaPol
   5.315      2.161   
   1.000      1.000   
%endblock PAO.Basis

prinput: ----------------------------------------------------------------------

Dumping basis to NetCDF file H.ion.nc
Dumping basis to NetCDF file N.ion.nc
Dumping basis to NetCDF file Si.ion.nc
Dumping basis to NetCDF file O.ion.nc
coor:   Atomic-coordinates input format  =     Cartesian coordinates
coor:                                          (in Angstroms)

siesta: Atomic coordinates (Bohr) and species
siesta:      4.31792  -9.81768   0.00000  1        1
siesta:      2.59711  -8.81503   0.00000  2        2
siesta:     -0.41253 -10.38326   0.00000  3        3
siesta:     -0.33040 -13.20006   0.00000  1        4
siesta:     -3.14019  -8.66630   0.00000  2        5
siesta:     -2.06030  -5.43214   0.00000  3        6
siesta:     -2.89201  -1.33728   0.00000  3        7
siesta:     -5.94160  -0.17360   0.00000  2        8
siesta:     -6.43014   1.81127   0.00000  1        9
siesta:     -7.46581  -1.44982   0.00000  1       10
siesta:     -0.33706   0.78140   0.00000  2       11
siesta:      2.82552  -0.08957   0.00000  3       12
siesta:      4.64124   2.09244   0.00000  1       13
siesta:      4.35491  -2.99662   0.00000  2       14
siesta:      2.09241  -5.37836   0.00000  3       15
siesta:      0.60796  17.62991   0.00000  1       16
siesta:     -0.92028  16.32183   0.00000  2       17
siesta:     -4.05079  17.66943   0.00000  3       18
siesta:     -3.86774  20.52429   0.00000  1       19
siesta:     -7.31275  15.13144   0.00000  3       20
siesta:    -11.76203  15.11634   0.00000  3       21
siesta:    -12.82484  16.50433  -2.27113  1       22
siesta:    -12.32859  12.32126  -0.16286  1       23
siesta:    -12.82505  16.18372   2.43425  1       24
siesta:     -5.55646  11.21862   0.00000  3       25
siesta:     -7.35069   8.78364   0.00000  4       26
siesta:     -2.17206  10.89031   0.00000  2       27
siesta:     -1.54658   8.93944   0.00000  1       28
siesta:      0.30057  13.14768   0.00000  3       29
siesta:      3.25976  12.64265   0.00000  4       30

siesta: Automatic unit cell vectors (Ang):
siesta:   18.346018    0.000000    0.000000
siesta:    0.000000   27.219348    0.000000
siesta:    0.000000    0.000000   10.327559

siesta: System type = molecule  

initatomlists: Number of atoms, orbitals, and projectors:     30   302   403

siesta: ******************** Simulation parameters ****************************
siesta:
siesta: The following are some of the parameters of the simulation.
siesta: A complete list of the parameters used, including default values,
siesta: can be found in file out.fdf
siesta:
redata: Spin configuration                          = spin-orbit
redata: Number of spin components                   = 8
redata: Time-Reversal Symmetry                      = F
redata: Spin spiral                                 = F
############################################################
This spin-orbit implementation uses a local approximation.
From 4.2 and onwards the full non-local approximation is implemented
You are strongly advised to use >=4.2 versions!
############################################################
redata: Long output                                 =   F
redata: Number of Atomic Species                    =        4
redata: Charge density info will appear in .RHO file
redata: Write Mulliken Pop.                         = NO
redata: Matel table size (NRTAB)                    =     1024
redata: Mesh Cutoff                                 =   340.0000 Ry
redata: Net charge of the system                    =     0.0000 |e|
redata: Min. number of SCF Iter                     =        1
redata: Max. number of SCF Iter                     =      300
redata: SCF convergence failure will abort job
redata: SCF mix quantity                            = Hamiltonian
redata: Mix DM or H after convergence               =   F
redata: Recompute H after scf cycle                 =   F
redata: Mix DM in first SCF step                    =   T
redata: Write Pulay info on disk                    =   F
redata: New DM Occupancy tolerance                  = 0.000000000001
redata: No kicks to SCF
redata: DM Mixing Weight for Kicks                  =     0.5000
redata: Require Harris convergence for SCF          =   F
redata: Harris energy tolerance for SCF             =     0.000100 eV
redata: Require DM convergence for SCF              =   T
redata: DM tolerance for SCF                        =     0.000008
redata: Require EDM convergence for SCF             =   F
redata: EDM tolerance for SCF                       =     0.001000 eV
redata: Require H convergence for SCF               =   T
redata: Hamiltonian tolerance for SCF               =     0.000001 eV
redata: Require (free) Energy convergence for SCF   =   F
redata: (free) Energy tolerance for SCF             =     0.000100 eV
redata: Using Saved Data (generic)                  =   F
redata: Use continuation files for DM               =   T
redata: Neglect nonoverlap interactions             =   F
redata: Method of Calculation                       = Diagonalization
redata: Electronic Temperature                      =   299.9978 K
redata: Fix the spin of the system                  =   F
redata: Dynamics option                             = Verlet MD run
redata: Initial MD time step                        =        1
redata:   Final MD time step                        =        1
redata: Length of MD time step                      =     0.5000 fs
redata: Initial Temperature of MD run               =     0.0000 K
redata: Perform a MD quench                         =   F
mix.SCF: Pulay mixing                            = Pulay
mix.SCF:    Variant                              = stable
mix.SCF:    History steps                        = 6
mix.SCF:    Linear mixing weight                 =     0.250000
mix.SCF:    Mixing weight                        =     0.250000
mix.SCF:    SVD condition                        = 0.1000E-07
mix.SCF:    Restart steps                        = 24
mix.SCF:    Restart save steps                   = 3
mix.SCF: Spin-component mixing                   all
redata: Save all siesta data in one NC              =   F
redata: ***********************************************************************

%block SCF.Mixers
  Pulay
%endblock SCF.Mixers

%block SCF.Mixer.Pulay
  # Mixing method
  method pulay
  variant stable

  # Mixing options
  weight 0.2500
  weight.linear 0.2500
  history 6
  restart 24
  restart.save 3
%endblock SCF.Mixer.Pulay

Size of DM history Fstack: 3
Total number of electrons:    98.000000
Total ionic charge:    98.000000

* ProcessorY, Blocksize:    4   9


* Orbital distribution balance (max,min):    18     9


Time-reversal symmetry not used.

siesta: k-grid: Number of k-points =     1
siesta: k-grid: Cutoff (effective) =     5.164 Ang
siesta: k-grid: Supercell and displacements
siesta: k-grid:    1   0   0      0.000
siesta: k-grid:    0   1   0      0.000
siesta: k-grid:    0   0   1      0.000

diag: Algorithm                                     = ELPA-1stage
diag: Parallel over k                               =   F
diag: Use parallel 2D distribution                  =   T
diag: Parallel block-size                           = 9
diag: Parallel distribution                         =     4 x     8
diag: Used triangular part                          = Lower
diag: Absolute tolerance                            =  0.100E-15
diag: Orthogonalization factor                      =  0.100E-05
diag: Memory factor                                 =  1.0000


ts: **************************************************************
ts: Save H and S matrices                           =    F
ts: Save DM and EDM matrices                        =    F
ts: Only save the overlap matrix S                  =    F
ts: **************************************************************

************************ Begin: TS CHECKS AND WARNINGS ************************
************************ End: TS CHECKS AND WARNINGS **************************


                     ====================================
                        Begin MD step =      1
                     ====================================

outcoor: Atomic coordinates (Ang):                          
    2.28494382   -5.19529124    0.00000000   1       1  H
    1.37433094   -4.66471070    0.00000000   2       2  N
   -0.21830245   -5.49458215    0.00000000   3       3  Si
   -0.17484108   -6.98516892    0.00000000   1       4  H
   -1.66171682   -4.58600741    0.00000000   2       5  N
   -1.09026419   -2.87456374    0.00000000   3       6  Si
   -1.53038332   -0.70765692    0.00000000   3       7  Si
   -3.14415959   -0.09186471    0.00000000   2       8  N
   -3.40268075    0.95848335    0.00000000   1       9  H
   -3.95073599   -0.76720972    0.00000000   1      10  H
   -0.17836637    0.41349951    0.00000000   2      11  N
    1.49520211   -0.04739960    0.00000000   3      12  Si
    2.45603905    1.10727302    0.00000000   1      13  H
    2.30451743   -1.58574382    0.00000000   2      14  N
    1.10725559   -2.84610319    0.00000000   3      15  Si
    0.32171785    9.32934149    0.00000000   1      16  H
   -0.48699283    8.63713561    0.00000000   2      17  N
   -2.14358267    9.35025571    0.00000000   3      18  Si
   -2.04671750   10.86098092    0.00000000   1      19  H
   -3.86973902    8.00720758    0.00000000   3      20  Si
   -6.22419327    7.99922065    0.00000000   3      21  Si
   -6.78661139    8.73371030   -1.20183078   1      22  H
   -6.52400702    6.52012952   -0.08618332   1      23  H
   -6.78672385    8.56405311    1.28814761   1      24  H
   -2.94034838    5.93663635    0.00000000   3      25  Si
   -3.88981674    4.64810022    0.00000000   4      26  O
   -1.14940351    5.76290088    0.00000000   2      27  N
   -0.81841215    4.73054390    0.00000000   1      28  H
    0.15905471    6.95744730    0.00000000   3      29  Si
    1.72499164    6.69020045    0.00000000   4      30  O

outcell: Unit cell vectors (Ang):
       18.346018    0.000000    0.000000
        0.000000   27.219348    0.000000
        0.000000    0.000000   10.327559

outcell: Cell vector modules (Ang)   :   18.346018   27.219348   10.327559
outcell: Cell angles (23,13,12) (deg):     90.0000     90.0000     90.0000
outcell: Cell volume (Ang**3)        :   5157.2385
<dSpData1D:S at geom step 1
  <sparsity:sparsity for geom step 1
    nrows_g=302 nrows=18 sparsity=.0308 nnzs=2807, refcount: 8>
  <dData1D:(new from dSpData1D) n=2807, refcount: 1>
refcount: 1>
new_DM -- step:     1
Initializing Density Matrix...

Attempting to read DM from file... Failed...
DM filled with atomic data:
<dSpData2D:DM initialized from atoms
  <sparsity:sparsity for geom step 1
    nrows_g=302 nrows=18 sparsity=.0308 nnzs=2807, refcount: 9>
  <dData2D:DM n=2807 m=8, refcount: 1>
refcount: 1>
     spin moment: S , {S} =   56.00000   0.00000   0.00000  56.00000
No. of atoms with KB's overlaping orbs in proc 0. Max # of overlaps:      21     149

Initializing spin-orbit part of the Hamiltonian
  Adding spin-orbit effects for H 
  Adding spin-orbit effects for N 
  Adding spin-orbit effects for Si
  Adding spin-orbit effects for O 


New grid distribution:   1
           1       1:  108    1:   40    1:    8
           2       1:  108    1:   40    9:   16
           3       1:  108    1:   40   17:   24
           4       1:  108    1:   40   25:   32
           5       1:  108    1:   40   33:   39
           6       1:  108    1:   40   40:   46
           7       1:  108    1:   40   47:   53
           8       1:  108    1:   40   54:   60
           9       1:  108   41:   80    1:    8
          10       1:  108   41:   80    9:   16
          11       1:  108   41:   80   17:   24
          12       1:  108   41:   80   25:   32
          13       1:  108   41:   80   33:   39
          14       1:  108   41:   80   40:   46
          15       1:  108   41:   80   47:   53
          16       1:  108   41:   80   54:   60
          17       1:  108   81:  120    1:    8
          18       1:  108   81:  120    9:   16
          19       1:  108   81:  120   17:   24
          20       1:  108   81:  120   25:   32
          21       1:  108   81:  120   33:   39
          22       1:  108   81:  120   40:   46
          23       1:  108   81:  120   47:   53
          24       1:  108   81:  120   54:   60
          25       1:  108  121:  160    1:    8
          26       1:  108  121:  160    9:   16
          27       1:  108  121:  160   17:   24
          28       1:  108  121:  160   25:   32
          29       1:  108  121:  160   33:   39
          30       1:  108  121:  160   40:   46
          31       1:  108  121:  160   47:   53
          32       1:  108  121:  160   54:   60

InitMesh: MESH =   216 x   320 x   120 =     8294400
InitMesh: (bp) =   108 x   160 x    60 =     1036800
InitMesh: Mesh cutoff (required, used) =   340.000   373.137 Ry
ExtMesh (bp) on 0 =   216 x   148 x   116 =     3708288
New grid distribution:   2
           1       1:   18    1:   38    1:   19
           2      99:  108    1:   37    1:   18
           3      88:   98    1:   37   19:   60
           4      20:   87    1:   38   20:   60
           5      19:   87    1:   38    1:   19
           6       1:   19    1:   38   20:   60
           7     100:  108  140:  160   22:   60
           8      98:  108   38:   55    1:   21
           9      10:   81   56:  141    1:   20
          10       1:   70   39:   55    1:   22
          11      71:   87   39:   55    1:   22
          12      71:   87   39:   55   23:   60
          13       1:   70   39:   55   23:   60
          14      99:  108    1:   37   19:   60
          15      98:  108   38:   55   22:   60
          16      88:   97   38:   55   22:   60
          17      82:   99   56:  139    1:   20
          18     100:  108   56:  139    1:   20
          19      88:   97   38:   55    1:   21
          20      10:   81   56:  141   21:   60
          21      82:   99   56:  139   21:   60
          22     100:  108   56:  139   21:   60
          23      88:   98    1:   37    1:   18
          24       1:    9  142:  160    1:   20
          25      10:   81  142:  160    1:   20
          26      82:   99  140:  160    1:   21
          27     100:  108  140:  160    1:   21
          28      10:   81  142:  160   21:   60
          29       1:    9   56:  141   21:   60
          30       1:    9   56:  141    1:   20
          31      82:   99  140:  160   22:   60
          32       1:    9  142:  160   21:   60
New grid distribution:   3
           1      27:   71   35:   57    1:   25
           2      92:  108    1:   32   25:   60
           3      92:  108    1:   32    1:   24
           4      17:   71    1:   34   25:   60
           5      17:   71    1:   34    1:   24
           6      72:   91    1:   32   25:   60
           7       1:   16    1:   34   25:   60
           8       1:   16    1:   34    1:   24
           9      15:   75   58:  130    1:   25
          10       1:   15  131:  160   26:   60
          11       1:   26   35:   57    1:   25
          12       1:   37   35:   57   26:   60
          13      17:   75  131:  160    1:   25
          14      38:   71   35:   57   26:   60
          15      90:  108   33:   57   27:   60
          16      72:   89   33:   57   27:   60
          17      76:   96   58:  125    1:   24
          18      97:  108   58:  125    1:   24
          19      72:   90   33:   57    1:   26
          20      16:   75   58:  130   26:   60
          21      76:   96   58:  125   25:   60
          22      97:  108   58:  125   25:   60
          23      72:   91    1:   32    1:   24
          24       1:   16  131:  160    1:   25
          25       1:   14   58:  130    1:   25
          26      76:   94  126:  160    1:   25
          27      95:  108  126:  160    1:   25
          28      16:   75  131:  160   26:   60
          29       1:   15   58:  130   26:   60
          30      76:   94  126:  160   26:   60
          31      95:  108  126:  160   26:   60
          32      91:  108   33:   57    1:   26
Setting up quadratic distribution...
ExtMesh (bp) on 0 =   126 x   146 x   127 =     2336292
PhiOnMesh: Number of (b)points on node 0 =                12996
PhiOnMesh: nlist on node 0 =               373327

stepf: Fermi-Dirac step function

siesta: Program's energy decomposition (eV):
siesta: Ebs     =      -641.425896
siesta: Eions   =      3553.971015
siesta: Ena     =       374.984007
siesta: Ekin    =      3171.211192
siesta: Enl     =     -2984.594237
siesta: Eso     =        -0.003879
siesta: Edftu   =         0.000000
siesta: DEna    =       129.712208
siesta: DUscf   =        75.522399
siesta: DUext   =         0.000000
siesta: Exc     =     -1168.627674
siesta: eta*DQ  =         0.000000
siesta: Emadel  =         0.000000
siesta: Emeta   =         0.000000
siesta: Emolmec =         0.000000
siesta: Ekinion =         0.000000
siesta: Eharris =     -3884.976860
siesta: Etot    =     -3955.766999
siesta: FreeEng =     -3955.770310

        iscf     Eharris(eV)        E_KS(eV)     FreeEng(eV)     dDmax    Ef(eV) dHmax(eV)
   scf:    1    -3884.976860    -3955.766999    -3955.770310  0.970504 -4.935265 21.452201
     spin moment: S , {S} =    2.02351  -0.00000  -0.00000   2.02351
timer: Routine,Calls,Time,% = IterSCF        1       4.157  10.13
   scf:    2    -3997.785636    -3989.307160    -3989.307173  0.466436 -4.292640 10.632314
     spin moment: S , {S} =    2.00007   0.00000  -0.00000   2.00007
   scf:    3    -3966.930282    -3987.941715    -3987.978595  0.420671 -4.172321 11.548361
     spin moment: S , {S} =    1.73375  -0.00000  -0.00000   1.73375
   scf:    4    -4001.901942    -3997.367713    -3997.367713  0.211436 -3.915726  7.966557
     spin moment: S , {S} =    0.00010  -0.00000   0.00000   0.00010
   scf:    5    -3998.734441    -3998.128385    -3998.128385  0.038963 -3.824754  5.000205
     spin moment: S , {S} =    0.00006  -0.00000   0.00000   0.00006
   scf:    6    -3998.881352    -3998.506943    -3998.506943  0.025673 -3.815457  2.523368
     spin moment: S , {S} =    0.00003  -0.00000   0.00000   0.00003
   scf:    7    -3998.886656    -3998.690453    -3998.690453  0.022715 -3.868151  0.755811
     spin moment: S , {S} =    0.00001  -0.00000   0.00000   0.00001
   scf:    8    -3998.812745    -3998.749329    -3998.749329  0.011878 -3.908561  0.434051
     spin moment: S , {S} =    0.00000  -0.00000   0.00000   0.00000
   scf:    9    -3998.796901    -3998.772041    -3998.772041  0.007019 -3.925285  0.337347
     spin moment: S , {S} =    0.00000  -0.00000   0.00000   0.00000
   scf:   10    -3998.827472    -3998.793009    -3998.793010  0.020496 -3.947307  0.195587
     spin moment: S , {S} =    0.00000  -0.00000  -0.00000  -0.00000
   scf:   11    -3998.796313    -3998.794745    -3998.794745  0.004155 -3.936378  0.051295
     spin moment: S , {S} =    0.00000  -0.00000  -0.00000  -0.00000
   scf:   12    -3998.795333    -3998.795053    -3998.795053  0.001399 -3.934446  0.030282
     spin moment: S , {S} =    0.00000  -0.00000  -0.00000  -0.00000
   scf:   13    -3998.795448    -3998.795249    -3998.795249  0.000941 -3.932926  0.015751
     spin moment: S , {S} =    0.00000  -0.00000  -0.00000   0.00000
   scf:   14    -3998.795496    -3998.795367    -3998.795367  0.001140 -3.932143  0.011237
     spin moment: S , {S} =    0.00000  -0.00000  -0.00000   0.00000
   scf:   15    -3998.795487    -3998.795423    -3998.795423  0.000914 -3.931855  0.009003
     spin moment: S , {S} =    0.00000  -0.00000  -0.00000   0.00000
   scf:   16    -3998.795502    -3998.795458    -3998.795459  0.000937 -3.931766  0.005616
     spin moment: S , {S} =    0.00000  -0.00000  -0.00000   0.00000
   scf:   17    -3998.795480    -3998.795468    -3998.795468  0.000467 -3.931826  0.004355
     spin moment: S , {S} =    0.00000  -0.00000  -0.00000   0.00000
   scf:   18    -3998.795479    -3998.795473    -3998.795473  0.000378 -3.931890  0.002684
     spin moment: S , {S} =    0.00000  -0.00000  -0.00000   0.00000
   scf:   19    -3998.795478    -3998.795475    -3998.795475  0.000315 -3.931902  0.001415
     spin moment: S , {S} =    0.00000  -0.00000  -0.00000   0.00000
   scf:   20    -3998.795476    -3998.795475    -3998.795476  0.000113 -3.931916  0.000910
     spin moment: S , {S} =    0.00000  -0.00000  -0.00000   0.00000
   scf:   21    -3998.795476    -3998.795476    -3998.795476  0.000093 -3.931916  0.000523
     spin moment: S , {S} =    0.00000  -0.00000  -0.00000   0.00000
   scf:   22    -3998.795476    -3998.795476    -3998.795476  0.000081 -3.931929  0.000151
     spin moment: S , {S} =    0.00000  -0.00000  -0.00000   0.00000
   scf:   23    -3998.795476    -3998.795476    -3998.795476  0.000024 -3.931931  0.000090
     spin moment: S , {S} =    0.00000  -0.00000   0.00000  -0.00000
   scf:   24    -3998.795476    -3998.795476    -3998.795476  0.000013 -3.931933  0.000059
     spin moment: S , {S} =    0.00000  -0.00000   0.00000  -0.00000
mix: Pulay -- resetting history
   scf:   25    -3998.795476    -3998.795476    -3998.795476  0.000008 -3.931928  0.000035
     spin moment: S , {S} =    0.00000  -0.00000   0.00000  -0.00000
   scf:   26    -3998.795476    -3998.795476    -3998.795476  0.000002 -3.931927  0.000023
     spin moment: S , {S} =    0.00000  -0.00000   0.00000  -0.00000
   scf:   27    -3998.795476    -3998.795476    -3998.795476  0.000002 -3.931929  0.000015
     spin moment: S , {S} =    0.00000  -0.00000   0.00000  -0.00000
   scf:   28    -3998.795476    -3998.795476    -3998.795476  0.000001 -3.931929  0.000010
     spin moment: S , {S} =    0.00000   0.00000   0.00000  -0.00000
   scf:   29    -3998.795476    -3998.795476    -3998.795476  0.000001 -3.931929  0.000005
     spin moment: S , {S} =    0.00000  -0.00000   0.00000  -0.00000
   scf:   30    -3998.795476    -3998.795476    -3998.795476  0.000000 -3.931929  0.000003
     spin moment: S , {S} =    0.00000   0.00000   0.00000  -0.00000
   scf:   31    -3998.795476    -3998.795476    -3998.795476  0.000000 -3.931929  0.000002
     spin moment: S , {S} =    0.00000  -0.00000   0.00000  -0.00000
   scf:   32    -3998.795476    -3998.795476    -3998.795476  0.000000 -3.931929  0.000002
     spin moment: S , {S} =    0.00000   0.00000   0.00000  -0.00000
   scf:   33    -3998.795476    -3998.795476    -3998.795476  0.000000 -3.931929  0.000001
     spin moment: S , {S} =    0.00000  -0.00000   0.00000  -0.00000

SCF Convergence by DM+H criterion
max |DM_out - DM_in|         :     0.0000001694
max |H_out - H_in|      (eV) :     0.0000008687
SCF cycle converged after 33 iterations

Using DM_out to compute the final energy and forces
No. of atoms with KB's overlaping orbs in proc 0. Max # of overlaps:      21     149

siesta: E_KS(eV) =            -3998.7955

siesta: E_KS - E_eggbox =     -3998.7955
     spin moment: S , {S} =    0.00000  -0.00000   0.00000  -0.00000

siesta: Atomic forces (eV/Ang):
     1    0.267890    0.092564   -0.000000
     2   -0.019971    0.033425    0.000000
     3   -0.026106   -0.006235   -0.000000
     4    0.114216    0.024467   -0.000000
     5    0.002365   -0.030394    0.000000
     6   -0.171431    0.016712    0.000000
     7    0.953025    0.002605   -0.000001
     8   -0.631733    1.317823    0.000002
     9    0.192991   -1.064246   -0.000004
    10   -0.125654    0.143193    0.000001
    11   -0.169179   -0.369163    0.000001
    12   -0.264394    0.044443    0.000000
    13    0.053045   -0.055683    0.000000
    14    0.030737   -0.117094   -0.000000
    15    0.097204    0.098725    0.000000
    16   -0.054277   -0.018850   -0.000945
    17    0.054914   -0.080468   -0.000801
    18   -0.149803    0.034127    0.005235
    19    0.093548   -0.055696   -0.001450
    20    0.115577    0.074325   -0.000981
    21    0.031015   -0.023554   -0.006785
    22    0.048033    0.060240    0.099604
    23   -0.007910    0.105675   -0.016681
    24    0.042121    0.109008   -0.078285
    25   -0.602276   -0.381571    0.001016
    26   -2.842353    1.423566    0.000494
    27    0.340644   -0.437051   -0.000551
    28   -0.176600    0.710101   -0.000073
    29    0.124285    0.155736   -0.000221
    30   -2.994022    2.390668    0.000252
----------------------------------------
   Tot   -5.674097    4.197399   -0.000173
----------------------------------------
   Max    2.994022
   Res    0.586372    sqrt( Sum f_i^2 / 3N )
----------------------------------------
   Max    2.994022    constrained

Stress tensor Voigt[x,y,z,yz,xz,xy] (kbar):        0.32        0.97       -0.05       -0.02        0.00        0.30
(Free)E + p*V (eV/cell)    -4000.1309
Target enthalpy (eV/cell)    -3998.7955

siesta: Stress tensor (static) (eV/Ang**3):
         0.000197    0.000186    0.000001
         0.000186    0.000608   -0.000011
         0.000001   -0.000011   -0.000028

siesta: Pressure (static):         -0.41487892  kBar

siesta: Stress tensor (total) (eV/Ang**3):
         0.000197    0.000186    0.000001
         0.000186    0.000608   -0.000011
         0.000001   -0.000011   -0.000028

siesta: Pressure (total):         -0.41487892  kBar

siesta: Temp_ion =       0.000 K

siesta: Eigenvalues (eV):
ik =     1
  -22.9120  -22.9120  -22.4284  -22.4284  -21.7841  -21.7841  -21.3272  -21.3272  -21.1481  -21.1481
  -20.9705  -20.9705  -19.5164  -19.5164  -19.3631  -19.3631  -18.7306  -18.7306  -15.0672  -15.0672
  -14.1449  -14.1449  -13.7610  -13.7610  -13.6168  -13.6168  -13.1268  -13.1268  -13.0158  -13.0158
  -12.6346  -12.6346  -12.2034  -12.2034  -11.9539  -11.9539  -11.7022  -11.7022  -11.5337  -11.5337
  -11.0778  -11.0778  -10.6675  -10.6675  -10.3264  -10.3264   -9.5967   -9.5967   -9.3463   -9.3463
   -9.2679   -9.2679   -9.1410   -9.1410   -9.0733   -9.0733   -8.9223   -8.9223   -8.6475   -8.6475
   -8.4385   -8.4385   -8.3565   -8.3565   -8.2574   -8.2574   -8.0577   -8.0577   -8.0330   -8.0330
   -7.7960   -7.7960   -7.4883   -7.4883   -7.4244   -7.4244   -7.3277   -7.3277   -6.9352   -6.9352
   -6.9091   -6.9091   -6.7867   -6.7867   -6.5241   -6.5241   -6.3597   -6.3597   -6.2991   -6.2991
   -5.9139   -5.9139   -5.7529   -5.7529   -5.6670   -5.6670   -4.3283   -4.3283   -3.5356   -3.5356
   -2.7409   -2.7409   -2.2999   -2.2999   -2.2573   -2.2573   -2.1722   -2.1721   -2.0699   -2.0699
   -2.0254   -2.0254   -1.8281   -1.8281   -1.7015   -1.7015   -1.6775   -1.6775   -1.5237   -1.5237
   -1.2002   -1.2002   -0.6709   -0.6709   -0.4251   -0.4251   -0.3264   -0.3264   -0.2109   -0.2109
   -0.0445   -0.0445    0.0173    0.0173    0.2055    0.2055    0.4517    0.4517    0.4645    0.4645
    0.5523    0.5523    0.6926    0.6926    1.0590    1.0590    1.1659    1.1659    1.2922    1.2922
    1.4114    1.4114    1.5226    1.5226    1.8246    1.8246    1.9075    1.9075    2.0819    2.0819
    2.3378    2.3378    2.5908    2.5908    2.7260    2.7260    2.7622    2.7622    2.8362    2.8362
    2.9651    2.9651    2.9672    2.9672    3.2019    3.2019    3.2213    3.2213    3.2764    3.2764
    3.5617    3.5617    3.8602    3.8602    4.0857    4.0857    4.1162    4.1162    4.1819    4.1819
    4.3198    4.3198    4.5807    4.5807    4.6559    4.6559    4.7529    4.7529    4.9694    4.9694
    5.0306    5.0306    5.1220    5.1220    5.5238    5.5238    5.6594    5.6594    5.6674    5.6674
    5.7681    5.7681    6.0055    6.0055    6.0531    6.0531    6.2124    6.2124    6.2157    6.2157
    6.5430    6.5430    6.5877    6.5877    6.7749    6.7749    7.0170    7.0170    7.1115    7.1115
    7.1404    7.1404    7.3803    7.3803    7.5545    7.5545    7.7990    7.7990    7.8351    7.8351
    8.0043    8.0043    8.1026    8.1026    8.2811    8.2811    8.2990    8.2990    8.6369    8.6369
    8.8151    8.8151    8.9431    8.9431    8.9515    8.9515    9.1849    9.1849    9.5450    9.5450
    9.5802    9.5802    9.7599    9.7599    9.7659    9.7659    9.8274    9.8274    9.9169    9.9169
   10.1234   10.1234   10.3323   10.3323   10.6431   10.6431   10.8848   10.8848   10.9262   10.9262
   11.2253   11.2253   11.3456   11.3456   11.5859   11.5859   11.5996   11.5996   11.6461   11.6461
   11.8911   11.8911   12.2498   12.2498   12.3087   12.3087   12.3880   12.3880   12.5612   12.5612
   12.8556   12.8556   12.9033   12.9033   13.0036   13.0036   13.2049   13.2049   13.2591   13.2591
   13.4514   13.4514   13.6484   13.6484   14.4458   14.4458   14.6200   14.6200   14.7026   14.7026
   14.7205   14.7205   14.8347   14.8347   15.1213   15.1213   16.0650   16.0650   16.5302   16.5302
   16.6769   16.6769   16.8069   16.8069   16.9842   16.9842   17.1201   17.1201   17.3979   17.3979
   18.1361   18.1361   18.2080   18.2080   18.4764   18.4764   18.7060   18.7060   18.7380   18.7380
   18.7552   18.7552   19.4974   19.4974   19.8135   19.8135   19.9700   19.9700   20.1962   20.1962
   20.6148   20.6148   21.0064   21.0064   21.1541   21.1541   21.6707   21.6707   22.1715   22.1715
   22.2448   22.2448   22.8140   22.8140   22.9342   22.9342   23.0753   23.0753   23.7971   23.7971
   24.5421   24.5421   24.7669   24.7669   24.7940   24.7940   25.7102   25.7102   25.9094   25.9094
   26.0131   26.0131   26.4946   26.4946   26.5123   26.5123   27.6984   27.6984   27.9779   27.9779
   28.3938   28.3938   28.5736   28.5736   29.4114   29.4114   29.7195   29.7195   30.3807   30.3807
   30.7326   30.7326   30.7392   30.7392   30.9470   30.9470   31.2840   31.2840   31.6052   31.6052
   31.7464   31.7464   31.9754   31.9754   32.0461   32.0461   33.2757   33.2757   33.3385   33.3385
   33.7152   33.7152   34.0146   34.0146   34.3724   34.3724   34.7116   34.7116   34.9402   34.9402
   35.8793   35.8793   35.9416   35.9416   36.1366   36.1366   37.0746   37.0746   37.3242   37.3242
   37.5779   37.5779   38.0008   38.0008   38.2206   38.2206   38.3972   38.3972   38.4302   38.4302
   39.0669   39.0669   40.1587   40.1587   40.3731   40.3731   40.6741   40.6741   41.4430   41.4430
   41.5453   41.5453   41.9026   41.9026   42.1798   42.1798   43.3255   43.3255   43.4996   43.4996
   43.8327   43.8327   44.3776   44.3776   44.6875   44.6875   45.0773   45.0773   45.1552   45.1552
   45.5621   45.5621   45.7556   45.7556   46.2881   46.2881   46.5004   46.5004   46.9612   46.9612
   47.0812   47.0812   47.6222   47.6222   48.5306   48.5306   48.8440   48.8440   49.3516   49.3516
   49.8755   49.8755   50.1263   50.1263   50.2620   50.2620   50.3182   50.3182   50.4260   50.4260
   51.6860   51.6860   52.6298   52.6298   52.8159   52.8159   53.8845   53.8845   54.4642   54.4642
   54.6581   54.6581   54.8296   54.8296   55.7860   55.7860   56.3300   56.3300   56.3744   56.3744
   57.0980   57.0980   57.8790   57.8790   57.9542   57.9542   58.8385   58.8385   59.6394   59.6394
   60.4264   60.4264   61.2042   61.2042   61.6695   61.6695   62.8631   62.8631   63.3437   63.3437
   65.2223   65.2223   65.4397   65.4397   66.9675   66.9675   67.3140   67.3140   68.3460   68.3460
   68.4733   68.4733   70.5701   70.5701   71.9048   71.9048   76.9742   76.9742   88.6352   88.6352
   92.0802   92.0802   92.9925   92.9925   95.0150   95.0150   96.6201   96.6201  100.0926  100.0926
  101.0140  101.0140  102.5068  102.5068  114.4671  114.4671  118.4899  118.4899  123.2003  123.2003
  132.5693  132.5693  138.8767  138.8767
siesta: Fermi energy =      -3.931929 eV

siesta: Program's energy decomposition (eV):
siesta: Ebs     =     -1119.325570
siesta: Eions   =      3553.971015
siesta: Ena     =       374.984007
siesta: Ekin    =      2742.989705
siesta: Enl     =     -2522.714869
siesta: Eso     =        -0.004663
siesta: Edftu   =         0.000000
siesta: DEna    =        36.881210
siesta: DUscf   =        13.861797
siesta: DUext   =         0.000000
siesta: Exc     =     -1090.821649
siesta: eta*DQ  =         0.000000
siesta: Emadel  =         0.000000
siesta: Emeta   =         0.000000
siesta: Emolmec =         0.000000
siesta: Ekinion =         0.000000
siesta: Eharris =     -3998.795476
siesta: Etot    =     -3998.795476
siesta: FreeEng =     -3998.795476

siesta: Final energy (eV):
siesta:  Band Struct. =   -1119.325570
siesta:       Kinetic =    2742.989705
siesta:       Hartree =    7542.454997
siesta:       Edftu   =       0.000000
siesta:       Eso     =      -0.004663
siesta:    Ext. field =       0.000000
siesta:   Exch.-corr. =   -1090.821649
siesta:  Ion-electron =  -17531.551924
siesta:       Ion-ion =    4338.138057
siesta:       Ekinion =       0.000000
siesta:         Total =   -3998.795476
siesta:         Fermi =      -3.931929

siesta: Atomic forces (eV/Ang):
siesta:      1    0.267890    0.092564   -0.000000
siesta:      2   -0.019971    0.033425    0.000000
siesta:      3   -0.026106   -0.006235   -0.000000
siesta:      4    0.114216    0.024467   -0.000000
siesta:      5    0.002365   -0.030394    0.000000
siesta:      6   -0.171431    0.016712    0.000000
siesta:      7    0.953025    0.002605   -0.000001
siesta:      8   -0.631733    1.317823    0.000002
siesta:      9    0.192991   -1.064246   -0.000004
siesta:     10   -0.125654    0.143193    0.000001
siesta:     11   -0.169179   -0.369163    0.000001
siesta:     12   -0.264394    0.044443    0.000000
siesta:     13    0.053045   -0.055683    0.000000
siesta:     14    0.030737   -0.117094   -0.000000
siesta:     15    0.097204    0.098725    0.000000
siesta:     16   -0.054277   -0.018850   -0.000945
siesta:     17    0.054914   -0.080468   -0.000801
siesta:     18   -0.149803    0.034127    0.005235
siesta:     19    0.093548   -0.055696   -0.001450
siesta:     20    0.115577    0.074325   -0.000981
siesta:     21    0.031015   -0.023554   -0.006785
siesta:     22    0.048033    0.060240    0.099604
siesta:     23   -0.007910    0.105675   -0.016681
siesta:     24    0.042121    0.109008   -0.078285
siesta:     25   -0.602276   -0.381571    0.001016
siesta:     26   -2.842353    1.423566    0.000494
siesta:     27    0.340644   -0.437051   -0.000551
siesta:     28   -0.176600    0.710101   -0.000073
siesta:     29    0.124285    0.155736   -0.000221
siesta:     30   -2.994022    2.390668    0.000252
siesta: ----------------------------------------
siesta:    Tot   -5.674097    4.197399   -0.000173

siesta: Stress tensor (static) (eV/Ang**3):
siesta:     0.000197    0.000186    0.000001
siesta:     0.000186    0.000608   -0.000011
siesta:     0.000001   -0.000011   -0.000028

siesta: Cell volume =       5157.238505 Ang**3

siesta: Pressure (static):
siesta:                Solid            Molecule  Units
siesta:          -0.00000282         -0.00000903  Ry/Bohr**3
siesta:          -0.00025894         -0.00082922  eV/Ang**3
siesta:          -0.41487892         -1.32856495  kBar
(Free)E+ p_basis*V_orbitals  =       -3977.667391
(Free)Eharris+ p_basis*V_orbitals  =       -3977.667391
     spin moment: S , {S} =    0.00000  -0.00000   0.00000  -0.00000

siesta: Electric dipole (a.u.)  =   -1.270123    1.704924   -0.001763
siesta: Electric dipole (Debye) =   -3.228332    4.333487   -0.004482

cite: Please see "AT.bib" for an exhaustive BiBTeX file.
cite: Please clearly indicate Siesta version in published work: v4.1.5-1-g384057250
cite: This calculation has made use of the following articles
cite: which are encouraged to be cited in a published work.
        Primary SIESTA paper
          DOI: www.doi.org/10.1088/0953-8984/14/11/302
        Spin-orbit coupling (on-site approximation)
          DOI: www.doi.org/10.1088/0953-8984/19/19/489001


WARNING: alloc-realloc-dealloc name mismatch
         Name: atomlist isa
         Size:              -120. Bytes
         Node:     0
         Subsequent mismatches will not be reported
>> End of run:  16-OCT-2023  20:44:53
Job completed
