<?xml version="1.0" encoding="UTF-8" ?>
<psml version="1.1" energy_unit="hartree" length_unit="bohr"
 uuid="a0310840-10f3-11ef-4cf6-50e8f86df49f"
 xmlns="http://esl.cecam.org/PSML/ns/1.1">
<provenance creator="ATM4.2.7" date="13-MAY-24">
<annotation action="semilocal-pseudopotential-generation" />
<input-file name="INP">
<![CDATA[   pg Oxygen
        tm2      2.0
   O    vlr
      0.00
    1    4
    2    0      1.00      1.00
    2    1      2.00      2.00
    3    2      0.00      0.00
    4    3      0.00      0.00
      0.98      1.71      2.38      1.07      0.00      0.00
]]>
</input-file>
</provenance>
<pseudo-atom-spec atomic-label="O" atomic-number="8" z-pseudo="6"
 flavor="Troullier-Martins" relativity="dirac" spin-dft="no"
 core-corrections="no">
<annotation pseudo-energy="-15.7142465100" />
<exchange-correlation>
<annotation atom-xc-code="vl" siesta-xc-type="VDW" siesta-xc-authors="LMKLL" />
<libxc-info number-of-functionals="2">
<functional name="XC_GGA_X_OPTB88_VDW" type="XC_EXCHANGE" id="139" />
<functional name="XC_NOT_IMPL" type="XC_EXCHANGE_CORRELATION" id="-1" />
</libxc-info>
</exchange-correlation>
<valence-configuration total-valence-charge="6">
<shell n="2" l="s" occupation="2" />
<shell n="2" l="p" occupation="4" />
</valence-configuration>
</pseudo-atom-spec>
<grid npts="376">
<annotation type="sampled-log-atom"
 recipe="r(i:1..N) = a*(exp(b*(i-1))-1); resampled"
 recipe-cont="a: scale; b: step" scale="0.309844022083E-03"
 step="0.125000000000E-01" delta="0.500000000000E-02" rmax="20" />
<grid-data>
  0.000000000000E+00  5.046671836297E-03  1.007984357808E-02  1.518974854062E-02
  2.035251700562E-02  2.556610006306E-02  3.090250246574E-02  3.595372892337E-02
  4.129904144018E-02  4.683920017331E-02  5.245334327694E-02  5.800249612577E-02
  6.333470855386E-02  6.915451056086E-02  7.456468283430E-02  8.039622178140E-02
  8.560131582679E-02  9.114210959625E-02  9.704025386184E-02  1.033187957505E-01
  1.086319497276E-01  1.142175149343E-01  1.200894581930E-01  1.262624624205E-01
  1.327519633426E-01  1.378365207374E-01  1.431153692244E-01  1.485959330545E-01
  1.542859201736E-01  1.601933330639E-01  1.663264799983E-01  1.726939867255E-01
  1.793048086012E-01  1.861682431831E-01  1.932939433072E-01  2.006919306636E-01
  2.057803148154E-01  2.109975120253E-01  2.163467832113E-01  2.218314718422E-01
  2.274550060267E-01  2.332209006569E-01  2.391327596047E-01  2.451942779741E-01
  2.514092444117E-01  2.577815434737E-01  2.643151580545E-01  2.710141718758E-01
  2.778827720395E-01  2.849252516441E-01  2.921460124687E-01  2.995495677238E-01
  3.071405448725E-01  3.149236885227E-01  3.229038633924E-01  3.310860573507E-01
  3.394753845353E-01  3.480770885486E-01  3.568965457358E-01  3.659392685446E-01
  3.752109089712E-01  3.847172620927E-01  3.944642696891E-01  4.044580239577E-01
  4.095493769703E-01  4.147047713200E-01  4.199250125477E-01  4.252109163268E-01
  4.305633085904E-01  4.359830256606E-01  4.414709143795E-01  4.470278322406E-01
  4.526546475238E-01  4.583522394303E-01  4.641214982206E-01  4.699633253529E-01
  4.758786336247E-01  4.818683473150E-01  4.879334023287E-01  4.940747463430E-01
  5.002933389553E-01  5.065901518335E-01  5.129661688673E-01  5.194223863224E-01
  5.259598129959E-01  5.325794703740E-01  5.392823927917E-01  5.460696275941E-01
  5.529422353007E-01  5.599012897702E-01  5.669478783691E-01  5.740831021413E-01
  5.813080759799E-01  5.886239288018E-01  5.960318037239E-01  6.035328582417E-01
  6.111282644103E-01  6.188192090273E-01  6.266068938185E-01  6.344925356254E-01
  6.424773665957E-01  6.505626343754E-01  6.587496023041E-01  6.670395496121E-01
  6.754337716206E-01  6.839335799438E-01  6.925403026942E-01  7.012552846896E-01
  7.100798876637E-01  7.190154904786E-01  7.280634893406E-01  7.372252980178E-01
  7.465023480615E-01  7.558960890295E-01  7.654079887132E-01  7.750395333660E-01
  7.847922279366E-01  7.946675963031E-01  8.046671815122E-01  8.147925460192E-01
  8.250452719330E-01  8.354269612628E-01  8.459392361688E-01  8.565837392153E-01
  8.673621336275E-01  8.782761035516E-01  8.893273543174E-01  9.005176127055E-01
  9.118486272164E-01  9.233221683442E-01  9.349400288532E-01  9.467040240575E-01
  9.586159921055E-01  9.706777942663E-01  9.828913152210E-01  9.952584633573E-01
  1.007781171067E+00  1.020461395049E+00  1.033301116614E+00  1.046302341994E+00
  1.059467102657E+00  1.072797455625E+00  1.086295483792E+00  1.099963296251E+00
  1.113803028628E+00  1.127816843407E+00  1.142006930277E+00  1.156375506466E+00
  1.170924817095E+00  1.185657135523E+00  1.200574763704E+00  1.215680032548E+00
  1.230975302284E+00  1.246462962830E+00  1.262145434163E+00  1.278025166702E+00
  1.294104641687E+00  1.310386371569E+00  1.326872900401E+00  1.343566804237E+00
  1.360470691534E+00  1.377587203558E+00  1.394919014799E+00  1.412468833388E+00
  1.430239401519E+00  1.448233495881E+00  1.466453928086E+00  1.484903545115E+00
  1.503585229758E+00  1.522501901066E+00  1.541656514807E+00  1.561052063929E+00
  1.580691579025E+00  1.600578128811E+00  1.620714820599E+00  1.641104800789E+00
  1.661751255357E+00  1.682657410353E+00  1.703826532407E+00  1.725261929236E+00
  1.746966950166E+00  1.768944986650E+00  1.791199472801E+00  1.813733885927E+00
  1.836551747077E+00  1.859656621587E+00  1.883052119642E+00  1.906741896835E+00
  1.930729654743E+00  1.955019141501E+00  1.979614152392E+00  2.004518530435E+00
  2.029736166990E+00  2.055271002365E+00  2.081127026429E+00  2.107308279239E+00
  2.133818851669E+00  2.160662886049E+00  2.187844576815E+00  2.215368171161E+00
  2.243237969704E+00  2.271458327158E+00  2.300033653011E+00  2.328968412215E+00
  2.358267125886E+00  2.387934372007E+00  2.417974786145E+00  2.448393062177E+00
  2.479193953020E+00  2.510382271376E+00  2.541962890483E+00  2.573940744877E+00
  2.606320831163E+00  2.639108208795E+00  2.672308000868E+00  2.705925394917E+00
  2.739965643727E+00  2.774434066158E+00  2.809336047970E+00  2.844677042669E+00
  2.880462572357E+00  2.916698228596E+00  2.953389673281E+00  2.990542639525E+00
  3.028162932554E+00  3.066256430617E+00  3.104829085898E+00  3.143886925455E+00
  3.183436052154E+00  3.223482645627E+00  3.264032963235E+00  3.305093341048E+00
  3.346670194834E+00  3.388770021060E+00  3.431399397910E+00  3.474564986312E+00
  3.518273530975E+00  3.562531861449E+00  3.607346893188E+00  3.652725628632E+00
  3.698675158301E+00  3.745202661903E+00  3.792315409453E+00  3.840020762416E+00
  3.888326174849E+00  3.937239194571E+00  3.986767464342E+00  4.036918723054E+00
  4.087700806944E+00  4.139121650814E+00  4.191189289278E+00  4.243911858009E+00
  4.297297595016E+00  4.351354841928E+00  4.406092045301E+00  4.461517757935E+00
  4.517640640209E+00  4.574469461438E+00  4.632013101240E+00  4.690280550928E+00
  4.749280914908E+00  4.809023412107E+00  4.869517377412E+00  4.930772263128E+00
  4.992797640456E+00  5.055603200986E+00  5.119198758217E+00  5.183594249082E+00
  5.248799735508E+00  5.314825405986E+00  5.381681577160E+00  5.449378695443E+00
  5.517927338649E+00  5.587338217641E+00  5.657622178010E+00  5.728790201770E+00
  5.800853409067E+00  5.873823059925E+00  5.947710556001E+00  6.022527442365E+00
  6.098285409309E+00  6.174996294169E+00  6.252672083177E+00  6.331324913333E+00
  6.410967074301E+00  6.491611010332E+00  6.573269322204E+00  6.655954769195E+00
  6.739680271074E+00  6.824458910121E+00  6.910303933171E+00  6.997228753683E+00
  7.085246953838E+00  7.174372286659E+00  7.264618678159E+00  7.356000229521E+00
  7.448531219299E+00  7.542226105648E+00  7.637099528585E+00  7.733166312274E+00
  7.830441467347E+00  7.928940193243E+00  8.028677880591E+00  8.129670113605E+00
  8.231932672528E+00  8.335481536094E+00  8.440332884021E+00  8.546503099548E+00
  8.654008771985E+00  8.762866699314E+00  8.873093890806E+00  8.984707569685E+00
  9.097725175815E+00  9.212164368427E+00  9.328043028878E+00  9.445379263444E+00
  9.564191406150E+00  9.684498021636E+00  9.806317908054E+00  9.929670100011E+00
  1.005457387154E+01  1.018104873910E+01  1.030911446465E+01  1.043879105873E+01
  1.057009878357E+01  1.070305815625E+01  1.083768995197E+01  1.097401520720E+01
  1.111205522305E+01  1.125183156854E+01  1.139336608403E+01  1.153668088456E+01
  1.168179836336E+01  1.182874119534E+01  1.197753234061E+01  1.212819504809E+01
  1.228075285914E+01  1.243522961122E+01  1.259164944164E+01  1.275003679132E+01
  1.291041640859E+01  1.307281335312E+01  1.323725299974E+01  1.340376104248E+01
  1.357236349858E+01  1.374308671249E+01  1.391595736008E+01  1.409100245274E+01
  1.426824934161E+01  1.444772572188E+01  1.462945963710E+01  1.481347948357E+01
  1.499981401476E+01  1.518849234582E+01  1.537954395812E+01  1.557299870388E+01
  1.576888681077E+01  1.596723888673E+01  1.616808592466E+01  1.637145930733E+01
  1.657739081223E+01  1.678591261659E+01  1.699705730237E+01  1.721085786134E+01
  1.742734770027E+01  1.764656064616E+01  1.786853095147E+01  1.809329329950E+01
  1.832088280984E+01  1.855133504380E+01  1.878468601002E+01  1.902097217006E+01
  1.926023044412E+01  1.950249821678E+01  1.974781334288E+01  1.999621415340E+01
</grid-data>
</grid>
<valence-charge total-charge="6" is-unscreening-charge="yes"
 rescaled-to-z-pseudo="no">
<radfunc>
<data>
  2.397594054776E+00  2.399191529070E+00  2.403965550707E+00  2.412057857288E+00
  2.423547847243E+00  2.438521133829E+00  2.457340639723E+00  2.478394668869E+00
  2.504086490846E+00  2.534392338205E+00  2.568890794806E+00  2.606702417269E+00
  2.646477736005E+00  2.693696343339E+00  2.741110099834E+00  2.795960115849E+00
  2.848150162919E+00  2.907002605293E+00  2.973321294240E+00  3.047993859978E+00
  3.114399642221E+00  3.187317166745E+00  3.267327349086E+00  3.355049986819E+00
  3.451143237643E+00  3.529123175051E+00  3.612507825733E+00  3.701613064648E+00
  3.796763363521E+00  3.898290125238E+00  4.006529573066E+00  4.121820123881E+00
  4.244499166710E+00  4.374899159723E+00  4.513342950609E+00  4.660138217300E+00
  4.762783768303E+00  4.869346606501E+00  4.979897637691E+00  5.094499592402E+00
  5.213205648385E+00  5.336057923530E+00  5.463085832209E+00  5.594304298390E+00
  5.729711819413E+00  5.869288375011E+00  6.012993177144E+00  6.160762257430E+00
  6.312505890507E+00  6.468105853562E+00  6.627412524576E+00  6.790241824587E+00
  6.956372012592E+00  7.125540345546E+00  7.297439620484E+00  7.471714621024E+00
  7.647958496616E+00  7.825709109913E+00  8.004445395702E+00  8.183583784075E+00
  8.362474751084E+00  8.540399572230E+00  8.716567367974E+00  8.890112546226E+00
  8.975610212727E+00  9.060092764846E+00  9.143430191686E+00  9.225487557664E+00
  9.306125007844E+00  9.385197790855E+00  9.462556301168E+00  9.538046142663E+00
  9.611508215517E+00  9.682778828608E+00  9.751689839739E+00  9.818068826136E+00
  9.881739287807E+00  9.942520886489E+00  1.000022972301E+01  1.005467865603E+01
  1.010567766524E+01  1.015303426204E+01  1.019655395104E+01  1.023604074537E+01
  1.027129773903E+01  1.030212773928E+01  1.032833396195E+01  1.034972079221E+01
  1.036609461310E+01  1.037726470356E+01  1.038304420721E+01  1.038325117226E+01
  1.037770966218E+01  1.036625093563E+01  1.034871469296E+01  1.032495038498E+01
  1.029481857853E+01  1.025819237104E+01  1.021495884467E+01  1.016502054842E+01
  1.010829699421E+01  1.004472615084E+01  9.974265916982E+00  9.896895552497E+00
  9.812617044598E+00  9.721456383737E+00  9.623464722068E+00  9.518719386040E+00
  9.407324713784E+00  9.289412687689E+00  9.165143333003E+00  9.034704854576E+00
  8.898313486046E+00  8.756213028893E+00  8.608674062953E+00  8.455992815106E+00
  8.298489679017E+00  8.136507385805E+00  7.970408833409E+00  7.800574590942E+00
  7.627400103429E+00  7.451292631799E+00  7.272667972718E+00  7.091947012714E+00
  6.909552180872E+00  6.725903874257E+00  6.541416940075E+00  6.356497308566E+00
  6.171538880875E+00  5.986920786872E+00  5.803005139317E+00  5.620135423054E+00
  5.438635671185E+00  5.258810594302E+00  5.080946749411E+00  4.905314117276E+00
  4.732166287038E+00  4.561739236599E+00  4.394251048417E+00  4.229901330284E+00
  4.068870850433E+00  3.911321356889E+00  3.757395512002E+00  3.607216945129E+00
  3.460890445614E+00  3.318502271717E+00  3.180120574933E+00  3.045795931669E+00
  2.915561972396E+00  2.789436102608E+00  2.667420307278E+00  2.549502007563E+00
  2.435654961406E+00  2.325840268583E+00  2.220007398910E+00  2.118095222244E+00
  2.020033066425E+00  1.925741784133E+00  1.835134819490E+00  1.748119275032E+00
  1.664596970046E+00  1.584465487546E+00  1.507619200617E+00  1.433950276450E+00
  1.363349686138E+00  1.295708166892E+00  1.230917134344E+00  1.168869545171E+00
  1.109460700802E+00  1.052588983465E+00  9.981564996741E-01  9.460696348475E-01
  8.962394730787E-01  8.485820645651E-01  8.030185436221E-01  7.594750407045E-01
  7.178823592884E-01  6.781752878997E-01  6.402919359703E-01  6.041722944015E-01
  5.697571570747E-01  5.369878727601E-01  5.058064144646E-01  4.761554550016E-01
  4.479784510262E-01  4.212197505651E-01  3.958246735160E-01  3.717395716754E-01
  3.489118812122E-01  3.272901687307E-01  3.068241703938E-01  2.874648283367E-01
  2.691643169450E-01  2.518760726139E-01  2.355548149033E-01  2.201565567878E-01
  2.056386246642E-01  1.919596731039E-01  1.790796891531E-01  1.669599905870E-01
  1.555632203094E-01  1.448533370212E-01  1.347956061566E-01  1.253565785402E-01
  1.165040877610E-01  1.082072156748E-01  1.004362746899E-01  9.316279372128E-02
  8.635949529803E-02  8.000026969755E-02  7.406014815343E-02  6.851527406515E-02
  6.334287388774E-02  5.852122794899E-02  5.402964011193E-02  4.984840674198E-02
  4.595878539352E-02  4.234296320978E-02  3.898402544468E-02  3.586592392863E-02
  3.297344549639E-02  3.029218080030E-02  2.780849342302E-02  2.550948925116E-02
  2.338298633704E-02  2.141748523373E-02  1.960213981557E-02  1.792672858639E-02
  1.638162710527E-02  1.495778022346E-02  1.364667566949E-02  1.244031890097E-02
  1.133120759416E-02  1.031230700491E-02  9.377026302846E-03  8.519195648036E-03
  7.733044122103E-03  7.013178432013E-03  6.354562235340E-03  5.752496459816E-03
  5.202600652070E-03  4.700794065843E-03  4.243279106714E-03  3.826525371300E-03
  3.447252664590E-03  3.102415230261E-03  2.789187477183E-03  2.504950032268E-03
  2.247276694734E-03  2.013922423088E-03  1.802811397045E-03  1.612025500754E-03
  1.439793838161E-03  1.284482921174E-03  1.144587160921E-03  1.018720040387E-03
  9.056059220991E-04  8.040725075824E-04  7.130433799203E-04  6.315308650861E-04
  5.586299581069E-04  4.935124863664E-04  4.354212118455E-04  3.836644667768E-04
  3.376114918488E-04  2.966877737000E-04  2.603704919282E-04  2.281846401564E-04
  1.996992572469E-04  1.745237501729E-04  1.523046680805E-04  1.327226360186E-04
  1.154894288208E-04  1.003453341341E-04  8.705666936332E-05  7.541344316466E-05
  6.522725983829E-05  5.632937523548E-05  4.856887728498E-05  4.181097245159E-05
  3.593542762493E-05  3.083519586937E-05  2.641514129295E-05  2.259084839137E-05
  1.928753035614E-05  1.643903200948E-05  1.398692567559E-05  1.187969697595E-05
  1.007200753202E-05  8.524024718645E-06  7.200814485146E-06  6.071793276571E-06
  5.110234356817E-06  4.292823953119E-06  3.599262933373E-06  3.011910015008E-06
  2.515462781843E-06  2.096673051267E-06  1.744093387833E-06  1.447851800734E-06
  1.199451891987E-06  9.915959393893E-07  8.180286035557E-07  6.733991417088E-07
  5.531401924467E-07  4.533613657539E-07  3.707560316762E-07  3.025198487322E-07
  2.462797117744E-07  2.000319244636E-07  1.620885228763E-07  1.310307789519E-07
  1.056690268500E-07  8.500800672150E-08  6.821710850362E-08  5.460474413807E-08
  4.359656133342E-08  3.471660447657E-08  2.757191261074E-08  2.183718682096E-08
  1.724829863328E-08  1.358331453683E-08  1.066635492446E-08  8.353145573111E-09
  6.523982528087E-09  5.081467445991E-09  3.946970169561E-09  3.057182848988E-09
  2.361273042136E-09  1.818538035610E-09  1.396477441929E-09  1.069213890306E-09
  8.162025929803E-10  6.211799621367E-10  4.713094762121E-10  3.564898282909E-10
  2.687961925389E-10  2.020303577396E-10  1.513596238057E-10  1.130278462881E-10
  8.412494045866E-11  6.240360337502E-11  4.613405147478E-11  3.398926503751E-11
  2.495463311858E-11  1.825704956103E-11  1.330946207202E-11  9.667655948809E-12
  6.996690634750E-12  5.044925267112E-12  3.623989331371E-12  2.593393774947E-12
  1.848750960102E-12  1.312790754076E-12  9.285349242395E-13  6.541311556210E-13
  4.589583050025E-13  3.207015894079E-13  2.231648896110E-13  1.546409876586E-13
  1.067023979455E-13  7.330795444940E-14  5.014546073088E-14  3.415007818666E-14
  2.315298440104E-14  1.562617920934E-14  1.049794282543E-14  7.019980578175E-15
  4.672209747582E-15  3.094835379165E-15  2.040118245878E-15  1.338286596172E-15
  8.735585549595E-16  5.673574813641E-16  3.666197431427E-16  2.356900729577E-16
</data>
</radfunc>
</valence-charge>
<semilocal-potentials set="scalar_relativistic">
<slps n="2" l="s" rc="0.970677794266" flavor="Troullier-Martins">
<radfunc>
<data>
 -4.998631069349E+00 -5.522880453119E+00 -6.037829359664E+00 -6.685678363583E+00
 -7.165942322643E+00 -7.261934606402E+00 -6.995411816750E+00 -6.583104081490E+00
 -6.138289833564E+00 -5.745632278399E+00 -5.432362631350E+00 -5.193515724478E+00
 -5.014085517055E+00 -4.859416103267E+00 -4.744169493164E+00 -4.642961978364E+00
 -4.568170585480E+00 -4.501161186573E+00 -4.441113428409E+00 -4.387186435863E+00
 -4.348223782923E+00 -4.312794685024E+00 -4.280764525602E+00 -4.252025355493E+00
 -4.226497464870E+00 -4.209429794855E+00 -4.194137264110E+00 -4.180630531926E+00
 -4.168937282935E+00 -4.159103812879E+00 -4.151196165237E+00 -4.145296047648E+00
 -4.141499505186E+00 -4.139953287729E+00 -4.140803058544E+00 -4.144210623563E+00
 -4.147989097657E+00 -4.153035682483E+00 -4.159405179050E+00 -4.167152338725E+00
 -4.176330826713E+00 -4.186992097461E+00 -4.199184250027E+00 -4.212950977718E+00
 -4.228330791924E+00 -4.245356789974E+00 -4.264057355680E+00 -4.284458331261E+00
 -4.306587376979E+00 -4.330481425339E+00 -4.356198305870E+00 -4.383833699540E+00
 -4.413544472682E+00 -4.445578984325E+00 -4.480313965273E+00 -4.518295844801E+00
 -4.560281868558E+00 -4.607273194991E+00 -4.660529032248E+00 -4.721549038222E+00
 -4.792012377751E+00 -4.873667604193E+00 -4.968178272686E+00 -5.076942889220E+00
 -5.136991213707E+00 -5.200919789320E+00 -5.268757388595E+00 -5.340491987985E+00
 -5.416070548243E+00 -5.495400042535E+00 -5.578349594994E+00 -5.664753518919E+00
 -5.754414992578E+00 -5.847110085426E+00 -5.942591849204E+00 -6.040594214037E+00
 -6.140835474146E+00 -6.243021204344E+00 -6.346846510201E+00 -6.451997575316E+00
 -6.558152523490E+00 -6.664981658591E+00 -6.772147178988E+00 -6.879302486505E+00
 -6.986091223128E+00 -7.092146173862E+00 -7.197088173253E+00 -7.300525148268E+00
 -7.402051422984E+00 -7.501247402335E+00 -7.597679743435E+00 -7.690902114017E+00
 -7.780456627616E+00 -7.865876033227E+00 -7.946686721615E+00 -8.022412589200E+00
 -8.092579771048E+00 -8.156722214885E+00 -8.214388016349E+00 -8.265146371603E+00
 -8.308594928644E+00 -8.344367238182E+00 -8.372139929575E+00 -8.391639160823E+00
 -8.402645927531E+00 -8.405000026186E+00 -8.398599844909E+00 -8.383414067159E+00
 -8.359447305270E+00 -8.326769765510E+00 -8.285512258639E+00 -8.235840461456E+00
 -8.177966864041E+00 -8.112147674235E+00 -8.038687480948E+00 -7.957946902828E+00
 -7.870353755680E+00 -7.776416592668E+00 -7.676738993250E+00 -7.572032564851E+00
 -7.463126441344E+00 -7.350971095835E+00 -7.236634470262E+00 -7.121288664528E+00
 -7.006185736608E+00 -6.892620630028E+00 -6.781881876750E+00 -6.675182212242E+00
 -6.573564466715E+00 -6.477832975966E+00 -6.388408757303E+00 -6.305172843522E+00
 -6.227252668260E+00 -6.152817128686E+00 -6.079503115822E+00 -6.006761106938E+00
 -5.934604265201E+00 -5.863044401101E+00 -5.792112247635E+00 -5.721822141769E+00
 -5.652164045744E+00 -5.583138663884E+00 -5.514737657291E+00 -5.446987823747E+00
 -5.379927919056E+00 -5.313570961966E+00 -5.247932540472E+00 -5.183022637995E+00
 -5.118842066098E+00 -5.055394179310E+00 -4.992704502766E+00 -4.930776494768E+00
 -4.869566375986E+00 -4.809034480186E+00 -4.749217543240E+00 -4.690148725371E+00
 -4.631827044219E+00 -4.574254658629E+00 -4.517427936654E+00 -4.461342222755E+00
 -4.405983570908E+00 -4.351362628362E+00 -4.297446514383E+00 -4.244197155095E+00
 -4.191640745279E+00 -4.139780328912E+00 -4.088601230314E+00 -4.038089249363E+00
 -3.988226158903E+00 -3.938992430016E+00 -3.890367408891E+00 -3.842331683880E+00
 -3.794863636454E+00 -3.747944126327E+00 -3.701559828085E+00 -3.655697445572E+00
 -3.610342732322E+00 -3.565506487478E+00 -3.521196784851E+00 -3.477421519886E+00
 -3.434203389450E+00 -3.391524926084E+00 -3.349373504502E+00 -3.307750660300E+00
 -3.266645298139E+00 -3.226054291217E+00 -3.185970291895E+00 -3.146384460545E+00
 -3.107291637946E+00 -3.068685915327E+00 -3.030561016078E+00 -2.992910878968E+00
 -2.955729491160E+00 -2.919010883099E+00 -2.882749230781E+00 -2.846939155958E+00
 -2.811573837612E+00 -2.776647671354E+00 -2.742155777309E+00 -2.708092538916E+00
 -2.674452643974E+00 -2.641230801184E+00 -2.608421878870E+00 -2.576020568770E+00
 -2.544022592503E+00 -2.512451454110E+00 -2.481266973171E+00 -2.450465137697E+00
 -2.420041877563E+00 -2.389993101674E+00 -2.360314690451E+00 -2.331002442108E+00
 -2.302052270089E+00 -2.273460128840E+00 -2.245221823753E+00 -2.217333218185E+00
 -2.189790171606E+00 -2.162588563005E+00 -2.135724306401E+00 -2.109193317981E+00
 -2.082991523124E+00 -2.057114918503E+00 -2.031559526569E+00 -2.006321414732E+00
 -1.981396676437E+00 -1.956781459967E+00 -1.932471961615E+00 -1.908464401808E+00
 -1.884755048889E+00 -1.861340213778E+00 -1.838216247160E+00 -1.815379548167E+00
 -1.792826553885E+00 -1.770553743695E+00 -1.748557641096E+00 -1.726834812414E+00
 -1.705381865186E+00 -1.684195447215E+00 -1.663272249595E+00 -1.642609004011E+00
 -1.622202481553E+00 -1.602049493109E+00 -1.582146889059E+00 -1.562491558585E+00
 -1.543080429365E+00 -1.523910467090E+00 -1.504978675110E+00 -1.486282094109E+00
 -1.467817801290E+00 -1.449582910208E+00 -1.431574570421E+00 -1.413789966796E+00
 -1.396226319189E+00 -1.378880882051E+00 -1.361750943949E+00 -1.344833827142E+00
 -1.328126887173E+00 -1.311627512463E+00 -1.295333123892E+00 -1.279241174394E+00
 -1.263349148561E+00 -1.247654562248E+00 -1.232154962189E+00 -1.216847925606E+00
 -1.201731059836E+00 -1.186802001952E+00 -1.172058418395E+00 -1.157498004606E+00
 -1.143118484672E+00 -1.128917610961E+00 -1.114893163777E+00 -1.101042951010E+00
 -1.087364807792E+00 -1.073856596162E+00 -1.060516204726E+00 -1.047341548334E+00
 -1.034330567744E+00 -1.021481229310E+00 -1.008791524656E+00 -9.962594703667E-01
 -9.838831076750E-01 -9.716605021554E-01 -9.595897434224E-01 -9.476689448310E-01
 -9.358962431817E-01 -9.242697984292E-01 -9.127877933941E-01 -9.014484334793E-01
 -8.902499463886E-01 -8.791905818499E-01 -8.682686113412E-01 -8.574823278204E-01
 -8.468300454580E-01 -8.363100993738E-01 -8.259208453761E-01 -8.156606597048E-01
 -8.055279387772E-01 -7.955210989375E-01 -7.856385762085E-01 -7.758788260479E-01
 -7.662403231057E-01 -7.567215609865E-01 -7.473210520134E-01 -7.380373269955E-01
 -7.288689349979E-01 -7.198144431152E-01 -7.108724362470E-01 -7.020415168769E-01
 -6.933203048538E-01 -6.847074371758E-01 -6.762015677775E-01 -6.678013673193E-01
 -6.595055229795E-01 -6.513127382490E-01 -6.432217327284E-01 -6.352312419282E-01
 -6.273400170705E-01 -6.195468248944E-01 -6.118504474623E-01 -6.042496819702E-01
 -5.967433405592E-01 -5.893302501301E-01 -5.820092521595E-01 -5.747792025189E-01
 -5.676389712959E-01 -5.605874426175E-01 -5.536235144752E-01 -5.467460985533E-01
 -5.399541200584E-01 -5.332465175514E-01 -5.266222427813E-01 -5.200802605219E-01
 -5.136195484093E-01 -5.072390967825E-01 -5.009379085252E-01 -4.947149989101E-01
 -4.885693954450E-01 -4.825001377205E-01 -4.765062772601E-01 -4.705868773717E-01
 -4.647410130014E-01 -4.589677705885E-01 -4.532662479231E-01 -4.476355540048E-01
 -4.420748089033E-01 -4.365831436213E-01 -4.311596999579E-01 -4.258036303751E-01
 -4.205140978651E-01 -4.152902758193E-01 -4.101313478992E-01 -4.050365079086E-01
 -4.000049596679E-01 -3.950359168895E-01 -3.901286030546E-01 -3.852822512922E-01
 -3.804961042589E-01 -3.757694140210E-01 -3.711014419367E-01 -3.664914585417E-01
 -3.619387434343E-01 -3.574425851632E-01 -3.530022811163E-01 -3.486171374106E-01
 -3.442864687841E-01 -3.400095984882E-01 -3.357858581826E-01 -3.316145878299E-01
 -3.274951355935E-01 -3.234268577347E-01 -3.194091185128E-01 -3.154412900853E-01
 -3.115227524099E-01 -3.076528931477E-01 -3.038311075674E-01 -3.000567984505E-01
</data>
</radfunc>
</slps>
<slps n="2" l="p" rc="1.70382653241" flavor="Troullier-Martins">
<radfunc>
<data>
 -1.481698357617E+01 -1.534123287742E+01 -1.585618055453E+01 -1.650402410761E+01
 -1.698427304153E+01 -1.708023288976E+01 -1.681364864789E+01 -1.640124477507E+01
 -1.595627388556E+01 -1.556337574526E+01 -1.524975832823E+01 -1.501043934500E+01
 -1.483040928130E+01 -1.467488932355E+01 -1.455863626952E+01 -1.445607230863E+01
 -1.437979714882E+01 -1.431088647029E+01 -1.424840343839E+01 -1.419135863276E+01
 -1.414928476257E+01 -1.411006743386E+01 -1.407342656541E+01 -1.403907812577E+01
 -1.400672948471E+01 -1.398359842043E+01 -1.396128986202E+01 -1.393966771585E+01
 -1.391859104445E+01 -1.389791258417E+01 -1.387747643420E+01 -1.385711011308E+01
 -1.383661892913E+01 -1.381581757450E+01 -1.379447306949E+01 -1.377231622534E+01
 -1.375694029294E+01 -1.374095745629E+01 -1.372424776230E+01 -1.370667640277E+01
 -1.368809168389E+01 -1.366832289059E+01 -1.364717812536E+01 -1.362444225019E+01
 -1.359987513013E+01 -1.357321047060E+01 -1.354415566491E+01 -1.351239322419E+01
 -1.347758454640E+01 -1.343937697931E+01 -1.339741531053E+01 -1.335135891053E+01
 -1.330090565671E+01 -1.324582332301E+01 -1.318598813712E+01 -1.312142849986E+01
 -1.305236934367E+01 -1.297926946658E+01 -1.290284106783E+01 -1.282403888594E+01
 -1.274400752315E+01 -1.266398132116E+01 -1.258514189517E+01 -1.250845212324E+01
 -1.247111464336E+01 -1.243449735965E+01 -1.239859528972E+01 -1.236336905447E+01
 -1.232874538343E+01 -1.229461890732E+01 -1.226085509912E+01 -1.222729415162E+01
 -1.219375552675E+01 -1.216004288679E+01 -1.212594911780E+01 -1.209126118061E+01
 -1.205576456799E+01 -1.201924720200E+01 -1.198150266611E+01 -1.194233272530E+01
 -1.190154914089E+01 -1.185897482942E+01 -1.181444444781E+01 -1.176780450776E+01
 -1.171891313414E+01 -1.166763958468E+01 -1.161386364586E+01 -1.155747501271E+01
 -1.149837275092E+01 -1.143646492957E+01 -1.137166850243E+01 -1.130390950463E+01
 -1.123312362089E+01 -1.115925716826E+01 -1.108226852028E+01 -1.100212997849E+01
 -1.091883006853E+01 -1.083237619996E+01 -1.074279758013E+01 -1.065014821179E+01
 -1.055450973453E+01 -1.045599379599E+01 -1.035474357164E+01 -1.025093398492E+01
 -1.014477022738E+01 -1.003648440251E+01 -9.926327510574E+00 -9.814572922487E+00
 -9.701473442610E+00 -9.587282168596E+00 -9.472238594586E+00 -9.356534024701E+00
 -9.240314925172E+00 -9.123671716375E+00 -9.006636076267E+00 -8.889182297112E+00
 -8.771233595830E+00 -8.652672658402E+00 -8.533355290028E+00 -8.413125712668E+00
 -8.291831969544E+00 -8.169340047620E+00 -8.045545657284E+00 -7.920383022690E+00
 -7.793830556369E+00 -7.665913011966E+00 -7.536702646642E+00 -7.406313775849E+00
 -7.274888753680E+00 -7.142628777769E+00 -7.009771468195E+00 -6.876583924897E+00
 -6.743331131313E+00 -6.610291023992E+00 -6.477749984039E+00 -6.345990870469E+00
 -6.215292528837E+00 -6.085940176580E+00 -5.958223264279E+00 -5.832429483234E+00
 -5.708846718183E+00 -5.587755826244E+00 -5.469418933541E+00 -5.354126938056E+00
 -5.242172775150E+00 -5.133812143175E+00 -5.029290326630E+00 -4.928830744128E+00
 -4.832631731382E+00 -4.740892485722E+00 -4.653767562871E+00 -4.571379713621E+00
 -4.493822343528E+00 -4.421149311760E+00 -4.353439672363E+00 -4.290732685510E+00
 -4.232989298867E+00 -4.180127804953E+00 -4.132011829746E+00 -4.088450681302E+00
 -4.049194582465E+00 -4.013944670231E+00 -3.982306206036E+00 -3.953861103756E+00
 -3.928184694908E+00 -3.904743785886E+00 -3.882931651123E+00 -3.862088994150E+00
 -3.841511697874E+00 -3.820469164375E+00 -3.798227983161E+00 -3.774083521630E+00
 -3.747371830863E+00 -3.717583089042E+00 -3.684399906837E+00 -3.647710685564E+00
 -3.607733691977E+00 -3.565147224534E+00 -3.521196896677E+00 -3.477421519886E+00
 -3.434203389450E+00 -3.391524926084E+00 -3.349373504502E+00 -3.307750660300E+00
 -3.266645298139E+00 -3.226054291217E+00 -3.185970291895E+00 -3.146384460545E+00
 -3.107291637946E+00 -3.068685915327E+00 -3.030561016078E+00 -2.992910878968E+00
 -2.955729491160E+00 -2.919010883099E+00 -2.882749230781E+00 -2.846939155958E+00
 -2.811573837612E+00 -2.776647671354E+00 -2.742155777309E+00 -2.708092538916E+00
 -2.674452643974E+00 -2.641230801184E+00 -2.608421878870E+00 -2.576020568770E+00
 -2.544022592503E+00 -2.512451454110E+00 -2.481266973171E+00 -2.450465137697E+00
 -2.420041877563E+00 -2.389993101674E+00 -2.360314690451E+00 -2.331002442108E+00
 -2.302052270089E+00 -2.273460128840E+00 -2.245221823753E+00 -2.217333218185E+00
 -2.189790171606E+00 -2.162588563005E+00 -2.135724306401E+00 -2.109193317981E+00
 -2.082991523124E+00 -2.057114918503E+00 -2.031559526569E+00 -2.006321414732E+00
 -1.981396676437E+00 -1.956781459967E+00 -1.932471961615E+00 -1.908464401808E+00
 -1.884755048889E+00 -1.861340213778E+00 -1.838216247160E+00 -1.815379548167E+00
 -1.792826553885E+00 -1.770553743695E+00 -1.748557641096E+00 -1.726834812414E+00
 -1.705381865186E+00 -1.684195447215E+00 -1.663272249595E+00 -1.642609004011E+00
 -1.622202481553E+00 -1.602049493109E+00 -1.582146889059E+00 -1.562491558585E+00
 -1.543080429365E+00 -1.523910467090E+00 -1.504978675110E+00 -1.486282094109E+00
 -1.467817801290E+00 -1.449582910208E+00 -1.431574570421E+00 -1.413789966796E+00
 -1.396226319189E+00 -1.378880882051E+00 -1.361750943949E+00 -1.344833827142E+00