Siesta Version  : v4.1.5-1-g384057250
Architecture    : gcc
Compiler version: GNU Fortran (Ubuntu 11.3.0-1ubuntu1~22.04) 11.3.0
Compiler flags  : mpifort -O2 -fPIC -ftree-vectorize -fallow-argument-mismatch
PP flags        : -DFC_HAVE_ABORT -DMPI -DSIESTA__FLOOK -DSIESTA__METIS -DSIESTA__MUMPS -DCDF -DNCDF -DNCDF_4 -DNCDF_PARALLEL -DSIESTA__MRRR -DSIESTA__ELPA
Libraries       : libncdf.a libfdict.a  -lflookall -ldl -lnetcdff -lnetcdf -lhdf5_hl -lhdf5 -lhdf5_fortran -lz -lscalapack-openmpi -lopenblas -lmetis -lzmumps -lcmumps -ldmumps -lmumps_common -lpord -lsmumps -lesmumps -lscotch -lscotcherr -fopenmp -lelpa
PARALLEL version
NetCDF support
NetCDF-4 support
NetCDF-4 MPI-IO support
METIS ordering support
Lua support

* Running on 4 nodes in parallel
>> Start of run:  28-JUN-2023  19:26:22

                           ***********************       
                           *  WELCOME TO SIESTA  *       
                           ***********************       

reinit: Reading from standard input
reinit: Dumped input in INPUT_TMP.40606
************************** Dump of input data file ****************************
SystemLabel      GC
NumberOfAtoms    29
NumberOfSpecies  4
%block ChemicalSpeciesLabel
    1    8  O
    2    7  N
    3   14  Si
    4    1  H
%endblock ChemicalSpeciesLabel
# Single point calculation
MD.TypeOfRun                CG
MD.Steps                    0
SCF.MustConverge            F # In case it does not. There can be 2 very close atoms
AtomicCoordinatesFormat NotScaledCartesianAng
%block AtomicCoordinatesAndAtomicSpecies
1.043624880    3.939228610    0.000000000       1
-3.040641290   1.071078170    0.000000000       2
2.054601450    1.213582070    0.000000000       2
0.999014100    -1.732643800   0.000000000       2
-2.132351640   -1.812968220   0.000000000       2
3.860190550    -1.112298180   0.000000000       2
-1.236183220   1.152964460    0.000000000       3
-0.532924260   -0.939006270   0.000000000       3
0.635660470    2.374516770    0.000000000       3
2.245170240    -0.549967100   0.000000000       3
-3.449816660   -0.583665030   0.000000000       3
2.963714090    1.790992630    0.000000000       4
-4.845591350   -1.123549660   0.000000000       4
4.007020910    -2.152308560   0.000000000       4
4.772194380    -0.502318160   0.000000000       4
-2.265399090   -2.864605110   0.000000000       4
6.149281533    5.726927183    0.000000000       3
8.054165503    6.933566123    0.000000000       3
7.558411363    2.960592213    0.000000000       3
9.635881653    5.429809373    0.000000000       3
6.208904203    4.009499613    0.000000000       2
4.610146473    6.480604493    0.000000000       2
9.210706623    3.690429433    0.000000000       2
8.245510303    8.425719873    0.000000000       4
11.120249633   5.648540193    0.000000000       4
4.498801193    7.529799603    0.000000000       4
3.677588763    5.855690313    0.000000000       4
7.548184533    1.352481093    0.000000000       1
9.986132503    2.963737873    0.000000000       4
%endblock AtomicCoordinatesAndAtomicSpecies
%include ../../../Defaults.fdf
************************** End of input data file *****************************

reinit: -----------------------------------------------------------------------
reinit: System Name: 
reinit: -----------------------------------------------------------------------
reinit: System Label: GC
reinit: -----------------------------------------------------------------------

initatom: Reading input for the pseudopotentials and atomic orbitals ----------
Species number:   1 Atomic number:    8 Label: O
Species number:   2 Atomic number:    7 Label: N
Species number:   3 Atomic number:   14 Label: Si
Species number:   4 Atomic number:    1 Label: H

Ground state valence configuration:   2s02  2p04
Reading pseudopotential information in formatted form from O.psf

Pseudopotential generated from a relativistic atomic calculation

Valence configuration for pseudopotential generation:
2s( 2.00) rc: 0.45
2p( 4.00) rc: 0.92
3d( 0.00) rc: 2.24
4f( 0.00) rc: 0.25
Ground state valence configuration:   2s02  2p03
Reading pseudopotential information in formatted form from N.psf

Pseudopotential generated from a relativistic atomic calculation

Valence configuration for pseudopotential generation:
2s( 2.00) rc: 0.94
2p( 3.00) rc: 0.59
3d( 0.00) rc: 3.46
4f( 0.00) rc: 2.47
Ground state valence configuration:   3s02  3p02
Reading pseudopotential information in formatted form from Si.psf

Pseudopotential generated from a relativistic atomic calculation

Valence configuration for pseudopotential generation:
3s( 2.00) rc: 1.67
3p( 2.00) rc: 2.04
3d( 0.00) rc: 2.89
4f( 0.00) rc: 2.49
Ground state valence configuration:   1s01
Reading pseudopotential information in formatted form from H.psf

Pseudopotential generated from a relativistic atomic calculation

Valence configuration for pseudopotential generation:
1s( 1.00) rc: 0.01
2p( 0.00) rc: 0.60
3d( 0.00) rc: 1.99
4f( 0.00) rc: 2.49
For O, standard SIESTA heuristics set lmxkb to 3
 (one more than the basis l, including polarization orbitals).
Use PS.lmax or PS.KBprojectors blocks to override.
For N, standard SIESTA heuristics set lmxkb to 3
 (one more than the basis l, including polarization orbitals).
Use PS.lmax or PS.KBprojectors blocks to override.
For Si, standard SIESTA heuristics set lmxkb to 3
 (one more than the basis l, including polarization orbitals).
Use PS.lmax or PS.KBprojectors blocks to override.
For H, standard SIESTA heuristics set lmxkb to 2
 (one more than the basis l, including polarization orbitals).
Use PS.lmax or PS.KBprojectors blocks to override.

<basis_specs>
===============================================================================
O                    Z=   8    Mass=  16.000        Charge= 0.17977+309
Lmxo=1 Lmxkb= 3    BasisType=split      Semic=F
L=0  Nsemic=0  Cnfigmx=2
          i=1  nzeta=2  polorb=0  (2s)
            splnorm:   0.28000    
               vcte:    0.0000    
               rinn:    0.0000    
               qcoe:    0.0000    
               qyuk:    0.0000    
               qwid:   0.10000E-01
                rcs:    0.0000      0.0000    
            lambdas:    1.0000      1.0000    
L=1  Nsemic=0  Cnfigmx=2
          i=1  nzeta=2  polorb=1  (2p)
            splnorm:   0.28000    
               vcte:    0.0000    
               rinn:    0.0000    
               qcoe:    0.0000    
               qyuk:    0.0000    
               qwid:   0.10000E-01
                rcs:    0.0000      0.0000    
            lambdas:    1.0000      1.0000    
-------------------------------------------------------------------------------
L=0  Nkbl=1  erefs: 0.17977+309
L=1  Nkbl=1  erefs: 0.17977+309
L=2  Nkbl=1  erefs: 0.17977+309
L=3  Nkbl=1  erefs: 0.17977+309
===============================================================================
</basis_specs>

atom: Called for O                     (Z =   8)

read_vps: Pseudopotential generation method:
read_vps: ATM4.2.7  Troullier-Martins                       
Valence charge for ps generation:    6.00000

xc_check: Exchange-correlation functional:
xc_check: GGA Perdew, Burke & Ernzerhof 1996
V l=0 = -2*Zval/r beyond r=  1.1000
V l=1 = -2*Zval/r beyond r=  1.1000
V l=2 = -2*Zval/r beyond r=  2.2154
V l=3 = -2*Zval/r beyond r=  1.1000
All V_l potentials equal beyond r=  2.2154
This should be close to max(r_c) in ps generation
All pots = -2*Zval/r beyond r=  2.2154

VLOCAL1: 99.0% of the norm of Vloc inside      8.845 Ry
VLOCAL1: 99.9% of the norm of Vloc inside     20.157 Ry
atom: Maximum radius for 4*pi*r*r*local-pseudopot. charge    2.67231
atom: Maximum radius for r*vlocal+2*Zval:    2.32897
GHOST: No ghost state for L =  0
GHOST: No ghost state for L =  1
GHOST: No ghost state for L =  2
GHOST: No ghost state for L =  3

KBgen: Kleinman-Bylander projectors: 
   l= 0   rc=  2.243238   el= -1.759686   Ekb=**********   kbcos= -0.171774
   l= 1   rc=  2.328968   el= -0.663873   Ekb=-14.506792   kbcos= -0.519897
   l= 2   rc=  2.573941   el=  0.002031   Ekb= -1.137373   kbcos= -0.019581
   l= 3   rc=  2.606321   el=  0.003153   Ekb= -1.013546   kbcos= -0.003122

KBgen: Total number of Kleinman-Bylander projectors:   16
atom: -------------------------------------------------------------------------

atom: SANKEY-TYPE ORBITALS:
atom: Selected multiple-zeta basis: split     

SPLIT: Orbitals with angular momentum L= 0

SPLIT: Basis orbitals for state 2s

SPLIT: PAO cut-off radius determined from an
SPLIT: energy shift=  0.002000 Ry

   izeta = 1
                 lambda =    1.000000
                     rc =    4.243912
                 energy =   -1.758270
                kinetic =    3.286084
    potential(screened) =   -5.044353
       potential(ionic) =  -12.921184

   izeta = 2
                 rmatch =    2.187845
              splitnorm =    0.280000
                 energy =   -0.885018
                kinetic =    8.134434
    potential(screened) =   -9.019452
       potential(ionic) =  -17.710645

SPLIT: Orbitals with angular momentum L= 1

SPLIT: Basis orbitals for state 2p

SPLIT: PAO cut-off radius determined from an
SPLIT: energy shift=  0.002000 Ry

   izeta = 1
                 lambda =    1.000000
                     rc =    5.314825
                 energy =   -0.661986
                kinetic =    4.917472
    potential(screened) =   -5.579458
       potential(ionic) =  -13.236259

   izeta = 2
                 rmatch =    2.160663
              splitnorm =    0.280000
                 energy =   -0.068760
                kinetic =    9.183374
    potential(screened) =   -9.252135
       potential(ionic) =  -18.274251

POLgen: Perturbative polarization orbital with L=  2

POLgen: Polarization orbital for state 2p

   izeta = 1
                     rc =    5.314825
                 energy =    1.970580
                kinetic =    3.886128
    potential(screened) =   -1.915547
       potential(ionic) =   -7.749584
atom: Total number of Sankey-type orbitals: 13

atm_pop: Valence configuration (for local Pseudopot. screening):
 2s( 2.00)                                                            
 2p( 4.00)                                                            
Vna: chval, zval:    6.00000   6.00000

Vna:  Cut-off radius for the neutral-atom potential:   5.314825

atom: _________________________________________________________________________

<basis_specs>
===============================================================================
N                    Z=   7    Mass=  14.010        Charge= 0.17977+309
Lmxo=1 Lmxkb= 3    BasisType=split      Semic=F
L=0  Nsemic=0  Cnfigmx=2
          i=1  nzeta=2  polorb=0  (2s)
            splnorm:   0.28000    
               vcte:    0.0000    
               rinn:    0.0000    
               qcoe:    0.0000    
               qyuk:    0.0000    
               qwid:   0.10000E-01
                rcs:    0.0000      0.0000    
            lambdas:    1.0000      1.0000    
L=1  Nsemic=0  Cnfigmx=2
          i=1  nzeta=2  polorb=1  (2p)
            splnorm:   0.28000    
               vcte:    0.0000    
               rinn:    0.0000    
               qcoe:    0.0000    
               qyuk:    0.0000    
               qwid:   0.10000E-01
                rcs:    0.0000      0.0000    
            lambdas:    1.0000      1.0000    
-------------------------------------------------------------------------------
L=0  Nkbl=1  erefs: 0.17977+309
L=1  Nkbl=1  erefs: 0.17977+309
L=2  Nkbl=1  erefs: 0.17977+309
L=3  Nkbl=1  erefs: 0.17977+309
===============================================================================
</basis_specs>

atom: Called for N                     (Z =   7)

read_vps: Pseudopotential generation method:
read_vps: ATM4.2.7  Troullier-Martins                       
Valence charge for ps generation:    5.00000

xc_check: Exchange-correlation functional:
xc_check: GGA Perdew, Burke & Ernzerhof 1996
V l=0 = -2*Zval/r beyond r=  1.2889
V l=1 = -2*Zval/r beyond r=  1.2889
V l=2 = -2*Zval/r beyond r=  3.4178
V l=3 = -2*Zval/r beyond r=  2.4084
All V_l potentials equal beyond r=  3.3753
This should be close to max(r_c) in ps generation
All pots = -2*Zval/r beyond r=  3.4178

VLOCAL1: 99.0% of the norm of Vloc inside      3.810 Ry
VLOCAL1: 99.9% of the norm of Vloc inside      8.683 Ry
atom: Maximum radius for 4*pi*r*r*local-pseudopot. charge    4.02088
atom: Maximum radius for r*vlocal+2*Zval:    3.54838
GHOST: No ghost state for L =  0
GHOST: No ghost state for L =  1
GHOST: No ghost state for L =  2
GHOST: No ghost state for L =  3

KBgen: Kleinman-Bylander projectors: 
   l= 0   rc=  3.417763   el= -1.365098   Ekb= -4.433130   kbcos= -0.707855
   l= 1   rc=  3.375302   el= -0.521201   Ekb=-13.264039   kbcos= -0.535594
   l= 2   rc=  3.872880   el=  0.001991   Ekb= -0.641094   kbcos= -0.062456
   l= 3   rc=  3.970931   el=  0.003093   Ekb= -0.474517   kbcos= -0.018236

KBgen: Total number of Kleinman-Bylander projectors:   16
atom: -------------------------------------------------------------------------

atom: SANKEY-TYPE ORBITALS:
atom: Selected multiple-zeta basis: split     

SPLIT: Orbitals with angular momentum L= 0

SPLIT: Basis orbitals for state 2s

SPLIT: PAO cut-off radius determined from an
SPLIT: energy shift=  0.002000 Ry

   izeta = 1
                 lambda =    1.000000
                     rc =    4.730425
                 energy =   -1.363399
                kinetic =    1.245246
    potential(screened) =   -2.608645
       potential(ionic) =   -8.121105

   izeta = 2
                 rmatch =    2.531849
              splitnorm =    0.280000
                 energy =   -0.959908
                kinetic =    2.409435
    potential(screened) =   -3.369343
       potential(ionic) =   -9.427975

SPLIT: Orbitals with angular momentum L= 1

SPLIT: Basis orbitals for state 2p

SPLIT: PAO cut-off radius determined from an
SPLIT: energy shift=  0.002000 Ry

   izeta = 1
                 lambda =    1.000000
                     rc =    5.924108
                 energy =   -0.519262
                kinetic =    3.672940
    potential(screened) =   -4.192202
       potential(ionic) =   -9.518354

   izeta = 2
                 rmatch =    2.531849
              splitnorm =    0.280000
                 energy =   -0.104258
                kinetic =    6.807538
    potential(screened) =   -6.911796
       potential(ionic) =  -13.149920

POLgen: Perturbative polarization orbital with L=  2

POLgen: Polarization orbital for state 2p

   izeta = 1
                     rc =    5.924108
                 energy =    1.427508
                kinetic =    2.872379
    potential(screened) =   -1.444871
       potential(ionic) =   -5.563644
atom: Total number of Sankey-type orbitals: 13

atm_pop: Valence configuration (for local Pseudopot. screening):
 2s( 2.00)                                                            
 2p( 3.00)                                                            
Vna: chval, zval:    5.00000   5.00000

Vna:  Cut-off radius for the neutral-atom potential:   5.924108

atom: _________________________________________________________________________

<basis_specs>
===============================================================================
Si                   Z=  14    Mass=  28.090        Charge= 0.17977+309
Lmxo=1 Lmxkb= 3    BasisType=split      Semic=F
L=0  Nsemic=0  Cnfigmx=3
          i=1  nzeta=2  polorb=0  (3s)
            splnorm:   0.28000    
               vcte:    0.0000    
               rinn:    0.0000    
               qcoe:    0.0000    
               qyuk:    0.0000    
               qwid:   0.10000E-01
                rcs:    0.0000      0.0000    
            lambdas:    1.0000      1.0000    
L=1  Nsemic=0  Cnfigmx=3
          i=1  nzeta=2  polorb=1  (3p)
            splnorm:   0.28000    
               vcte:    0.0000    
               rinn:    0.0000    
               qcoe:    0.0000    
               qyuk:    0.0000    
               qwid:   0.10000E-01
                rcs:    0.0000      0.0000    
            lambdas:    1.0000      1.0000    
-------------------------------------------------------------------------------
L=0  Nkbl=1  erefs: 0.17977+309
L=1  Nkbl=1  erefs: 0.17977+309
L=2  Nkbl=1  erefs: 0.17977+309
L=3  Nkbl=1  erefs: 0.17977+309
===============================================================================
</basis_specs>

atom: Called for Si                    (Z =  14)

read_vps: Pseudopotential generation method:
read_vps: ATM4.2.7  Troullier-Martins                       
Valence charge for ps generation:    4.00000

xc_check: Exchange-correlation functional:
xc_check: GGA Perdew, Burke & Ernzerhof 1996
V l=0 = -2*Zval/r beyond r=  2.7826
V l=1 = -2*Zval/r beyond r=  2.7826
V l=2 = -2*Zval/r beyond r=  2.9253
V l=3 = -2*Zval/r beyond r=  2.7826
All V_l potentials equal beyond r=  2.8530
This should be close to max(r_c) in ps generation
All pots = -2*Zval/r beyond r=  2.9253

VLOCAL1: 99.0% of the norm of Vloc inside      5.333 Ry
VLOCAL1: 99.9% of the norm of Vloc inside     12.154 Ry
atom: Maximum radius for 4*pi*r*r*local-pseudopot. charge    3.39869
atom: Maximum radius for r*vlocal+2*Zval:    2.96205
GHOST: No ghost state for L =  0
GHOST: No ghost state for L =  1
GHOST: No ghost state for L =  2
GHOST: No ghost state for L =  3

KBgen: Kleinman-Bylander projectors: 
   l= 0   rc=  3.075247   el= -0.794092   Ekb=  5.879390   kbcos=  0.167461
   l= 1   rc=  3.153101   el= -0.300068   Ekb=  2.642817   kbcos=  0.058301
   l= 2   rc=  3.273594   el=  0.001958   Ekb= -1.185135   kbcos= -0.104411
   l= 3   rc=  3.232927   el=  0.003046   Ekb= -0.497174   kbcos= -0.015889

KBgen: Total number of Kleinman-Bylander projectors:   16
atom: -------------------------------------------------------------------------

atom: SANKEY-TYPE ORBITALS:
atom: Selected multiple-zeta basis: split     

SPLIT: Orbitals with angular momentum L= 0

SPLIT: Basis orbitals for state 3s

SPLIT: PAO cut-off radius determined from an
SPLIT: energy shift=  0.002000 Ry

   izeta = 1
                 lambda =    1.000000
                     rc =    6.429618
                 energy =   -0.792283
                kinetic =    0.525293
    potential(screened) =   -1.317576
       potential(ionic) =   -3.744923

   izeta = 2
                 rmatch =    3.998416
              splitnorm =    0.280000
                 energy =   -0.583081
                kinetic =    1.069570
    potential(screened) =   -1.652651
       potential(ionic) =   -4.235185

SPLIT: Orbitals with angular momentum L= 1

SPLIT: Basis orbitals for state 3p

SPLIT: PAO cut-off radius determined from an
SPLIT: energy shift=  0.002000 Ry

   izeta = 1
                 lambda =    1.000000
                     rc =    8.464845
                 energy =   -0.298236
                kinetic =    0.785360
    potential(screened) =   -1.083596
       potential(ionic) =   -3.273779

   izeta = 2
                 rmatch =    4.587816
              splitnorm =    0.280000
                 energy =   -0.131871
                kinetic =    1.403687
    potential(screened) =   -1.535557
       potential(ionic) =   -4.015310

POLgen: Perturbative polarization orbital with L=  2

POLgen: Polarization orbital for state 3p

   izeta = 1
                     rc =    8.464845
                 energy =    0.321949
                kinetic =    1.055677
    potential(screened) =   -0.733728
       potential(ionic) =   -2.672950
atom: Total number of Sankey-type orbitals: 13

atm_pop: Valence configuration (for local Pseudopot. screening):
 3s( 2.00)                                                            
 3p( 2.00)                                                            
Vna: chval, zval:    4.00000   4.00000

Vna:  Cut-off radius for the neutral-atom potential:   8.464845

atom: _________________________________________________________________________

<basis_specs>
===============================================================================
H                    Z=   1    Mass=  1.0100        Charge= 0.17977+309
Lmxo=0 Lmxkb= 2    BasisType=split      Semic=F
L=0  Nsemic=0  Cnfigmx=1
          i=1  nzeta=2  polorb=1  (1s)
            splnorm:   0.62000    
               vcte:    0.0000    
               rinn:    0.0000    
               qcoe:    0.0000    
               qyuk:    0.0000    
               qwid:   0.10000E-01
                rcs:    0.0000      0.0000    
            lambdas:    1.0000      1.0000    
-------------------------------------------------------------------------------
L=0  Nkbl=1  erefs: 0.17977+309
L=1  Nkbl=1  erefs: 0.17977+309
L=2  Nkbl=1  erefs: 0.17977+309
===============================================================================
</basis_specs>

atom: Called for H                     (Z =   1)

read_vps: Pseudopotential generation method:
read_vps: ATM4.2.7  Troullier-Martins                       
Valence charge for ps generation:    1.00000

xc_check: Exchange-correlation functional:
xc_check: GGA Perdew, Burke & Ernzerhof 1996
V l=0 = -2*Zval/r beyond r=  0.0098
V l=1 = -2*Zval/r beyond r=  0.5817
V l=2 = -2*Zval/r beyond r=  1.9372
All V_l potentials equal beyond r=  1.9372
This should be close to max(r_c) in ps generation
All pots = -2*Zval/r beyond r=  1.9372

VLOCAL1: 99.0% of the norm of Vloc inside     11.567 Ry
VLOCAL1: 99.9% of the norm of Vloc inside     26.362 Ry
atom: Maximum radius for 4*pi*r*r*local-pseudopot. charge    2.25106
atom: Maximum radius for r*vlocal+2*Zval:    1.91306
GHOST: No ghost state for L =  0
GHOST: No ghost state for L =  1
GHOST: No ghost state for L =  2

KBgen: Kleinman-Bylander projectors: 
   l= 0   rc=  2.036604   el= -0.477180   Ekb= -6.081590   kbcos= -0.277285
   l= 1   rc=  2.195416   el=  0.001076   Ekb= -0.926943   kbcos= -0.034643
   l= 2   rc=  2.251056   el=  0.002010   Ekb= -0.130941   kbcos= -0.009788

KBgen: Total number of Kleinman-Bylander projectors:    9
atom: -------------------------------------------------------------------------

atom: SANKEY-TYPE ORBITALS:
atom: Selected multiple-zeta basis: split     

SPLIT: Orbitals with angular momentum L= 0

SPLIT: Basis orbitals for state 1s

SPLIT: PAO cut-off radius determined from an
SPLIT: energy shift=  0.002000 Ry

   izeta = 1
                 lambda =    1.000000
                     rc =    6.518340
                 energy =   -0.475305
                kinetic =    0.912139
    potential(screened) =   -1.387444
       potential(ionic) =   -1.907295

   izeta = 2
                 rmatch =    2.141150
              splitnorm =    0.620000
                 energy =    0.566467
                kinetic =    3.772856
    potential(screened) =   -3.206389
       potential(ionic) =   -3.759093

POLgen: Perturbative polarization orbital with L=  1

POLgen: Polarization orbital for state 1s

   izeta = 1
                     rc =    6.518340
                 energy =    0.533861
                kinetic =    1.121086
    potential(screened) =   -0.587225
       potential(ionic) =   -1.053027
atom: Total number of Sankey-type orbitals:  5

atm_pop: Valence configuration (for local Pseudopot. screening):
 1s( 1.00)                                                            
Vna: chval, zval:    1.00000   1.00000

Vna:  Cut-off radius for the neutral-atom potential:   6.518340

atom: _________________________________________________________________________

prinput: Basis input ----------------------------------------------------------

PAO.BasisType split     

%block ChemicalSpeciesLabel
    1    8 O                       # Species index, atomic number, species label
    2    7 N                       # Species index, atomic number, species label
    3   14 Si                      # Species index, atomic number, species label
    4    1 H                       # Species index, atomic number, species label
%endblock ChemicalSpeciesLabel

%block PAO.Basis                 # Define Basis set
O                     2                    # Species label, number of l-shells
 n=2   0   2                         # n, l, Nzeta 
   4.244      2.188   
   1.000      1.000   
 n=2   1   2 P   1                   # n, l, Nzeta, Polarization, NzetaPol
   5.315      2.161   
   1.000      1.000   
N                     2                    # Species label, number of l-shells
 n=2   0   2                         # n, l, Nzeta 
   4.730      2.532   
   1.000      1.000   
 n=2   1   2 P   1                   # n, l, Nzeta, Polarization, NzetaPol
   5.924      2.532   
   1.000      1.000   
Si                    2                    # Species label, number of l-shells
 n=3   0   2                         # n, l, Nzeta 
   6.430      3.998   
   1.000      1.000   
 n=3   1   2 P   1                   # n, l, Nzeta, Polarization, NzetaPol
   8.465      4.588   
   1.000      1.000   
H                     1                    # Species label, number of l-shells
 n=1   0   2 P   1                   # n, l, Nzeta, Polarization, NzetaPol
   6.518      2.141   
   1.000      1.000   
%endblock PAO.Basis

prinput: ----------------------------------------------------------------------

Dumping basis to NetCDF file O.ion.nc
Dumping basis to NetCDF file N.ion.nc
Dumping basis to NetCDF file Si.ion.nc
Dumping basis to NetCDF file H.ion.nc
coor:   Atomic-coordinates input format  =     Cartesian coordinates
coor:                                          (in Angstroms)

siesta: Atomic coordinates (Bohr) and species
siesta:      1.97217   7.44407   0.00000  1        1
siesta:     -5.74598   2.02405   0.00000  2        2
siesta:      3.88264   2.29334   0.00000  2        3
siesta:      1.88786  -3.27422   0.00000  2        4
siesta:     -4.02956  -3.42601   0.00000  2        5
siesta:      7.29471  -2.10194   0.00000  2        6
siesta:     -2.33605   2.17879   0.00000  3        7
siesta:     -1.00708  -1.77447   0.00000  3        8
siesta:      1.20122   4.48719   0.00000  3        9
siesta:      4.24276  -1.03929   0.00000  3       10
siesta:     -6.51921  -1.10297   0.00000  3       11
siesta:      5.60061   3.38449   0.00000  4       12
siesta:     -9.15684  -2.12320   0.00000  4       13
siesta:      7.57218  -4.06728   0.00000  4       14
siesta:      9.01814  -0.94924   0.00000  4       15
siesta:     -4.28099  -5.41332   0.00000  4       16
siesta:     11.62046  10.82233   0.00000  3       17
siesta:     15.22017  13.10255   0.00000  3       18
siesta:     14.28333   5.59471   0.00000  3       19
siesta:     18.20918  10.26086   0.00000  3       20
siesta:     11.73313   7.57686   0.00000  2       21
siesta:      8.71192  12.24657   0.00000  2       22
siesta:     17.40572   6.97390   0.00000  2       23
siesta:     15.58176  15.92231   0.00000  4       24
siesta:     21.01423  10.67420   0.00000  4       25
siesta:      8.50151  14.22926   0.00000  4       26
siesta:      6.94964  11.06566   0.00000  4       27
siesta:     14.26401   2.55582   0.00000  1       28
siesta:     18.87106   5.60066   0.00000  4       29

siesta: Automatic unit cell vectors (Ang):
siesta:   25.151008    0.000000    0.000000
siesta:    0.000000   20.007940    0.000000
siesta:    0.000000    0.000000    9.854683

siesta: System type = molecule  

initatomlists: Number of atoms, orbitals, and projectors:     29   297   394

siesta: ******************** Simulation parameters ****************************
siesta:
siesta: The following are some of the parameters of the simulation.
siesta: A complete list of the parameters used, including default values,
siesta: can be found in file out.fdf
siesta:
redata: Spin configuration                          = spin-orbit
redata: Number of spin components                   = 8
redata: Time-Reversal Symmetry                      = F
redata: Spin spiral                                 = F
############################################################
This spin-orbit implementation uses a local approximation.
From 4.2 and onwards the full non-local approximation is implemented
You are strongly advised to use >=4.2 versions!
############################################################
redata: Long output                                 =   F
redata: Number of Atomic Species                    =        4
redata: Charge density info will appear in .RHO file
redata: Write Mulliken Pop.                         = Atomic and Orbital charges
redata: Matel table size (NRTAB)                    =     1024
redata: Mesh Cutoff                                 =   340.0000 Ry
redata: Net charge of the system                    =     0.0000 |e|
redata: Min. number of SCF Iter                     =        1
redata: Max. number of SCF Iter                     =      200
redata: SCF mix quantity                            = Hamiltonian
redata: Mix DM or H after convergence               =   F
redata: Recompute H after scf cycle                 =   F
redata: Mix DM in first SCF step                    =   T
redata: Write Pulay info on disk                    =   F
redata: New DM Occupancy tolerance                  = 0.000000000001
redata: No kicks to SCF
redata: DM Mixing Weight for Kicks                  =     0.5000
redata: Require Harris convergence for SCF          =   F
redata: Harris energy tolerance for SCF             =     0.000100 eV
redata: Require DM convergence for SCF              =   T
redata: DM tolerance for SCF                        =     0.000008
redata: Require EDM convergence for SCF             =   F
redata: EDM tolerance for SCF                       =     0.001000 eV
redata: Require H convergence for SCF               =   T
redata: Hamiltonian tolerance for SCF               =     0.000001 eV
redata: Require (free) Energy convergence for SCF   =   F
redata: (free) Energy tolerance for SCF             =     0.000100 eV
redata: Using Saved Data (generic)                  =   F
redata: Use continuation files for DM               =   F
redata: Neglect nonoverlap interactions             =   F
redata: Method of Calculation                       = Diagonalization
redata: Electronic Temperature                      =   299.9978 K
redata: Fix the spin of the system                  =   F
redata: Dynamics option                             = Single-point calculation
mix.SCF: Pulay mixing                            = Pulay
mix.SCF:    Variant                              = stable
mix.SCF:    History steps                        = 6
mix.SCF:    Linear mixing weight                 =     0.250000
mix.SCF:    Mixing weight                        =     0.250000
mix.SCF:    SVD condition                        = 0.1000E-07
mix.SCF:    Restart steps                        = 24
mix.SCF:    Restart save steps                   = 3
mix.SCF: Spin-component mixing                   all
redata: Save all siesta data in one NC              =   F
redata: ***********************************************************************

%block SCF.Mixers
  Pulay
%endblock SCF.Mixers

%block SCF.Mixer.Pulay
  # Mixing method
  method pulay
  variant stable

  # Mixing options
  weight 0.2500
  weight.linear 0.2500
  history 6
  restart 24
  restart.save 3
%endblock SCF.Mixer.Pulay

DM_history_depth set to one: no extrapolation allowed by default for geometry relaxation
Size of DM history Fstack: 1
Total number of electrons:    98.000000
Total ionic charge:    98.000000

* ProcessorY, Blocksize:    2  24


* Orbital distribution balance (max,min):    81    72


Time-reversal symmetry not used.

siesta: k-grid: Number of k-points =     1
siesta: k-grid: Cutoff (effective) =     4.927 Ang
siesta: k-grid: Supercell and displacements
siesta: k-grid:    1   0   0      0.000
siesta: k-grid:    0   1   0      0.000
siesta: k-grid:    0   0   1      0.000

diag: Algorithm                                     = ELPA-1stage
diag: Parallel over k                               =   F
diag: Use parallel 2D distribution                  =   T
diag: Parallel block-size                           = 24
diag: Parallel distribution                         =     2 x     2
diag: Used triangular part                          = Lower
diag: Absolute tolerance                            =  0.100E-15
diag: Orthogonalization factor                      =  0.100E-05
diag: Memory factor                                 =  1.0000


ts: **************************************************************
ts: Save H and S matrices                           =    F
ts: Save DM and EDM matrices                        =    F
ts: Only save the overlap matrix S                  =    F
ts: **************************************************************

************************ Begin: TS CHECKS AND WARNINGS ************************
************************ End: TS CHECKS AND WARNINGS **************************


                     ====================================
                        Single-point calculation
                     ====================================

outcoor: Atomic coordinates (Ang):                          
    1.04362488    3.93922861    0.00000000   1       1  O
   -3.04064129    1.07107817    0.00000000   2       2  N
    2.05460145    1.21358207    0.00000000   2       3  N
    0.99901410   -1.73264380    0.00000000   2       4  N
   -2.13235164   -1.81296822    0.00000000   2       5  N
    3.86019055   -1.11229818    0.00000000   2       6  N
   -1.23618322    1.15296446    0.00000000   3       7  Si
   -0.53292426   -0.93900627    0.00000000   3       8  Si
    0.63566047    2.37451677    0.00000000   3       9  Si
    2.24517024   -0.54996710    0.00000000   3      10  Si
   -3.44981666   -0.58366503    0.00000000   3      11  Si
    2.96371409    1.79099263    0.00000000   4      12  H
   -4.84559135   -1.12354966    0.00000000   4      13  H
    4.00702091   -2.15230856    0.00000000   4      14  H
    4.77219438   -0.50231816    0.00000000   4      15  H
   -2.26539909   -2.86460511    0.00000000   4      16  H
    6.14928153    5.72692718    0.00000000   3      17  Si
    8.05416550    6.93356612    0.00000000   3      18  Si
    7.55841136    2.96059221    0.00000000   3      19  Si
    9.63588165    5.42980937    0.00000000   3      20  Si
    6.20890420    4.00949961    0.00000000   2      21  N
    4.61014647    6.48060449    0.00000000   2      22  N
    9.21070662    3.69042943    0.00000000   2      23  N
    8.24551030    8.42571987    0.00000000   4      24  H
   11.12024963    5.64854019    0.00000000   4      25  H
    4.49880119    7.52979960    0.00000000   4      26  H
    3.67758876    5.85569031    0.00000000   4      27  H
    7.54818453    1.35248109    0.00000000   1      28  O
    9.98613250    2.96373787    0.00000000   4      29  H

outcell: Unit cell vectors (Ang):
       25.151008    0.000000    0.000000
        0.000000   20.007940    0.000000
        0.000000    0.000000    9.854683

outcell: Cell vector modules (Ang)   :   25.151008   20.007940    9.854683
outcell: Cell angles (23,13,12) (deg):     90.0000     90.0000     90.0000
outcell: Cell volume (Ang**3)        :   4959.0724
<dSpData1D:S at geom step 0
  <sparsity:sparsity for geom step 0
    nrows_g=297 nrows=81 sparsity=.1953 nnzs=17227, refcount: 8>
  <dData1D:(new from dSpData1D) n=17227, refcount: 1>
refcount: 1>
new_DM -- step:     1
Initializing Density Matrix...
DM filled with atomic data:
<dSpData2D:DM initialized from atoms
  <sparsity:sparsity for geom step 0
    nrows_g=297 nrows=81 sparsity=.1953 nnzs=17227, refcount: 9>
  <dData2D:DM n=17227 m=8, refcount: 1>
refcount: 1>
     spin moment: S , {S} =   56.00000   0.00000   0.00000  56.00000
No. of atoms with KB's overlaping orbs in proc 0. Max # of overlaps:      29     170

Initializing spin-orbit part of the Hamiltonian
  Adding spin-orbit effects for O 
  Adding spin-orbit effects for N 
  Adding spin-orbit effects for Si
  Adding spin-orbit effects for H 


New grid distribution:   1
           1       1:  144    1:   60    1:   30
           2       1:  144    1:   60   31:   60
           3       1:  144   61:  120    1:   30
           4       1:  144   61:  120   31:   60

InitMesh: MESH =   288 x   240 x   120 =     8294400
InitMesh: (bp) =   144 x   120 x    60 =     1036800
InitMesh: Mesh cutoff (required, used) =   340.000   362.390 Ry
ExtMesh (bp) on 0 =   248 x   168 x   142 =     5916288
New grid distribution:   2
           1      43:  144    1:   30    1:   60
           2       1:   42    1:   30    1:   60
           3      43:  144   31:  120    1:   60
           4       1:   42   31:  120    1:   60
New grid distribution:   3
           1      49:  144    1:   36    1:   60
           2       1:   48    1:   40    1:   60
           3      49:  144   37:  120    1:   60
           4       1:   48   41:  120    1:   60
Setting up quadratic distribution...
ExtMesh (bp) on 0 =   206 x   138 x   172 =     4889616
PhiOnMesh: Number of (b)points on node 0 =               183600
PhiOnMesh: nlist on node 0 =              2626440

stepf: Fermi-Dirac step function

siesta: Program's energy decomposition (eV):
siesta: Ebs     =      -616.546414
siesta: Eions   =      3585.165840
siesta: Ena     =       382.013973
siesta: Ekin    =      3367.733664
siesta: Enl     =     -3296.513457
siesta: Eso     =        -0.003414
siesta: Edftu   =         0.000000
siesta: DEna    =       153.420510
siesta: DUscf   =        80.770870
siesta: DUext   =         0.000000
siesta: Exc     =     -1203.698375
siesta: eta*DQ  =         0.000000
siesta: Emadel  =         0.000000
siesta: Emeta   =         0.000000
siesta: Emolmec =         0.000000
siesta: Ekinion =         0.000000
siesta: Eharris =     -4023.552999
siesta: Etot    =     -4101.442068
siesta: FreeEng =     -4101.443477

        iscf     Eharris(eV)        E_KS(eV)     FreeEng(eV)     dDmax    Ef(eV) dHmax(eV)
   scf:    1    -4023.552999    -4101.442068    -4101.443477  0.964318 -4.904804 21.649958
     spin moment: S , {S} =    2.00724  -0.00000  -0.00000   2.00724
timer: Routine,Calls,Time,% = IterSCF        1      13.552  18.10
   scf:    2    -4148.437212    -4136.823589    -4136.825110  0.455394 -4.212951 11.533034
     spin moment: S , {S} =    1.99110   0.00000   0.00000   1.99110
   scf:    3    -4110.269817    -4134.512477    -4134.526059  0.424935 -4.301252 11.505249
     spin moment: S , {S} =    2.00181   0.00000   0.00000   2.00181
   scf:    4    -4149.962890    -4145.375825    -4145.375825  0.308874 -3.898960  6.368643
     spin moment: S , {S} =    0.00009   0.00000   0.00000   0.00009
   scf:    5    -4146.574276    -4146.068749    -4146.068749  0.035010 -3.697765  4.342580
     spin moment: S , {S} =    0.00006  -0.00000   0.00000   0.00006
   scf:    6    -4146.816552    -4146.449898    -4146.449898  0.024587 -3.601785  2.127468
     spin moment: S , {S} =    0.00003   0.00000  -0.00000   0.00003
   scf:    7    -4146.789611    -4146.616507    -4146.616507  0.021254 -3.607480  0.892122
     spin moment: S , {S} =    0.00001   0.00000   0.00000   0.00001
   scf:    8    -4146.737948    -4146.675113    -4146.675113  0.012840 -3.833681  0.490091
     spin moment: S , {S} =    0.00000   0.00000   0.00000   0.00000
   scf:    9    -4146.712994    -4146.693394    -4146.693394  0.006533 -3.799958  0.358594
     spin moment: S , {S} =    0.00000   0.00000   0.00000   0.00000
   scf:   10    -4146.744319    -4146.713403    -4146.713403  0.020402 -3.792999  0.202260
     spin moment: S , {S} =    0.00000   0.00000   0.00000  -0.00000
   scf:   11    -4146.716506    -4146.714923    -4146.714923  0.005277 -3.783812  0.058137
     spin moment: S , {S} =    0.00000   0.00000   0.00000  -0.00000
   scf:   12    -4146.715792    -4146.715369    -4146.715369  0.001171 -3.778877  0.023275
     spin moment: S , {S} =    0.00000   0.00000   0.00000   0.00000
   scf:   13    -4146.715759    -4146.715559    -4146.715559  0.001368 -3.776840  0.016663
     spin moment: S , {S} =    0.00000   0.00000   0.00000   0.00000
   scf:   14    -4146.715796    -4146.715671    -4146.715671  0.001295 -3.776327  0.013246
     spin moment: S , {S} =    0.00000   0.00000   0.00000   0.00000
   scf:   15    -4146.715808    -4146.715733    -4146.715733  0.001213 -3.776054  0.009645
     spin moment: S , {S} =    0.00000   0.00000   0.00000   0.00000
   scf:   16    -4146.715828    -4146.715774    -4146.715774  0.001266 -3.776233  0.005964
     spin moment: S , {S} =    0.00000   0.00000   0.00000   0.00000
   scf:   17    -4146.715802    -4146.715786    -4146.715786  0.000694 -3.776192  0.004033
     spin moment: S , {S} =    0.00000   0.00000   0.00000   0.00000
   scf:   18    -4146.715796    -4146.715790    -4146.715790  0.000440 -3.776233  0.002132
     spin moment: S , {S} =    0.00000   0.00000   0.00000   0.00000
   scf:   19    -4146.715794    -4146.715792    -4146.715792  0.000277 -3.776264  0.001138
     spin moment: S , {S} =    0.00000   0.00000   0.00000   0.00000
   scf:   20    -4146.715793    -4146.715792    -4146.715792  0.000126 -3.776271  0.000690
     spin moment: S , {S} =    0.00000   0.00000   0.00000   0.00000
   scf:   21    -4146.715793    -4146.715793    -4146.715793  0.000115 -3.776274  0.000267
     spin moment: S , {S} =    0.00000   0.00000   0.00000   0.00000
   scf:   22    -4146.715793    -4146.715793    -4146.715793  0.000036 -3.776257  0.000103
     spin moment: S , {S} =    0.00000   0.00000   0.00000   0.00000
   scf:   23    -4146.715793    -4146.715793    -4146.715793  0.000008 -3.776257  0.000070
     spin moment: S , {S} =    0.00000   0.00000   0.00000   0.00000
   scf:   24    -4146.715793    -4146.715793    -4146.715793  0.000003 -3.776256  0.000050
     spin moment: S , {S} =    0.00000   0.00000   0.00000  -0.00000
mix: Pulay -- resetting history
   scf:   25    -4146.715793    -4146.715793    -4146.715793  0.000004 -3.776257  0.000033
     spin moment: S , {S} =    0.00000   0.00000   0.00000  -0.00000
   scf:   26    -4146.715793    -4146.715793    -4146.715793  0.000003 -3.776257  0.000019
     spin moment: S , {S} =    0.00000   0.00000   0.00000  -0.00000
   scf:   27    -4146.715793    -4146.715793    -4146.715793  0.000003 -3.776256  0.000008
     spin moment: S , {S} =    0.00000   0.00000   0.00000  -0.00000
   scf:   28    -4146.715793    -4146.715793    -4146.715793  0.000001 -3.776256  0.000005
     spin moment: S , {S} =    0.00000   0.00000   0.00000  -0.00000
   scf:   29    -4146.715793    -4146.715793    -4146.715793  0.000001 -3.776256  0.000003
     spin moment: S , {S} =    0.00000   0.00000   0.00000  -0.00000
   scf:   30    -4146.715793    -4146.715793    -4146.715793  0.000001 -3.776256  0.000001
     spin moment: S , {S} =    0.00000   0.00000   0.00000  -0.00000
   scf:   31    -4146.715793    -4146.715793    -4146.715793  0.000000 -3.776256  0.000001
     spin moment: S , {S} =    0.00000   0.00000   0.00000  -0.00000

SCF Convergence by DM+H criterion
max |DM_out - DM_in|         :     0.0000001905
max |H_out - H_in|      (eV) :     0.0000006869
SCF cycle converged after 31 iterations

Using DM_out to compute the final energy and forces
No. of atoms with KB's overlaping orbs in proc 0. Max # of overlaps:      29     170

siesta: E_KS(eV) =            -4146.7158

siesta: E_KS - E_eggbox =     -4146.7158
     spin moment: S , {S} =    0.00000   0.00000   0.00000  -0.00000

siesta: Atomic forces (eV/Ang):
     1    0.864761   -2.085926   -0.000000
     2   -0.001804    0.023901    0.000000
     3    0.680490   -0.314918    0.000000
     4    0.644179   -0.015003   -0.000000
     5    0.036563   -0.078641    0.000000
     6    1.707360    0.666340    0.000000
     7    0.039890   -0.228047   -0.000000
     8   -0.355782    0.251045    0.000000
     9   -0.139319    1.129467    0.000000
    10   -0.866738    0.334431   -0.000000
    11   -0.018512   -0.018337   -0.000000
    12   -0.294346   -0.231780   -0.000000
    13    0.023752    0.002684    0.000000
    14    0.253791   -0.157403    0.000000
    15   -1.153923   -0.795973   -0.000000
    16   -0.071738    0.182131    0.000000
    17    0.870396   -0.997456    0.000000
    18   -0.190899    0.176058   -0.000000
    19   -0.180679   -1.063816    0.000000
    20   -0.018837   -0.365312    0.000000
    21   -0.235467    0.916246   -0.000000
    22   -2.108903   -0.928062   -0.000000
    23    0.224676    0.465555    0.000000
    24    0.067696   -0.054662    0.000000
    25    0.036301    0.040001   -0.000000
    26   -0.248113   -0.206231   -0.000000
    27    1.482364    1.217704   -0.000000
    28   -1.121618   -2.685431    0.000000
    29   -0.071433    0.114437   -0.000000
----------------------------------------
   Tot   -0.145892   -4.706998    0.000000
----------------------------------------
   Max    2.685431
   Res    0.642827    sqrt( Sum f_i^2 / 3N )
----------------------------------------
   Max    2.685431    constrained

Stress tensor Voigt[x,y,z,yz,xz,xy] (kbar):        0.38        1.67       -0.10        0.00       -0.00        1.56
(Free)E + p*V (eV/cell)    -4148.7312
Target enthalpy (eV/cell)    -4146.7158

mulliken: Atomic and Orbital Populations:

Species: O                   

Atom      Orb        Charge      Spin       Svec
----------------------------------------------------------------
    1  1 2s         1.74654   0.00000     -0.000   0.000  -0.000
    1  2 2s         0.06595   0.00000      0.000  -0.000   0.000
    1  3 2py        1.43572   0.00000      0.000   0.000  -0.000
    1  4 2pz        1.55584   0.00000     -0.000  -0.000  -0.000
    1  5 2px        1.63044   0.00000     -0.000  -0.000  -0.000
    1  6 2py        0.03606   0.00000     -0.000  -0.000   0.000
    1  7 2pz       -0.00833   0.00000     -0.000   0.000   0.000
    1  8 2px        0.00165   0.00000      0.000   0.000   0.000
    1  9 3Pdxy      0.00671   0.00000      0.000   0.000   0.000
    1 10 3Pdyz      0.00877   0.00000      0.000   0.000   0.000
    1 11 3Pdz2      0.00149   0.00000     -0.000   0.000  -0.000
    1 12 3Pdxz      0.00033   0.00000     -0.000   0.000   0.000
    1 13 3Pdx2-y2   0.00674   0.00000     -0.000  -0.000  -0.000
    1     Total     6.48791   0.00000     -0.000  -0.000  -0.000

   28  1 2s         1.74640   0.00000     -0.000  -0.000   0.000
   28  2 2s         0.06452   0.00000      0.000   0.000  -0.000
   28  3 2py        1.41799   0.00000      0.000   0.000  -0.000
   28  4 2pz        1.55482   0.00000      0.000   0.000  -0.000
   28  5 2px        1.64827   0.00000      0.000   0.000  -0.000
   28  6 2py        0.03849   0.00000     -0.000  -0.000   0.000
   28  7 2pz       -0.00712   0.00000     -0.000  -0.000   0.000
   28  8 2px        0.00721   0.00000     -0.000  -0.000   0.000
   28  9 3Pdxy      0.00625   0.00000      0.000   0.000   0.000
   28 10 3Pdyz      0.00952   0.00000     -0.000   0.000  -0.000
   28 11 3Pdz2      0.00119   0.00000      0.000   0.000  -0.000
   28 12 3Pdxz     -0.00019   0.00000     -0.000  -0.000  -0.000
   28 13 3Pdx2-y2   0.00764   0.00000      0.000  -0.000   0.000
   28     Total     6.49500   0.00000      0.000   0.000  -0.000

----------------------------------------------------------------
Total              12.98291   0.00000      0.000   0.000  -0.000


Species: N                   

Atom      Orb        Charge      Spin       Svec
----------------------------------------------------------------
    2  1 2s         1.55046   0.00000      0.000   0.000  -0.000
    2  2 2s         0.08445   0.00000     -0.000  -0.000   0.000
    2  3 2py        1.04435   0.00000     -0.000   0.000  -0.000
    2  4 2pz        1.22433   0.00000      0.000   0.000  -0.000
    2  5 2px        0.99102   0.00000     -0.000  -0.000  -0.000
    2  6 2py        0.18819   0.00000      0.000   0.000   0.000
    2  7 2pz        0.05528   0.00000      0.000  -0.000   0.000
    2  8 2px        0.19559   0.00000      0.000   0.000   0.000
    2  9 3Pdxy      0.00837   0.00000     -0.000   0.000   0.000
    2 10 3Pdyz      0.01097   0.00000     -0.000   0.000   0.000
    2 11 3Pdz2      0.00194   0.00000      0.000  -0.000   0.000
    2 12 3Pdxz      0.00759   0.00000     -0.000   0.000   0.000
    2 13 3Pdx2-y2   0.00907   0.00000     -0.000   0.000  -0.000
    2     Total     5.37162   0.00000     -0.000   0.000  -0.000

    3  1 2s         1.39744   0.00000      0.000  -0.000  -0.000
    3  2 2s         0.11785   0.00000     -0.000   0.000   0.000
    3  3 2py        0.94187   0.00000      0.000  -0.000  -0.000
    3  4 2pz        1.54420   0.00000     -0.000  -0.000  -0.000
    3  5 2px        1.08460   0.00000     -0.000   0.000  -0.000
    3  6 2py        0.24868   0.00000     -0.000   0.000   0.000
    3  7 2pz        0.00654   0.00000      0.000   0.000   0.000
    3  8 2px        0.17775   0.00000     -0.000  -0.000   0.000
    3  9 3Pdxy      0.00390   0.00000      0.000   0.000   0.000
    3 10 3Pdyz      0.00409   0.00000      0.000  -0.000   0.000
    3 11 3Pdz2      0.00072   0.00000     -0.000  -0.000   0.000
    3 12 3Pdxz      0.00274   0.00000     -0.000   0.000  -0.000
    3 13 3Pdx2-y2   0.00272   0.00000     -0.000  -0.000  -0.000
    3     Total     5.53312   0.00000      0.000  -0.000  -0.000

    4  1 2s         1.46038   0.00000      0.000   0.000  -0.000
    4  2 2s         0.11876   0.00000     -0.000   0.000   0.000
    4  3 2py        1.12996   0.00000      0.000   0.000  -0.000
    4  4 2pz        1.29510   0.00000     -0.000   0.000  -0.000
    4  5 2px        0.82612   0.00000     -0.000   0.000  -0.000
    4  6 2py        0.14981   0.00000     -0.000  -0.000   0.000
    4  7 2pz        0.05333   0.00000      0.000  -0.000   0.000
    4  8 2px        0.29235   0.00000      0.000  -0.000   0.000
    4  9 3Pdxy      0.00871   0.00000      0.000  -0.000  -0.000
    4 10 3Pdyz      0.01045   0.00000      0.000  -0.000   0.000
    4 11 3Pdz2      0.00126   0.00000      0.000  -0.000  -0.000
    4 12 3Pdxz      0.00492   0.00000     -0.000  -0.000   0.000
    4 13 3Pdx2-y2   0.00798   0.00000      0.000   0.000  -0.000
    4     Total     5.35913   0.00000      0.000   0.000  -0.000

    5  1 2s         1.37607   0.00000      0.000   0.000  -0.000
    5  2 2s         0.12803   0.00000     -0.000  -0.000   0.000
    5  3 2py        1.02625   0.00000      0.000  -0.000  -0.000
    5  4 2pz        1.50081   0.00000      0.000   0.000  -0.000
    5  5 2px        1.05997   0.00000      0.000  -0.000  -0.000
    5  6 2py        0.20372   0.00000      0.000   0.000   0.000
    5  7 2pz        0.01341   0.00000     -0.000  -0.000   0.000
    5  8 2px        0.20108   0.00000     -0.000   0.000   0.000
    5  9 3Pdxy      0.00392   0.00000      0.000   0.000   0.000
    5 10 3Pdyz      0.00242   0.00000      0.000  -0.000   0.000
    5 11 3Pdz2      0.00142   0.00000      0.000  -0.000   0.000
    5 12 3Pdxz      0.00681   0.00000     -0.000  -0.000   0.000
    5 13 3Pdx2-y2   0.00560   0.00000      0.000   0.000   0.000
    5     Total     5.52952   0.00000      0.000   0.000  -0.000

    6  1 2s         1.26814   0.00000     -0.000   0.000  -0.000
    6  2 2s         0.18011   0.00000      0.000  -0.000   0.000
    6  3 2py        1.07862   0.00000      0.000   0.000  -0.000
    6  4 2pz        1.56698   0.00000     -0.000   0.000  -0.000
    6  5 2px        0.96107   0.00000      0.000  -0.000  -0.000
    6  6 2py        0.18789   0.00000     -0.000  -0.000   0.000
    6  7 2pz        0.03020   0.00000      0.000  -0.000   0.000
    6  8 2px        0.25497   0.00000     -0.000   0.000   0.000
    6  9 3Pdxy      0.00224   0.00000      0.000   0.000   0.000
    6 10 3Pdyz      0.00013   0.00000      0.000   0.000  -0.000
    6 11 3Pdz2      0.00170   0.00000      0.000  -0.000   0.000
    6 12 3Pdxz      0.00333   0.00000     -0.000  -0.000   0.000
    6 13 3Pdx2-y2   0.00399   0.00000     -0.000  -0.000   0.000
    6     Total     5.53938   0.00000      0.000   0.000  -0.000

   21  1 2s         1.41990   0.00000      0.000   0.000   0.000
   21  2 2s         0.12960   0.00000     -0.000  -0.000  -0.000
   21  3 2py        0.87363   0.00000     -0.000   0.000  -0.000
   21  4 2pz        1.29850   0.00000     -0.000   0.000  -0.000
   21  5 2px        1.15969   0.00000     -0.000  -0.000  -0.000
   21  6 2py        0.27488   0.00000      0.000  -0.000   0.000
   21  7 2pz        0.04823   0.00000      0.000  -0.000   0.000
   21  8 2px        0.16148   0.00000     -0.000   0.000   0.000
   21  9 3Pdxy      0.00630   0.00000      0.000   0.000  -0.000
   21 10 3Pdyz      0.00492   0.00000     -0.000  -0.000  -0.000
   21 11 3Pdz2      0.00013   0.00000      0.000   0.000   0.000
   21 12 3Pdxz      0.00580   0.00000     -0.000   0.000   0.000
   21 13 3Pdx2-y2   0.00563   0.00000     -0.000  -0.000  -0.000
   21     Total     5.38870   0.00000     -0.000   0.000  -0.000

   22  1 2s         1.29236   0.00000      0.000   0.000   0.000
   22  2 2s         0.16916   0.00000     -0.000  -0.000  -0.000
   22  3 2py        1.05981   0.00000      0.000  -0.000  -0.000
   22  4 2pz        1.54791   0.00000     -0.000   0.000  -0.000
   22  5 2px        0.98963   0.00000      0.000  -0.000  -0.000
   22  6 2py        0.19614   0.00000     -0.000   0.000   0.000
   22  7 2pz        0.02872   0.00000      0.000   0.000   0.000
   22  8 2px        0.23409   0.00000     -0.000   0.000   0.000
   22  9 3Pdxy      0.00311   0.00000     -0.000   0.000   0.000
   22 10 3Pdyz      0.00032   0.00000     -0.000   0.000   0.000
   22 11 3Pdz2      0.00248   0.00000     -0.000  -0.000   0.000
   22 12 3Pdxz      0.00327   0.00000      0.000  -0.000  -0.000
   22 13 3Pdx2-y2   0.00473   0.00000      0.000   0.000  -0.000
   22     Total     5.53174   0.00000      0.000   0.000  -0.000

   23  1 2s         1.39428   0.00000      0.000   0.000   0.000
   23  2 2s         0.11927   0.00000     -0.000  -0.000  -0.000
   23  3 2py        1.00815   0.00000      0.000  -0.000  -0.000
   23  4 2pz        1.52735   0.00000      0.000  -0.000  -0.000
   23  5 2px        1.06344   0.00000     -0.000   0.000  -0.000
   23  6 2py        0.21136   0.00000     -0.000   0.000   0.000
   23  7 2pz        0.00479   0.00000     -0.000  -0.000   0.000
   23  8 2px        0.19816   0.00000     -0.000  -0.000   0.000
   23  9 3Pdxy      0.00529   0.00000      0.000   0.000   0.000
   23 10 3Pdyz      0.00446   0.00000     -0.000  -0.000  -0.000
   23 11 3Pdz2      0.00067   0.00000     -0.000   0.000   0.000
   23 12 3Pdxz      0.00245   0.00000      0.000   0.000  -0.000
   23 13 3Pdx2-y2   0.00138   0.00000     -0.000  -0.000  -0.000
   23     Total     5.54102   0.00000      0.000  -0.000  -0.000

----------------------------------------------------------------
Total              56.77714   0.00000      0.000   0.000  -0.000


Species: Si                  

Atom      Orb        Charge      Spin       Svec
----------------------------------------------------------------
    7  1 3s         0.66779   0.00000     -0.000  -0.000   0.000
    7  2 3s         0.36466   0.00000      0.000   0.000   0.000
    7  3 3py        0.48623   0.00000     -0.000  -0.000   0.000
    7  4 3pz        0.69416   0.00000      0.000  -0.000  -0.000
    7  5 3px        0.12451   0.00000      0.000  -0.000   0.000
    7  6 3py        0.26570   0.00000      0.000   0.000   0.000
    7  7 3pz        0.25901   0.00000     -0.000   0.000   0.000
    7  8 3px        0.43837   0.00000     -0.000  -0.000   0.000
    7  9 3Pdxy      0.24546   0.00000      0.000  -0.000   0.000
    7 10 3Pdyz      0.02914   0.00000     -0.000  -0.000   0.000
    7 11 3Pdz2      0.01171   0.00000     -0.000  -0.000   0.000
    7 12 3Pdxz      0.14554   0.00000      0.000  -0.000  -0.000
    7 13 3Pdx2-y2   0.11288   0.00000      0.000   0.000  -0.000
    7     Total     3.84516   0.00000     -0.000  -0.000   0.000

    8  1 3s         0.65630   0.00000     -0.000  -0.000   0.000
    8  2 3s         0.36861   0.00000      0.000   0.000   0.000
    8  3 3py        0.38882   0.00000      0.000  -0.000  -0.000
    8  4 3pz        0.52117   0.00000     -0.000   0.000   0.000
    8  5 3px       -0.02956   0.00000      0.000   0.000  -0.000
    8  6 3py        0.30856   0.00000     -0.000   0.000   0.000
    8  7 3pz        0.20268   0.00000     -0.000  -0.000   0.000
    8  8 3px        0.51476   0.00000     -0.000  -0.000   0.000
    8  9 3Pdxy      0.24651   0.00000     -0.000   0.000   0.000
    8 10 3Pdyz      0.11223   0.00000      0.000   0.000  -0.000
    8 11 3Pdz2      0.01433   0.00000      0.000  -0.000   0.000
    8 12 3Pdxz      0.15405   0.00000     -0.000   0.000   0.000
    8 13 3Pdx2-y2   0.20060   0.00000     -0.000  -0.000   0.000
    8     Total     3.65906   0.00000     -0.000   0.000   0.000

    9  1 3s         0.60332   0.00000      0.000   0.000   0.000
    9  2 3s         0.36698   0.00000     -0.000  -0.000  -0.000
    9  3 3py        0.07789   0.00000     -0.000  -0.000   0.000
    9  4 3pz        0.48480   0.00000      0.000  -0.000  -0.000
    9  5 3px        0.37874   0.00000      0.000   0.000   0.000
    9  6 3py        0.44426   0.00000     -0.000  -0.000   0.000
    9  7 3pz        0.18653   0.00000     -0.000  -0.000   0.000
    9  8 3px        0.27411   0.00000     -0.000  -0.000   0.000
    9  9 3Pdxy      0.31022   0.00000     -0.000  -0.000   0.000
    9 10 3Pdyz      0.19090   0.00000      0.000   0.000  -0.000
    9 11 3Pdz2      0.01603   0.00000     -0.000   0.000   0.000
    9 12 3Pdxz      0.09921   0.00000      0.000   0.000  -0.000
    9 13 3Pdx2-y2   0.17318   0.00000      0.000   0.000   0.000
    9     Total     3.60617   0.00000      0.000   0.000   0.000

   10  1 3s         0.48093   0.00000     -0.000   0.000   0.000
   10  2 3s         0.37850   0.00000      0.000  -0.000   0.000
   10  3 3py        0.23992   0.00000     -0.000   0.000   0.000
   10  4 3pz        0.40739   0.00000     -0.000  -0.000   0.000
   10  5 3px        0.10098   0.00000     -0.000  -0.000   0.000
   10  6 3py        0.32735   0.00000      0.000  -0.000  -0.000
   10  7 3pz        0.22281   0.00000     -0.000  -0.000   0.000
   10  8 3px        0.43042   0.00000      0.000   0.000   0.000
   10  9 3Pdxy      0.16958   0.00000     -0.000   0.000   0.000
   10 10 3Pdyz      0.13835   0.00000     -0.000  -0.000   0.000
   10 11 3Pdz2      0.01014   0.00000     -0.000   0.000   0.000
   10 12 3Pdxz      0.17561   0.00000     -0.000  -0.000   0.000
   10 13 3Pdx2-y2   0.30937   0.00000      0.000  -0.000  -0.000
   10     Total     3.39134   0.00000     -0.000  -0.000   0.000

   11  1 3s         0.55283   0.00000      0.000   0.000   0.000
   11  2 3s         0.38514   0.00000     -0.000  -0.000   0.000
   11  3 3py        0.32227   0.00000      0.000   0.000   0.000
   11  4 3pz        0.54172   0.00000      0.000  -0.000   0.000
   11  5 3px        0.12491   0.00000     -0.000   0.000   0.000
   11  6 3py        0.28663   0.00000     -0.000  -0.000   0.000
   11  7 3pz        0.17716   0.00000     -0.000   0.000   0.000
   11  8 3px        0.44598   0.00000      0.000  -0.000  -0.000
   11  9 3Pdxy      0.22547   0.00000      0.000   0.000   0.000
   11 10 3Pdyz      0.12651   0.00000      0.000  -0.000   0.000
   11 11 3Pdz2      0.00960   0.00000      0.000   0.000  -0.000
   11 12 3Pdxz      0.05294   0.00000      0.000  -0.000   0.000
   11 13 3Pdx2-y2   0.20403   0.00000      0.000  -0.000   0.000
   11     Total     3.45518   0.00000      0.000   0.000   0.000

   17  1 3s         0.63675   0.00000      0.000  -0.000   0.000
   17  2 3s         0.36159   0.00000     -0.000   0.000  -0.000
   17  3 3py        0.22408   0.00000      0.000  -0.000   0.000
   17  4 3pz        0.42008   0.00000     -0.000   0.000   0.000
   17  5 3px        0.24444   0.00000     -0.000  -0.000   0.000
   17  6 3py        0.38740   0.00000     -0.000   0.000  -0.000
   17  7 3pz        0.21254   0.00000      0.000  -0.000   0.000
   17  8 3px        0.37057   0.00000     -0.000  -0.000  -0.000
   17  9 3Pdxy      0.29975   0.00000     -0.000  -0.000  -0.000
   17 10 3Pdyz      0.14195   0.00000      0.000   0.000   0.000
   17 11 3Pdz2      0.00889   0.00000      0.000   0.000   0.000
   17 12 3Pdxz      0.14349   0.00000      0.000   0.000   0.000
   17 13 3Pdx2-y2   0.16442   0.00000      0.000  -0.000  -0.000
   17     Total     3.61595   0.00000      0.000   0.000   0.000

   18  1 3s         0.74341   0.00000      0.000  -0.000   0.000
   18  2 3s         0.34041   0.00000     -0.000   0.000   0.000
   18  3 3py        0.07634   0.00000     -0.000   0.000   0.000
   18  4 3pz        0.81685   0.00000      0.000  -0.000   0.000
   18  5 3px        0.55511   0.00000     -0.000  -0.000   0.000
   18  6 3py        0.52013   0.00000     -0.000  -0.000   0.000
   18  7 3pz        0.19828   0.00000     -0.000   0.000   0.000
   18  8 3px        0.25104   0.00000      0.000   0.000   0.000
   18  9 3Pdxy      0.10309   0.00000      0.000  -0.000  -0.000
   18 10 3Pdyz      0.02758   0.00000      0.000  -0.000  -0.000
   18 11 3Pdz2      0.00863   0.00000     -0.000  -0.000  -0.000
   18 12 3Pdxz      0.03048   0.00000     -0.000  -0.000  -0.000
   18 13 3Pdx2-y2   0.11222   0.00000     -0.000   0.000  -0.000
   18     Total     3.78358   0.00000     -0.000  -0.000   0.000

   19  1 3s         0.46050   0.00000      0.000  -0.000   0.000
   19  2 3s         0.36467   0.00000     -0.000   0.000  -0.000
   19  3 3py        0.08545   0.00000     -0.000   0.000   0.000
   19  4 3pz        0.42844   0.00000      0.000  -0.000   0.000
   19  5 3px        0.35582   0.00000     -0.000  -0.000   0.000
   19  6 3py        0.46754   0.00000      0.000  -0.000  -0.000
   19  7 3pz        0.18252   0.00000     -0.000   0.000   0.000
   19  8 3px        0.24059   0.00000      0.000   0.000  -0.000
   19  9 3Pdxy      0.34126   0.00000     -0.000  -0.000  -0.000
   19 10 3Pdyz      0.18953   0.00000     -0.000  -0.000  -0.000
   19 11 3Pdz2      0.01572   0.00000     -0.000   0.000  -0.000
   19 12 3Pdxz      0.09012   0.00000     -0.000  -0.000   0.000
   19 13 3Pdx2-y2   0.24038   0.00000      0.000  -0.000   0.000
   19     Total     3.46255   0.00000     -0.000  -0.000   0.000

   20  1 3s         0.67394   0.00000     -0.000  -0.000  -0.000
   20  2 3s         0.37769   0.00000     -0.000   0.000  -0.000
   20  3 3py        0.32987   0.00000     -0.000  -0.000  -0.000
   20  4 3pz        0.59408   0.00000     -0.000   0.000  -0.000
   20  5 3px        0.13860   0.00000      0.000  -0.000  -0.000
   20  6 3py        0.29160   0.00000      0.000   0.000   0.000
   20  7 3pz        0.16355   0.00000      0.000  -0.000  -0.000
   20  8 3px        0.49966   0.00000     -0.000  -0.000   0.000
   20  9 3Pdxy      0.09984   0.00000     -0.000   0.000  -0.000
   20 10 3Pdyz      0.13311   0.00000     -0.000   0.000  -0.000
   20 11 3Pdz2      0.00738   0.00000     -0.000  -0.000   0.000
   20 12 3Pdxz      0.02685   0.00000     -0.000  -0.000   0.000
   20 13 3Pdx2-y2   0.17272   0.00000      0.000  -0.000   0.000
   20     Total     3.50888   0.00000     -0.000  -0.000  -0.000

----------------------------------------------------------------
Total              89.10503   0.00000     -0.000   0.000   0.000


Species: H                   

Atom      Orb        Charge      Spin       Svec
----------------------------------------------------------------
   12  1 1s         0.49161   0.00000     -0.000   0.000   0.000
   12  2 1s         0.18242   0.00000      0.000   0.000   0.000
   12  3 2Ppy       0.02906   0.00000      0.000   0.000  -0.000
   12  4 2Ppz       0.03288   0.00000      0.000  -0.000  -0.000
   12  5 2Ppx       0.02346   0.00000      0.000   0.000   0.000
   12     Total     0.75943   0.00000     -0.000   0.000   0.000

   13  1 1s         1.01961   0.00000     -0.000  -0.000  -0.000
   13  2 1s         0.09529   0.00000      0.000   0.000   0.000
   13  3 2Ppy       0.01808   0.00000     -0.000  -0.000  -0.000
   13  4 2Ppz       0.02013   0.00000     -0.000   0.000   0.000
   13  5 2Ppx       0.03508   0.00000      0.000   0.000   0.000
   13     Total     1.18820   0.00000     -0.000  -0.000  -0.000

   14  1 1s         0.46222   0.00000     -0.000  -0.000   0.000
   14  2 1s         0.19997   0.00000      0.000   0.000   0.000
   14  3 2Ppy       0.01811   0.00000      0.000  -0.000  -0.000
   14  4 2Ppz       0.04555   0.00000     -0.000   0.000  -0.000
   14  5 2Ppx       0.01727   0.00000     -0.000   0.000   0.000
   14     Total     0.74312   0.00000     -0.000  -0.000   0.000

   15  1 1s         0.48576   0.00000     -0.000   0.000   0.000
   15  2 1s         0.17941   0.00000      0.000  -0.000   0.000
   15  3 2Ppy       0.00573   0.00000     -0.000  -0.000  -0.000
   15  4 2Ppz       0.03943   0.00000      0.000  -0.000   0.000
   15  5 2Ppx       0.03163   0.00000      0.000  -0.000   0.000
   15     Total     0.74197   0.00000     -0.000  -0.000   0.000

   16  1 1s         0.50971   0.00000      0.000  -0.000   0.000
   16  2 1s         0.18732   0.00000     -0.000   0.000   0.000
   16  3 2Ppy       0.02981   0.00000      0.000  -0.000   0.000
   16  4 2Ppz       0.03977   0.00000     -0.000  -0.000  -0.000
   16  5 2Ppx       0.02359   0.00000     -0.000   0.000  -0.000
   16     Total     0.79021   0.00000     -0.000  -0.000   0.000

   24  1 1s         1.06284   0.00000      0.000  -0.000  -0.000
   24  2 1s         0.07419   0.00000     -0.000   0.000   0.000
   24  3 2Ppy       0.03223   0.00000     -0.000  -0.000  -0.000
   24  4 2Ppz       0.03055   0.00000     -0.000   0.000   0.000
   24  5 2Ppx       0.01731   0.00000      0.000  -0.000  -0.000
   24     Total     1.21711   0.00000      0.000   0.000  -0.000

   25  1 1s         1.04308   0.00000      0.000  -0.000  -0.000
   25  2 1s         0.08648   0.00000     -0.000   0.000  -0.000
   25  3 2Ppy       0.01225   0.00000      0.000   0.000  -0.000
   25  4 2Ppz       0.01858   0.00000      0.000  -0.000  -0.000
   25  5 2Ppx       0.03569   0.00000      0.000  -0.000   0.000
   25     Total     1.19608   0.00000      0.000  -0.000  -0.000

   26  1 1s         0.47466   0.00000      0.000   0.000  -0.000
   26  2 1s         0.19634   0.00000     -0.000   0.000   0.000
   26  3 2Ppy       0.02122   0.00000      0.000   0.000   0.000
   26  4 2Ppz       0.04838   0.00000      0.000  -0.000  -0.000
   26  5 2Ppx       0.01605   0.00000     -0.000  -0.000  -0.000
   26     Total     0.75665   0.00000      0.000  -0.000   0.000

   27  1 1s         0.49913   0.00000      0.000   0.000   0.000
   27  2 1s         0.17012   0.00000     -0.000  -0.000   0.000
   27  3 2Ppy       0.00823   0.00000     -0.000  -0.000  -0.000
   27  4 2Ppz       0.03477   0.00000      0.000  -0.000  -0.000
   27  5 2Ppx       0.03273   0.00000     -0.000   0.000  -0.000
   27     Total     0.74498   0.00000      0.000  -0.000   0.000

   29  1 1s         0.48570   0.00000     -0.000   0.000   0.000
   29  2 1s         0.18747   0.00000      0.000   0.000   0.000
   29  3 2Ppy       0.02509   0.00000      0.000  -0.000  -0.000
   29  4 2Ppz       0.03455   0.00000     -0.000  -0.000  -0.000
   29  5 2Ppx       0.02442   0.00000      0.000   0.000   0.000
   29     Total     0.75722   0.00000     -0.000  -0.000   0.000

----------------------------------------------------------------
Total              98.00000   0.00000      0.000   0.000  -0.000


siesta: Eigenvalues (eV):
ik =     1
  -21.9285  -21.9285  -21.7732  -21.7732  -21.5681  -21.5681  -21.4673  -21.4673  -21.2184  -21.2184
  -21.0867  -21.0867  -20.7476  -20.7476  -19.7617  -19.7617  -19.4337  -19.4337  -19.3539  -19.3539
  -14.7634  -14.7634  -13.8405  -13.8405  -13.3293  -13.3293  -13.1112  -13.1112  -13.0659  -13.0659
  -12.8355  -12.8355  -12.6980  -12.6980  -12.3473  -12.3473  -12.3326  -12.3326  -12.0238  -12.0238
  -11.3494  -11.3494  -10.8193  -10.8193  -10.7103  -10.7103  -10.6578  -10.6578  -10.1216  -10.1216
   -9.5669   -9.5669   -9.1867   -9.1867   -8.8515   -8.8515   -8.7066   -8.7066   -8.6668   -8.6668
   -8.5705   -8.5705   -8.4340   -8.4340   -8.1446   -8.1446   -7.7935   -7.7935   -7.7365   -7.7365
   -7.6469   -7.6469   -7.3301   -7.3301   -7.2488   -7.2488   -6.8047   -6.8047   -6.7970   -6.7970
   -6.5680   -6.5680   -6.4959   -6.4959   -6.1625   -6.1625   -6.1136   -6.1136   -6.0953   -6.0953
   -5.9064   -5.9064   -5.7059   -5.7059   -5.4958   -5.4958   -4.2996   -4.2996   -3.2526   -3.2526
   -2.3167   -2.3167   -2.3094   -2.3094   -2.2189   -2.2189   -1.8553   -1.8553   -1.8470   -1.8470
   -1.8106   -1.8106   -1.7947   -1.7947   -1.5833   -1.5833   -1.4530   -1.4530   -1.0455   -1.0455
   -0.9518   -0.9518   -0.7608   -0.7608   -0.3562   -0.3562   -0.2365   -0.2365    0.0858    0.0858
    0.4486    0.4486    0.4575    0.4575    0.5953    0.5953    0.7413    0.7413    0.8449    0.8449
    1.0740    1.0740    1.2413    1.2413    1.3478    1.3478    1.4269    1.4269    1.4767    1.4767
    1.7194    1.7194    1.8751    1.8751    1.9831    1.9831    2.3902    2.3902    2.7533    2.7533
    2.7593    2.7593    2.8254    2.8254    2.9346    2.9346    3.2487    3.2487    3.4192    3.4192
    3.4642    3.4642    3.8087    3.8087    3.9459    3.9459    4.0744    4.0744    4.3877    4.3877
    4.4069    4.4069    4.5426    4.5426    4.5800    4.5800    4.6302    4.6302    4.8746    4.8746
    4.9463    4.9463    5.0704    5.0704    5.2747    5.2747    5.5102    5.5102    5.6567    5.6567
    5.7546    5.7546    5.8219    5.8219    5.9948    5.9948    6.0851    6.0851    6.1791    6.1791
    6.2465    6.2465    6.3685    6.3685    6.5849    6.5849    6.7497    6.7497    6.8495    6.8495
    7.0273    7.0273    7.2221    7.2221    7.4420    7.4420    7.6137    7.6137    7.7648    7.7648
    7.8568    7.8568    8.0563    8.0563    8.0697    8.0697    8.2839    8.2839    8.3890    8.3890
    8.6115    8.6115    8.7309    8.7309    8.8214    8.8214    8.9438    8.9438    9.2334    9.2334
    9.2685    9.2685    9.3943    9.3943    9.8137    9.8137    9.8357    9.8357    9.8546    9.8546
   10.0531   10.0531   10.1578   10.1578   10.4685   10.4685   10.8465   10.8465   11.0112   11.0112
   11.1287   11.1287   11.1805   11.1805   11.2101   11.2101   11.7589   11.7589   11.8372   11.8372
   11.9488   11.9488   12.0613   12.0613   12.3937   12.3937   12.4625   12.4625   12.5347   12.5347
   12.6997   12.6997   12.7315   12.7315   13.4824   13.4824   13.5075   13.5075   13.6948   13.6948
   13.8771   13.8771   14.0426   14.0426   14.3054   14.3054   14.6302   14.6302   14.8616   14.8616
   14.8939   14.8939   15.3091   15.3091   16.0091   16.0091   16.4736   16.4736   16.6520   16.6520
   16.9769   16.9769   17.5113   17.5113   17.5837   17.5837   18.4165   18.4165   18.4727   18.4727
   18.5794   18.5794   19.0391   19.0391   19.4431   19.4431   19.9952   19.9952   20.2288   20.2288
   20.9150   20.9150   21.3520   21.3520   21.8577   21.8577   22.0667   22.0667   22.5614   22.5614
   23.1504   23.1504   23.4642   23.4642   23.7713   23.7713   24.0083   24.0083   24.0388   24.0388
   24.9157   24.9157   25.2415   25.2415   26.0963   26.0963   26.9224   26.9224   27.9072   27.9072
   28.7791   28.7791   29.0033   29.0033   29.1468   29.1468   29.5100   29.5100   29.8079   29.8080
   30.1288   30.1288   30.3427   30.3427   30.6129   30.6129   30.9009   30.9009   31.0027   31.0027
   31.0896   31.0896   31.2998   31.2998   31.6092   31.6092   32.1665   32.1665   32.2484   32.2484
   33.4869   33.4869   34.0030   34.0030   34.5384   34.5384   34.6434   34.6434   34.6552   34.6552
   34.8332   34.8332   35.1098   35.1098   35.3845   35.3845   35.6871   35.6871   35.7623   35.7623
   36.9655   36.9655   37.2601   37.2601   37.3293   37.3293   37.4658   37.4658   38.0129   38.0129
   38.4694   38.4694   38.9124   38.9124   39.2792   39.2792   39.6144   39.6144   40.1229   40.1229
   40.4851   40.4851   40.5889   40.5889   40.8268   40.8268   40.8932   40.8932   41.5152   41.5152
   41.8896   41.8896   42.3967   42.3967   42.8813   42.8813   42.9810   42.9810   43.1341   43.1341
   43.4278   43.4278   43.8498   43.8498   44.1971   44.1971   44.2567   44.2567   44.4779   44.4779
   44.7165   44.7165   45.0442   45.0442   45.2171   45.2171   45.7411   45.7411   46.1360   46.1360
   46.7283   46.7283   47.2373   47.2373   47.3376   47.3376   48.6143   48.6143   49.5561   49.5561
   49.5948   49.5948   50.2518   50.2518   50.6181   50.6181   50.6735   50.6735   51.0888   51.0888
   51.3815   51.3815   52.2890   52.2890   52.4075   52.4075   53.3099   53.3099   54.2516   54.2516
   54.6790   54.6790   54.7730   54.7730   55.5078   55.5078   55.7997   55.7997   56.2503   56.2503
   56.5387   56.5387   56.6378   56.6378   56.8634   56.8634   58.4271   58.4271   58.9138   58.9138
   59.6017   59.6017   60.4307   60.4307   60.6499   60.6499   61.2786   61.2786   61.7921   61.7921
   62.1003   62.1003   62.3969   62.3969   62.8004   62.8004   64.6449   64.6449   66.5294   66.5294
   67.2790   67.2790   67.5930   67.5930   68.1859   68.1859   69.1786   69.1786   70.8961   70.8961
   74.2955   74.2955   81.3381   81.3381   91.2882   91.2882   91.9466   91.9466   93.5487   93.5487
   98.5358   98.5358   99.5629   99.5629  100.2345  100.2345  103.5024  103.5024  104.2074  104.2074
  110.5180  110.5180  112.5347  112.5347  123.7785  123.7785  125.8339  125.8339  130.7212  130.7212
  135.4966  135.4966  138.7626  138.7626
siesta: Fermi energy =      -3.776256 eV

siesta: Program's energy decomposition (eV):
siesta: Ebs     =     -1133.346453
siesta: Eions   =      3585.165840
siesta: Ena     =       382.013973
siesta: Ekin    =      2903.220038
siesta: Enl     =     -2788.329690
siesta: Eso     =        -0.004278
siesta: Edftu   =         0.000000
siesta: DEna    =        47.157901
siesta: DUscf   =        14.213580
siesta: DUext   =         0.000000
siesta: Exc     =     -1119.821477
siesta: eta*DQ  =         0.000000
siesta: Emadel  =         0.000000
siesta: Emeta   =         0.000000
siesta: Emolmec =         0.000000
siesta: Ekinion =         0.000000
siesta: Eharris =     -4146.715793
siesta: Etot    =     -4146.715793
siesta: FreeEng =     -4146.715793

siesta: Final energy (eV):
siesta:  Band Struct. =   -1133.346453
siesta:       Kinetic =    2903.220038
siesta:       Hartree =    8414.671553
siesta:       Edftu   =       0.000000
siesta:       Eso     =      -0.004278
siesta:    Ext. field =       0.000000
siesta:   Exch.-corr. =   -1119.821477
siesta:  Ion-electron =  -19412.257758
siesta:       Ion-ion =    5067.476129
siesta:       Ekinion =       0.000000
siesta:         Total =   -4146.715793
siesta:         Fermi =      -3.776256

siesta: Atomic forces (eV/Ang):
siesta:      1    0.864761   -2.085926   -0.000000
siesta:      2   -0.001804    0.023901    0.000000
siesta:      3    0.680490   -0.314918    0.000000
siesta:      4    0.644179   -0.015003   -0.000000
siesta:      5    0.036563   -0.078641    0.000000
siesta:      6    1.707360    0.666340    0.000000
siesta:      7    0.039890   -0.228047   -0.000000
siesta:      8   -0.355782    0.251045    0.000000
siesta:      9   -0.139319    1.129467    0.000000
siesta:     10   -0.866738    0.334431   -0.000000
siesta:     11   -0.018512   -0.018337   -0.000000
siesta:     12   -0.294346   -0.231780   -0.000000
siesta:     13    0.023752    0.002684    0.000000
siesta:     14    0.253791   -0.157403    0.000000
siesta:     15   -1.153923   -0.795973   -0.000000
siesta:     16   -0.071738    0.182131    0.000000
siesta:     17    0.870396   -0.997456    0.000000
siesta:     18   -0.190899    0.176058   -0.000000
siesta:     19   -0.180679   -1.063816    0.000000
siesta:     20   -0.018837   -0.365312    0.000000
siesta:     21   -0.235467    0.916246   -0.000000
siesta:     22   -2.108903   -0.928062   -0.000000
siesta:     23    0.224676    0.465555    0.000000
siesta:     24    0.067696   -0.054662    0.000000
siesta:     25    0.036301    0.040001   -0.000000
siesta:     26   -0.248113   -0.206231   -0.000000
siesta:     27    1.482364    1.217704   -0.000000
siesta:     28   -1.121618   -2.685431    0.000000
siesta:     29   -0.071433    0.114437   -0.000000
siesta: ----------------------------------------
siesta:    Tot   -0.145892   -4.706998    0.000000

siesta: Stress tensor (static) (eV/Ang**3):
siesta:     0.000236    0.000974   -0.000000
siesta:     0.000974    0.001044   -0.000000
siesta:    -0.000000    0.000000   -0.000060

siesta: Cell volume =       4959.072375 Ang**3

siesta: Pressure (static):
siesta:                Solid            Molecule  Units
siesta:          -0.00000443          0.00000499  Ry/Bohr**3
siesta:          -0.00040641          0.00045779  eV/Ang**3
siesta:          -0.65115313          0.73347628  kBar
(Free)E+ p_basis*V_orbitals  =       -4126.865375
(Free)Eharris+ p_basis*V_orbitals  =       -4126.865375
     spin moment: S , {S} =    0.00000   0.00000   0.00000  -0.00000

siesta: Electric dipole (a.u.)  =    1.619175    0.091371    0.000000
siesta: Electric dipole (Debye) =    4.115535    0.232243    0.000000

cite: Please see "GC.bib" for an exhaustive BiBTeX file.
cite: Please clearly indicate Siesta version in published work: v4.1.5-1-g384057250
cite: This calculation has made use of the following articles
cite: which are encouraged to be cited in a published work.
        Primary SIESTA paper
          DOI: www.doi.org/10.1088/0953-8984/14/11/302
        Spin-orbit coupling (on-site approximation)
          DOI: www.doi.org/10.1088/0953-8984/19/19/489001


WARNING: alloc-realloc-dealloc name mismatch
         Name: atomlist isa
         Size:              -116. Bytes
         Node:     0
         Subsequent mismatches will not be reported
>> End of run:  28-JUN-2023  19:31:25
Job completed
