Siesta Version  : v4.1.5-1-g384057250
Architecture    : gcc
Compiler version: GNU Fortran (Ubuntu 11.4.0-1ubuntu1~22.04) 11.4.0
Compiler flags  : mpifort -O2 -fPIC -ftree-vectorize -fallow-argument-mismatch
PP flags        : -DFC_HAVE_ABORT -DMPI -DSIESTA__FLOOK -DSIESTA__METIS -DSIESTA__MUMPS -DCDF -DNCDF -DNCDF_4 -DNCDF_PARALLEL -DSIESTA__MRRR -DSIESTA__ELPA
Libraries       : libncdf.a libfdict.a  -lflookall -ldl -lnetcdff -lnetcdf -lhdf5_hl -lhdf5 -lhdf5_fortran -lz -lscalapack-openmpi -lopenblas -lmetis -lzmumps -lcmumps -ldmumps -lmumps_common -lpord -lsmumps -lesmumps -lscotch -lscotcherr -fopenmp -lelpa
PARALLEL version
NetCDF support
NetCDF-4 support
NetCDF-4 MPI-IO support
METIS ordering support
Lua support

* Running on 8 nodes in parallel
>> Start of run:   1-FEB-2024  22:47:12

                           ***********************       
                           *  WELCOME TO SIESTA  *       
                           ***********************       

reinit: Reading from standard input
reinit: Dumped input in INPUT_TMP.03460
************************** Dump of input data file ****************************
# mpirun -np 4 siesta-4.1.5 < GC.fdf > GC.out &
SystemLabel      GC
NumberOfAtoms    29
NumberOfSpecies  4
%block ChemicalSpeciesLabel
    1    1  H
    2    7  N
    3   14  Si
    4    8  O
%endblock ChemicalSpeciesLabel
############################################
# This overrides Defaults.fdf configuration
############################################
MD.TypeOfRun                Verlet # CG, Verlet
MD.Steps                    0
MaxSCFIterations            200
SCF.MustConverge            F
AtomicCoordinatesFormat NotScaledCartesianAng
%block AtomicCoordinatesAndAtomicSpecies
    -0.5780319324041538 5.997276567395785 0.0  1  1  H
    -1.2845186624041538 5.207240387395784 0.0  2  2  N
    -3.014805572404154 5.648604297395784 0.0  3  3  Si
    -3.1705852524041536 7.138596557395784 0.0  1  4  H
    -4.538127192404154 4.089696777395784 0.0  3  5  Si
    -6.021314822404154 4.332527137395784 0.0  1  6  H
    -3.339736332404154 2.176420617395784 0.0  3  7  Si
    -4.105761792404154 0.6437038773957842 0.0  2  8  N
    -3.515515242404154 -0.31350915260421575 0.0  1  9  H
    -5.157384112404154 0.5632436473957843 0.0  1  10  H
    -1.6235362724041538 2.231594927395784 0.0  2  11  N
    -0.5485136524041538 3.561933767395784 0.0  3  12  Si
    1.060159667595846 3.5431235073957845 0.0  4  13  O
    5.6164483 -7.44953905 0.0  1  14  H
    4.58206954 -7.2320376 0.0  2  15  N
    3.29666389 -8.492636 0.0  3  16  Si
    3.80117524 -9.90371886 -0.0  1  17  H
    1.65934232 -8.01362137 0.0  2  18  N
    1.68097912 -6.20463398 -0.0  3  19  Si
    0.54543521 -4.28636135 0.0  3  20  Si
    -1.03431493 -3.94450034 0.0  4  21  O
    1.73226934 -2.87719605 0.0  2  22  N
    1.20957366 -1.92961761 -0.0  1  23  H
    3.50853448 -2.77677601 0.0  3  24  Si
    4.13684451 -1.17938608 0.0  2  25  N
    3.54296161 -0.26248101 0.0  1  26  H
    5.18364407 -1.05231197 -0.0  1  27  H
    4.63288658 -4.07521596 -0.0  2  28  N
    3.79410501 -5.58634043 0.0  3  29  Si
%endblock AtomicCoordinatesAndAtomicSpecies
#############
# Unit Cell
#############
LatticeConstant 1.0 Ang
%block LatticeVectors
    30.00000    0.000000    0.000000
    0.000000    45.00000    0.000000
    0.000000    0.000000    10.00000
%endblock LatticeVectors
%include ../../../../Defaults.fdf
************************** End of input data file *****************************

reinit: -----------------------------------------------------------------------
reinit: System Name: 
reinit: -----------------------------------------------------------------------
reinit: System Label: GC
reinit: -----------------------------------------------------------------------

initatom: Reading input for the pseudopotentials and atomic orbitals ----------
Species number:   1 Atomic number:    1 Label: H
Species number:   2 Atomic number:    7 Label: N
Species number:   3 Atomic number:   14 Label: Si
Species number:   4 Atomic number:    8 Label: O

Ground state valence configuration:   1s01
Reading pseudopotential information in formatted form from H.psf

Pseudopotential generated from a relativistic atomic calculation

Valence configuration for pseudopotential generation:
1s( 1.00) rc: 0.01
2p( 0.00) rc: 0.60
3d( 0.00) rc: 1.99
4f( 0.00) rc: 2.49
Ground state valence configuration:   2s02  2p03
Reading pseudopotential information in formatted form from N.psf

Pseudopotential generated from a relativistic atomic calculation

Valence configuration for pseudopotential generation:
2s( 2.00) rc: 0.94
2p( 3.00) rc: 0.59
3d( 0.00) rc: 3.46
4f( 0.00) rc: 2.47
Ground state valence configuration:   3s02  3p02
Reading pseudopotential information in formatted form from Si.psf

Pseudopotential generated from a relativistic atomic calculation

Valence configuration for pseudopotential generation:
3s( 2.00) rc: 1.67
3p( 2.00) rc: 2.04
3d( 0.00) rc: 2.89
4f( 0.00) rc: 2.49
Ground state valence configuration:   2s02  2p04
Reading pseudopotential information in formatted form from O.psf

Pseudopotential generated from a relativistic atomic calculation

Valence configuration for pseudopotential generation:
2s( 2.00) rc: 0.45
2p( 4.00) rc: 0.92
3d( 0.00) rc: 2.24
4f( 0.00) rc: 0.25
For H, standard SIESTA heuristics set lmxkb to 2
 (one more than the basis l, including polarization orbitals).
Use PS.lmax or PS.KBprojectors blocks to override.
For N, standard SIESTA heuristics set lmxkb to 3
 (one more than the basis l, including polarization orbitals).
Use PS.lmax or PS.KBprojectors blocks to override.
For Si, standard SIESTA heuristics set lmxkb to 3
 (one more than the basis l, including polarization orbitals).
Use PS.lmax or PS.KBprojectors blocks to override.
For O, standard SIESTA heuristics set lmxkb to 3
 (one more than the basis l, including polarization orbitals).
Use PS.lmax or PS.KBprojectors blocks to override.

<basis_specs>
===============================================================================
H                    Z=   1    Mass=  1.0100        Charge= 0.17977+309
Lmxo=0 Lmxkb= 2    BasisType=split      Semic=F
L=0  Nsemic=0  Cnfigmx=1
          i=1  nzeta=2  polorb=1  (1s)
            splnorm:   0.62000    
               vcte:    0.0000    
               rinn:    0.0000    
               qcoe:    0.0000    
               qyuk:    0.0000    
               qwid:   0.10000E-01
                rcs:    0.0000      0.0000    
            lambdas:    1.0000      1.0000    
-------------------------------------------------------------------------------
L=0  Nkbl=1  erefs: 0.17977+309
L=1  Nkbl=1  erefs: 0.17977+309
L=2  Nkbl=1  erefs: 0.17977+309
===============================================================================
</basis_specs>

atom: Called for H                     (Z =   1)

read_vps: Pseudopotential generation method:
read_vps: ATM4.2.7  Troullier-Martins                       
Valence charge for ps generation:    1.00000

xc_check: Exchange-correlation functional:
xc_check: GGA Perdew, Burke & Ernzerhof 1996
V l=0 = -2*Zval/r beyond r=  0.0098
V l=1 = -2*Zval/r beyond r=  0.5817
V l=2 = -2*Zval/r beyond r=  1.9372
All V_l potentials equal beyond r=  1.9372
This should be close to max(r_c) in ps generation
All pots = -2*Zval/r beyond r=  1.9372

VLOCAL1: 99.0% of the norm of Vloc inside     11.567 Ry
VLOCAL1: 99.9% of the norm of Vloc inside     26.362 Ry
atom: Maximum radius for 4*pi*r*r*local-pseudopot. charge    2.25106
atom: Maximum radius for r*vlocal+2*Zval:    1.91306
GHOST: No ghost state for L =  0
GHOST: No ghost state for L =  1
GHOST: No ghost state for L =  2

KBgen: Kleinman-Bylander projectors: 
   l= 0   rc=  2.036604   el= -0.477180   Ekb= -6.081590   kbcos= -0.277285
   l= 1   rc=  2.195416   el=  0.001076   Ekb= -0.926943   kbcos= -0.034643
   l= 2   rc=  2.251056   el=  0.002010   Ekb= -0.130941   kbcos= -0.009788

KBgen: Total number of Kleinman-Bylander projectors:    9
atom: -------------------------------------------------------------------------

atom: SANKEY-TYPE ORBITALS:
atom: Selected multiple-zeta basis: split     

SPLIT: Orbitals with angular momentum L= 0

SPLIT: Basis orbitals for state 1s

SPLIT: PAO cut-off radius determined from an
SPLIT: energy shift=  0.002000 Ry

   izeta = 1
                 lambda =    1.000000
                     rc =    6.518340
                 energy =   -0.475305
                kinetic =    0.912139
    potential(screened) =   -1.387444
       potential(ionic) =   -1.907295

   izeta = 2
                 rmatch =    2.141150
              splitnorm =    0.620000
                 energy =    0.566467
                kinetic =    3.772856
    potential(screened) =   -3.206389
       potential(ionic) =   -3.759093

POLgen: Perturbative polarization orbital with L=  1

POLgen: Polarization orbital for state 1s

   izeta = 1
                     rc =    6.518340
                 energy =    0.533861
                kinetic =    1.121086
    potential(screened) =   -0.587225
       potential(ionic) =   -1.053027
atom: Total number of Sankey-type orbitals:  5

atm_pop: Valence configuration (for local Pseudopot. screening):
 1s( 1.00)                                                            
Vna: chval, zval:    1.00000   1.00000

Vna:  Cut-off radius for the neutral-atom potential:   6.518340

atom: _________________________________________________________________________

<basis_specs>
===============================================================================
N                    Z=   7    Mass=  14.010        Charge= 0.17977+309
Lmxo=1 Lmxkb= 3    BasisType=split      Semic=F
L=0  Nsemic=0  Cnfigmx=2
          i=1  nzeta=2  polorb=0  (2s)
            splnorm:   0.28000    
               vcte:    0.0000    
               rinn:    0.0000    
               qcoe:    0.0000    
               qyuk:    0.0000    
               qwid:   0.10000E-01
                rcs:    0.0000      0.0000    
            lambdas:    1.0000      1.0000    
L=1  Nsemic=0  Cnfigmx=2
          i=1  nzeta=2  polorb=1  (2p)
            splnorm:   0.28000    
               vcte:    0.0000    
               rinn:    0.0000    
               qcoe:    0.0000    
               qyuk:    0.0000    
               qwid:   0.10000E-01
                rcs:    0.0000      0.0000    
            lambdas:    1.0000      1.0000    
-------------------------------------------------------------------------------
L=0  Nkbl=1  erefs: 0.17977+309
L=1  Nkbl=1  erefs: 0.17977+309
L=2  Nkbl=1  erefs: 0.17977+309
L=3  Nkbl=1  erefs: 0.17977+309
===============================================================================
</basis_specs>

atom: Called for N                     (Z =   7)

read_vps: Pseudopotential generation method:
read_vps: ATM4.2.7  Troullier-Martins                       
Valence charge for ps generation:    5.00000

xc_check: Exchange-correlation functional:
xc_check: GGA Perdew, Burke & Ernzerhof 1996
V l=0 = -2*Zval/r beyond r=  1.2889
V l=1 = -2*Zval/r beyond r=  1.2889
V l=2 = -2*Zval/r beyond r=  3.4178
V l=3 = -2*Zval/r beyond r=  2.4084
All V_l potentials equal beyond r=  3.3753
This should be close to max(r_c) in ps generation
All pots = -2*Zval/r beyond r=  3.4178

VLOCAL1: 99.0% of the norm of Vloc inside      3.810 Ry
VLOCAL1: 99.9% of the norm of Vloc inside      8.683 Ry
atom: Maximum radius for 4*pi*r*r*local-pseudopot. charge    4.02088
atom: Maximum radius for r*vlocal+2*Zval:    3.54838
GHOST: No ghost state for L =  0
GHOST: No ghost state for L =  1
GHOST: No ghost state for L =  2
GHOST: No ghost state for L =  3

KBgen: Kleinman-Bylander projectors: 
   l= 0   rc=  3.417763   el= -1.365098   Ekb= -4.433130   kbcos= -0.707855
   l= 1   rc=  3.375302   el= -0.521201   Ekb=-13.264039   kbcos= -0.535594
   l= 2   rc=  3.872880   el=  0.001991   Ekb= -0.641094   kbcos= -0.062456
   l= 3   rc=  3.970931   el=  0.003093   Ekb= -0.474517   kbcos= -0.018236

KBgen: Total number of Kleinman-Bylander projectors:   16
atom: -------------------------------------------------------------------------

atom: SANKEY-TYPE ORBITALS:
atom: Selected multiple-zeta basis: split     

SPLIT: Orbitals with angular momentum L= 0

SPLIT: Basis orbitals for state 2s

SPLIT: PAO cut-off radius determined from an
SPLIT: energy shift=  0.002000 Ry

   izeta = 1
                 lambda =    1.000000
                     rc =    4.730425
                 energy =   -1.363399
                kinetic =    1.245246
    potential(screened) =   -2.608645
       potential(ionic) =   -8.121105

   izeta = 2
                 rmatch =    2.531849
              splitnorm =    0.280000
                 energy =   -0.959908
                kinetic =    2.409435
    potential(screened) =   -3.369343
       potential(ionic) =   -9.427975

SPLIT: Orbitals with angular momentum L= 1

SPLIT: Basis orbitals for state 2p

SPLIT: PAO cut-off radius determined from an
SPLIT: energy shift=  0.002000 Ry

   izeta = 1
                 lambda =    1.000000
                     rc =    5.924108
                 energy =   -0.519262
                kinetic =    3.672940
    potential(screened) =   -4.192202
       potential(ionic) =   -9.518354

   izeta = 2
                 rmatch =    2.531849
              splitnorm =    0.280000
                 energy =   -0.104258
                kinetic =    6.807538
    potential(screened) =   -6.911796
       potential(ionic) =  -13.149920

POLgen: Perturbative polarization orbital with L=  2

POLgen: Polarization orbital for state 2p

   izeta = 1
                     rc =    5.924108
                 energy =    1.427508
                kinetic =    2.872379
    potential(screened) =   -1.444871
       potential(ionic) =   -5.563644
atom: Total number of Sankey-type orbitals: 13

atm_pop: Valence configuration (for local Pseudopot. screening):
 2s( 2.00)                                                            
 2p( 3.00)                                                            
Vna: chval, zval:    5.00000   5.00000

Vna:  Cut-off radius for the neutral-atom potential:   5.924108

atom: _________________________________________________________________________

<basis_specs>
===============================================================================
Si                   Z=  14    Mass=  28.090        Charge= 0.17977+309
Lmxo=1 Lmxkb= 3    BasisType=split      Semic=F
L=0  Nsemic=0  Cnfigmx=3
          i=1  nzeta=2  polorb=0  (3s)
            splnorm:   0.28000    
               vcte:    0.0000    
               rinn:    0.0000    
               qcoe:    0.0000    
               qyuk:    0.0000    
               qwid:   0.10000E-01
                rcs:    0.0000      0.0000    
            lambdas:    1.0000      1.0000    
L=1  Nsemic=0  Cnfigmx=3
          i=1  nzeta=2  polorb=1  (3p)
            splnorm:   0.28000    
               vcte:    0.0000    
               rinn:    0.0000    
               qcoe:    0.0000    
               qyuk:    0.0000    
               qwid:   0.10000E-01
                rcs:    0.0000      0.0000    
            lambdas:    1.0000      1.0000    
-------------------------------------------------------------------------------
L=0  Nkbl=1  erefs: 0.17977+309
L=1  Nkbl=1  erefs: 0.17977+309
L=2  Nkbl=1  erefs: 0.17977+309
L=3  Nkbl=1  erefs: 0.17977+309
===============================================================================
</basis_specs>

atom: Called for Si                    (Z =  14)

read_vps: Pseudopotential generation method:
read_vps: ATM4.2.7  Troullier-Martins                       
Valence charge for ps generation:    4.00000

xc_check: Exchange-correlation functional:
xc_check: GGA Perdew, Burke & Ernzerhof 1996
V l=0 = -2*Zval/r beyond r=  2.7826
V l=1 = -2*Zval/r beyond r=  2.7826
V l=2 = -2*Zval/r beyond r=  2.9253
V l=3 = -2*Zval/r beyond r=  2.7826
All V_l potentials equal beyond r=  2.8530
This should be close to max(r_c) in ps generation
All pots = -2*Zval/r beyond r=  2.9253

VLOCAL1: 99.0% of the norm of Vloc inside      5.333 Ry
VLOCAL1: 99.9% of the norm of Vloc inside     12.154 Ry
atom: Maximum radius for 4*pi*r*r*local-pseudopot. charge    3.39869
atom: Maximum radius for r*vlocal+2*Zval:    2.96205
GHOST: No ghost state for L =  0
GHOST: No ghost state for L =  1
GHOST: No ghost state for L =  2
GHOST: No ghost state for L =  3

KBgen: Kleinman-Bylander projectors: 
   l= 0   rc=  3.075247   el= -0.794092   Ekb=  5.879390   kbcos=  0.167461
   l= 1   rc=  3.153101   el= -0.300068   Ekb=  2.642817   kbcos=  0.058301
   l= 2   rc=  3.273594   el=  0.001958   Ekb= -1.185135   kbcos= -0.104411
   l= 3   rc=  3.232927   el=  0.003046   Ekb= -0.497174   kbcos= -0.015889

KBgen: Total number of Kleinman-Bylander projectors:   16
atom: -------------------------------------------------------------------------

atom: SANKEY-TYPE ORBITALS:
atom: Selected multiple-zeta basis: split     

SPLIT: Orbitals with angular momentum L= 0

SPLIT: Basis orbitals for state 3s

SPLIT: PAO cut-off radius determined from an
SPLIT: energy shift=  0.002000 Ry

   izeta = 1
                 lambda =    1.000000
                     rc =    6.429618
                 energy =   -0.792283
                kinetic =    0.525293
    potential(screened) =   -1.317576
       potential(ionic) =   -3.744923

   izeta = 2
                 rmatch =    3.998416
              splitnorm =    0.280000
                 energy =   -0.583081
                kinetic =    1.069570
    potential(screened) =   -1.652651
       potential(ionic) =   -4.235185

SPLIT: Orbitals with angular momentum L= 1

SPLIT: Basis orbitals for state 3p

SPLIT: PAO cut-off radius determined from an
SPLIT: energy shift=  0.002000 Ry

   izeta = 1
                 lambda =    1.000000
                     rc =    8.464845
                 energy =   -0.298236
                kinetic =    0.785360
    potential(screened) =   -1.083596
       potential(ionic) =   -3.273779

   izeta = 2
                 rmatch =    4.587816
              splitnorm =    0.280000
                 energy =   -0.131871
                kinetic =    1.403687
    potential(screened) =   -1.535557
       potential(ionic) =   -4.015310

POLgen: Perturbative polarization orbital with L=  2

POLgen: Polarization orbital for state 3p

   izeta = 1
                     rc =    8.464845
                 energy =    0.321949
                kinetic =    1.055677
    potential(screened) =   -0.733728
       potential(ionic) =   -2.672950
atom: Total number of Sankey-type orbitals: 13

atm_pop: Valence configuration (for local Pseudopot. screening):
 3s( 2.00)                                                            
 3p( 2.00)                                                            
Vna: chval, zval:    4.00000   4.00000

Vna:  Cut-off radius for the neutral-atom potential:   8.464845

atom: _________________________________________________________________________

<basis_specs>
===============================================================================
O                    Z=   8    Mass=  16.000        Charge= 0.17977+309
Lmxo=1 Lmxkb= 3    BasisType=split      Semic=F
L=0  Nsemic=0  Cnfigmx=2
          i=1  nzeta=2  polorb=0  (2s)
            splnorm:   0.28000    
               vcte:    0.0000    
               rinn:    0.0000    
               qcoe:    0.0000    
               qyuk:    0.0000    
               qwid:   0.10000E-01
                rcs:    0.0000      0.0000    
            lambdas:    1.0000      1.0000    
L=1  Nsemic=0  Cnfigmx=2
          i=1  nzeta=2  polorb=1  (2p)
            splnorm:   0.28000    
               vcte:    0.0000    
               rinn:    0.0000    
               qcoe:    0.0000    
               qyuk:    0.0000    
               qwid:   0.10000E-01
                rcs:    0.0000      0.0000    
            lambdas:    1.0000      1.0000    
-------------------------------------------------------------------------------
L=0  Nkbl=1  erefs: 0.17977+309
L=1  Nkbl=1  erefs: 0.17977+309
L=2  Nkbl=1  erefs: 0.17977+309
L=3  Nkbl=1  erefs: 0.17977+309
===============================================================================
</basis_specs>

atom: Called for O                     (Z =   8)

read_vps: Pseudopotential generation method:
read_vps: ATM4.2.7  Troullier-Martins                       
Valence charge for ps generation:    6.00000

xc_check: Exchange-correlation functional:
xc_check: GGA Perdew, Burke & Ernzerhof 1996
V l=0 = -2*Zval/r beyond r=  1.1000
V l=1 = -2*Zval/r beyond r=  1.1000
V l=2 = -2*Zval/r beyond r=  2.2154
V l=3 = -2*Zval/r beyond r=  1.1000
All V_l potentials equal beyond r=  2.2154
This should be close to max(r_c) in ps generation
All pots = -2*Zval/r beyond r=  2.2154

VLOCAL1: 99.0% of the norm of Vloc inside      8.845 Ry
VLOCAL1: 99.9% of the norm of Vloc inside     20.157 Ry
atom: Maximum radius for 4*pi*r*r*local-pseudopot. charge    2.67231
atom: Maximum radius for r*vlocal+2*Zval:    2.32897
GHOST: No ghost state for L =  0
GHOST: No ghost state for L =  1
GHOST: No ghost state for L =  2
GHOST: No ghost state for L =  3

KBgen: Kleinman-Bylander projectors: 
   l= 0   rc=  2.243238   el= -1.759686   Ekb=**********   kbcos= -0.171774
   l= 1   rc=  2.328968   el= -0.663873   Ekb=-14.506792   kbcos= -0.519897
   l= 2   rc=  2.573941   el=  0.002031   Ekb= -1.137373   kbcos= -0.019581
   l= 3   rc=  2.606321   el=  0.003153   Ekb= -1.013546   kbcos= -0.003122

KBgen: Total number of Kleinman-Bylander projectors:   16
atom: -------------------------------------------------------------------------

atom: SANKEY-TYPE ORBITALS:
atom: Selected multiple-zeta basis: split     

SPLIT: Orbitals with angular momentum L= 0

SPLIT: Basis orbitals for state 2s

SPLIT: PAO cut-off radius determined from an
SPLIT: energy shift=  0.002000 Ry

   izeta = 1
                 lambda =    1.000000
                     rc =    4.243912
                 energy =   -1.758270
                kinetic =    3.286084
    potential(screened) =   -5.044353
       potential(ionic) =  -12.921184

   izeta = 2
                 rmatch =    2.187845
              splitnorm =    0.280000
                 energy =   -0.885018
                kinetic =    8.134434
    potential(screened) =   -9.019452
       potential(ionic) =  -17.710645

SPLIT: Orbitals with angular momentum L= 1

SPLIT: Basis orbitals for state 2p

SPLIT: PAO cut-off radius determined from an
SPLIT: energy shift=  0.002000 Ry

   izeta = 1
                 lambda =    1.000000
                     rc =    5.314825
                 energy =   -0.661986
                kinetic =    4.917472
    potential(screened) =   -5.579458
       potential(ionic) =  -13.236259

   izeta = 2
                 rmatch =    2.160663
              splitnorm =    0.280000
                 energy =   -0.068760
                kinetic =    9.183374
    potential(screened) =   -9.252135
       potential(ionic) =  -18.274251

POLgen: Perturbative polarization orbital with L=  2

POLgen: Polarization orbital for state 2p

   izeta = 1
                     rc =    5.314825
                 energy =    1.970580
                kinetic =    3.886128
    potential(screened) =   -1.915547
       potential(ionic) =   -7.749584
atom: Total number of Sankey-type orbitals: 13

atm_pop: Valence configuration (for local Pseudopot. screening):
 2s( 2.00)                                                            
 2p( 4.00)                                                            
Vna: chval, zval:    6.00000   6.00000

Vna:  Cut-off radius for the neutral-atom potential:   5.314825

atom: _________________________________________________________________________

prinput: Basis input ----------------------------------------------------------

PAO.BasisType split     

%block ChemicalSpeciesLabel
    1    1 H                       # Species index, atomic number, species label
    2    7 N                       # Species index, atomic number, species label
    3   14 Si                      # Species index, atomic number, species label
    4    8 O                       # Species index, atomic number, species label
%endblock ChemicalSpeciesLabel

%block PAO.Basis                 # Define Basis set
H                     1                    # Species label, number of l-shells
 n=1   0   2 P   1                   # n, l, Nzeta, Polarization, NzetaPol
   6.518      2.141   
   1.000      1.000   
N                     2                    # Species label, number of l-shells
 n=2   0   2                         # n, l, Nzeta 
   4.730      2.532   
   1.000      1.000   
 n=2   1   2 P   1                   # n, l, Nzeta, Polarization, NzetaPol
   5.924      2.532   
   1.000      1.000   
Si                    2                    # Species label, number of l-shells
 n=3   0   2                         # n, l, Nzeta 
   6.430      3.998   
   1.000      1.000   
 n=3   1   2 P   1                   # n, l, Nzeta, Polarization, NzetaPol
   8.465      4.588   
   1.000      1.000   
O                     2                    # Species label, number of l-shells
 n=2   0   2                         # n, l, Nzeta 
   4.244      2.188   
   1.000      1.000   
 n=2   1   2 P   1                   # n, l, Nzeta, Polarization, NzetaPol
   5.315      2.161   
   1.000      1.000   
%endblock PAO.Basis

prinput: ----------------------------------------------------------------------

Dumping basis to NetCDF file H.ion.nc
Dumping basis to NetCDF file N.ion.nc
Dumping basis to NetCDF file Si.ion.nc
Dumping basis to NetCDF file O.ion.nc
coor:   Atomic-coordinates input format  =     Cartesian coordinates
coor:                                          (in Angstroms)

siesta: Atomic coordinates (Bohr) and species
siesta:     -1.09232  11.33321   0.00000  1        1
siesta:     -2.42739   9.84026   0.00000  2        2
siesta:     -5.69716  10.67432   0.00000  3        3
siesta:     -5.99154  13.49000   0.00000  1        4
siesta:     -8.57582   7.72841   0.00000  3        5
siesta:    -11.37864   8.18729   0.00000  1        6
siesta:     -6.31119   4.11284   0.00000  3        7
siesta:     -7.75877   1.21642   0.00000  2        8
siesta:     -6.64336  -0.59245   0.00000  1        9
siesta:     -9.74605   1.06438   0.00000  1       10
siesta:     -3.06804   4.21710   0.00000  2       11
siesta:     -1.03654   6.73108   0.00000  3       12
siesta:      2.00341   6.69554   0.00000  4       13
siesta:     10.61355 -14.07759   0.00000  1       14
siesta:      8.65886 -13.66658   0.00000  2       15
siesta:      6.22979 -16.04876   0.00000  3       16
siesta:      7.18318 -18.71532  -0.00000  1       17
siesta:      3.13570 -15.14356   0.00000  2       18
siesta:      3.17659 -11.72506  -0.00000  3       19
siesta:      1.03072  -8.10005   0.00000  3       20
siesta:     -1.95457  -7.45403   0.00000  4       21
siesta:      3.27352  -5.43711   0.00000  2       22
siesta:      2.28576  -3.64645  -0.00000  1       23
siesta:      6.63017  -5.24735   0.00000  3       24
siesta:      7.81751  -2.22872   0.00000  2       25
siesta:      6.69523  -0.49602   0.00000  1       26
siesta:      9.79567  -1.98858  -0.00000  1       27
siesta:      8.75489  -7.70105  -0.00000  2       28
siesta:      7.16982 -10.55666   0.00000  3       29

siesta: System type = molecule  

initatomlists: Number of atoms, orbitals, and projectors:     29   297   394

siesta: ******************** Simulation parameters ****************************
siesta:
siesta: The following are some of the parameters of the simulation.
siesta: A complete list of the parameters used, including default values,
siesta: can be found in file out.fdf
siesta:
redata: Spin configuration                          = spin-orbit
redata: Number of spin components                   = 8
redata: Time-Reversal Symmetry                      = F
redata: Spin spiral                                 = F
############################################################
This spin-orbit implementation uses a local approximation.
From 4.2 and onwards the full non-local approximation is implemented
You are strongly advised to use >=4.2 versions!
############################################################
redata: Long output                                 =   F
redata: Number of Atomic Species                    =        4
redata: Charge density info will appear in .RHO file
redata: Write Mulliken Pop.                         = NO
redata: Matel table size (NRTAB)                    =     1024
redata: Mesh Cutoff                                 =   340.0000 Ry
redata: Net charge of the system                    =     0.0000 |e|
redata: Min. number of SCF Iter                     =        1
redata: Max. number of SCF Iter                     =      200
redata: SCF mix quantity                            = Hamiltonian
redata: Mix DM or H after convergence               =   F
redata: Recompute H after scf cycle                 =   F
redata: Mix DM in first SCF step                    =   T
redata: Write Pulay info on disk                    =   F
redata: New DM Occupancy tolerance                  = 0.000000000001
redata: No kicks to SCF
redata: DM Mixing Weight for Kicks                  =     0.5000
redata: Require Harris convergence for SCF          =   F
redata: Harris energy tolerance for SCF             =     0.000100 eV
redata: Require DM convergence for SCF              =   T
redata: DM tolerance for SCF                        =     0.000008
redata: Require EDM convergence for SCF             =   F
redata: EDM tolerance for SCF                       =     0.001000 eV
redata: Require H convergence for SCF               =   T
redata: Hamiltonian tolerance for SCF               =     0.000001 eV
redata: Require (free) Energy convergence for SCF   =   F
redata: (free) Energy tolerance for SCF             =     0.000100 eV
redata: Using Saved Data (generic)                  =   F
redata: Use continuation files for DM               =   T
redata: Neglect nonoverlap interactions             =   F
redata: Method of Calculation                       = Diagonalization
redata: Electronic Temperature                      =   299.9978 K
redata: Fix the spin of the system                  =   F
redata: Dynamics option                             = Verlet MD run
redata: Initial MD time step                        =        1
redata:   Final MD time step                        =        1
redata: Length of MD time step                      =     0.5000 fs
redata: Initial Temperature of MD run               =     0.0000 K
redata: Perform a MD quench                         =   F
mix.SCF: Pulay mixing                            = Pulay
mix.SCF:    Variant                              = stable
mix.SCF:    History steps                        = 6
mix.SCF:    Linear mixing weight                 =     0.250000
mix.SCF:    Mixing weight                        =     0.250000
mix.SCF:    SVD condition                        = 0.1000E-07
mix.SCF:    Restart steps                        = 24
mix.SCF:    Restart save steps                   = 3
mix.SCF: Spin-component mixing                   all
redata: Save all siesta data in one NC              =   F
redata: ***********************************************************************

%block SCF.Mixers
  Pulay
%endblock SCF.Mixers

%block SCF.Mixer.Pulay
  # Mixing method
  method pulay
  variant stable

  # Mixing options
  weight 0.2500
  weight.linear 0.2500
  history 6
  restart 24
  restart.save 3
%endblock SCF.Mixer.Pulay

Size of DM history Fstack: 3
Total number of electrons:    98.000000
Total ionic charge:    98.000000

* ProcessorY, Blocksize:    2  24


* Orbital distribution balance (max,min):    48    24


Time-reversal symmetry not used.

siesta: k-grid: Number of k-points =     1
siesta: k-grid: Cutoff (effective) =     5.000 Ang
siesta: k-grid: Supercell and displacements
siesta: k-grid:    1   0   0      0.000
siesta: k-grid:    0   1   0      0.000
siesta: k-grid:    0   0   1      0.000

diag: Algorithm                                     = ELPA-1stage
diag: Parallel over k                               =   F
diag: Use parallel 2D distribution                  =   T
diag: Parallel block-size                           = 24
diag: Parallel distribution                         =     2 x     4
diag: Used triangular part                          = Lower
diag: Absolute tolerance                            =  0.100E-15
diag: Orthogonalization factor                      =  0.100E-05
diag: Memory factor                                 =  1.0000


ts: **************************************************************
ts: Save H and S matrices                           =    F
ts: Save DM and EDM matrices                        =    F
ts: Only save the overlap matrix S                  =    F
ts: **************************************************************

************************ Begin: TS CHECKS AND WARNINGS ************************
************************ End: TS CHECKS AND WARNINGS **************************


                     ====================================
                        Begin MD step =      1
                     ====================================

outcoor: Atomic coordinates (Ang):                          
   -0.57803193    5.99727657    0.00000000   1       1  H
   -1.28451866    5.20724039    0.00000000   2       2  N
   -3.01480557    5.64860430    0.00000000   3       3  Si
   -3.17058525    7.13859656    0.00000000   1       4  H
   -4.53812719    4.08969678    0.00000000   3       5  Si
   -6.02131482    4.33252714    0.00000000   1       6  H
   -3.33973633    2.17642062    0.00000000   3       7  Si
   -4.10576179    0.64370388    0.00000000   2       8  N
   -3.51551524   -0.31350915    0.00000000   1       9  H
   -5.15738411    0.56324365    0.00000000   1      10  H
   -1.62353627    2.23159493    0.00000000   2      11  N
   -0.54851365    3.56193377    0.00000000   3      12  Si
    1.06015967    3.54312351    0.00000000   4      13  O
    5.61644830   -7.44953905    0.00000000   1      14  H
    4.58206954   -7.23203760    0.00000000   2      15  N
    3.29666389   -8.49263600    0.00000000   3      16  Si
    3.80117524   -9.90371886    0.00000000   1      17  H
    1.65934232   -8.01362137    0.00000000   2      18  N
    1.68097912   -6.20463398    0.00000000   3      19  Si
    0.54543521   -4.28636135    0.00000000   3      20  Si
   -1.03431493   -3.94450034    0.00000000   4      21  O
    1.73226934   -2.87719605    0.00000000   2      22  N
    1.20957366   -1.92961761    0.00000000   1      23  H
    3.50853448   -2.77677601    0.00000000   3      24  Si
    4.13684451   -1.17938608    0.00000000   2      25  N
    3.54296161   -0.26248101    0.00000000   1      26  H
    5.18364407   -1.05231197    0.00000000   1      27  H
    4.63288658   -4.07521596    0.00000000   2      28  N
    3.79410501   -5.58634043    0.00000000   3      29  Si

outcell: Unit cell vectors (Ang):
       30.000000    0.000000    0.000000
        0.000000   45.000000    0.000000
        0.000000    0.000000   10.000000

outcell: Cell vector modules (Ang)   :   30.000000   45.000000   10.000000
outcell: Cell angles (23,13,12) (deg):     90.0000     90.0000     90.0000
outcell: Cell volume (Ang**3)        :  13500.0000
<dSpData1D:S at geom step 1
  <sparsity:sparsity for geom step 1
    nrows_g=297 nrows=48 sparsity=.0874 nnzs=7707, refcount: 8>
  <dData1D:(new from dSpData1D) n=7707, refcount: 1>
refcount: 1>
new_DM -- step:     1
Initializing Density Matrix...

Attempting to read DM from file... Failed...
DM filled with atomic data:
<dSpData2D:DM initialized from atoms
  <sparsity:sparsity for geom step 1
    nrows_g=297 nrows=48 sparsity=.0874 nnzs=7707, refcount: 9>
  <dData2D:DM n=7707 m=8, refcount: 1>
refcount: 1>
     spin moment: S , {S} =   56.00000   0.00000   0.00000  56.00000
No. of atoms with KB's overlaping orbs in proc 0. Max # of overlaps:      26     142

Initializing spin-orbit part of the Hamiltonian
  Adding spin-orbit effects for H 
  Adding spin-orbit effects for N 
  Adding spin-orbit effects for Si
  Adding spin-orbit effects for O 


New grid distribution:   1
           1       1:  180    1:  125    1:   15
           2       1:  180    1:  125   16:   30
           3       1:  180    1:  125   31:   45
           4       1:  180    1:  125   46:   60
           5       1:  180  126:  250    1:   15
           6       1:  180  126:  250   16:   30
           7       1:  180  126:  250   31:   45
           8       1:  180  126:  250   46:   60

InitMesh: MESH =   360 x   500 x   120 =    21600000
InitMesh: (bp) =   180 x   250 x    60 =     2700000
InitMesh: Mesh cutoff (required, used) =   340.000   341.206 Ry
ExtMesh (bp) on 0 =   288 x   225 x   123 =     7970400
New grid distribution:   2
           1       1:  157   29:  207    1:   60
           2     158:  180   23:  207    1:   60
           3       1:   21  226:  250    1:   60
           4     158:  180    1:   22    1:   60
           5       1:  157    1:   28    1:   60
           6      22:  180  228:  250    1:   60
           7      22:  180  208:  227    1:   60
           8       1:   21  208:  225    1:   60
New grid distribution:   3
           1       1:  144   25:  192    1:   60
           2       1:  144    1:   24    1:   60
           3     145:  180    1:   26    1:   60
           4       1:   32  222:  250    1:   60
           5     145:  180   27:  192    1:   60
           6      33:  180  193:  228    1:   60
           7      33:  180  229:  250    1:   60
           8       1:   32  193:  221    1:   60
Setting up quadratic distribution...
ExtMesh (bp) on 0 =   265 x   279 x   168 =    12421080
PhiOnMesh: Number of (b)points on node 0 =              1686180
PhiOnMesh: nlist on node 0 =              1712001

stepf: Fermi-Dirac step function

siesta: Program's energy decomposition (eV):
siesta: Ebs     =      -594.784848
siesta: Eions   =      3585.165840
siesta: Ena     =       381.828361
siesta: Ekin    =      3369.107438
siesta: Enl     =     -3297.468360
siesta: Eso     =        -0.003409
siesta: Edftu   =         0.000000
siesta: DEna    =       153.578328
siesta: DUscf   =        81.789138
siesta: DUext   =         0.000000
siesta: Exc     =     -1204.071130
siesta: eta*DQ  =         0.000000
siesta: Emadel  =         0.000000
siesta: Emeta   =         0.000000
siesta: Emolmec =         0.000000
siesta: Ekinion =         0.000000
siesta: Eharris =     -4020.806238
siesta: Etot    =     -4100.405474
siesta: FreeEng =     -4100.406509

        iscf     Eharris(eV)        E_KS(eV)     FreeEng(eV)     dDmax    Ef(eV) dHmax(eV)
   scf:    1    -4020.806238    -4100.405474    -4100.406509  0.965636 -4.903633 22.231661
     spin moment: S , {S} =    2.00582   0.00000  -0.00000   2.00582
timer: Routine,Calls,Time,% = IterSCF        1      11.936  31.19
   scf:    2    -4145.629382    -4135.438070    -4135.439193  0.455409 -4.153730 12.034898
     spin moment: S , {S} =    1.99441  -0.00000   0.00000   1.99441
   scf:    3    -4096.456716    -4130.314942    -4130.343160  0.429219 -4.311138 13.970661
     spin moment: S , {S} =    2.40821   0.00000  -0.00000   2.40821
   scf:    4    -4150.543100    -4144.862076    -4144.862077  0.327403 -3.837058  6.811099
     spin moment: S , {S} =    0.00010   0.00000   0.00000   0.00010
   scf:    5    -4146.322979    -4145.710142    -4145.710142  0.040657 -3.569986  4.448483
     spin moment: S , {S} =    0.00006   0.00000  -0.00000   0.00006
   scf:    6    -4146.459514    -4146.091732    -4146.091732  0.023969 -3.421020  2.282594
     spin moment: S , {S} =    0.00003  -0.00000  -0.00000   0.00003
   scf:    7    -4146.462456    -4146.273739    -4146.273739  0.022311 -3.633438  0.923361
     spin moment: S , {S} =    0.00001   0.00000   0.00000   0.00001
   scf:    8    -4146.387119    -4146.328909    -4146.328909  0.012130 -3.567589  0.566194
     spin moment: S , {S} =    0.00000  -0.00000   0.00000   0.00000
   scf:    9    -4146.370381    -4146.348947    -4146.348947  0.007249 -3.681402  0.451625
     spin moment: S , {S} =    0.00000  -0.00000   0.00000   0.00000
   scf:   10    -4146.404190    -4146.368246    -4146.368246  0.024423 -3.689110  0.266385
     spin moment: S , {S} =    0.00000   0.00000  -0.00000  -0.00000
   scf:   11    -4146.373029    -4146.370714    -4146.370714  0.005659 -3.676400  0.082025
     spin moment: S , {S} =    0.00000   0.00000  -0.00000  -0.00000
   scf:   12    -4146.372897    -4146.371816    -4146.371816  0.001612 -3.669607  0.036837
     spin moment: S , {S} =    0.00000   0.00000  -0.00000  -0.00000
   scf:   13    -4146.372511    -4146.372160    -4146.372160  0.001048 -3.666445  0.023912
     spin moment: S , {S} =    0.00000   0.00000  -0.00000  -0.00000
   scf:   14    -4146.372528    -4146.372337    -4146.372337  0.000747 -3.665137  0.014367
     spin moment: S , {S} =    0.00000  -0.00000  -0.00000  -0.00000
   scf:   15    -4146.372503    -4146.372414    -4146.372414  0.000728 -3.664402  0.008532
     spin moment: S , {S} =    0.00000  -0.00000  -0.00000  -0.00000
   scf:   16    -4146.372484    -4146.372446    -4146.372446  0.000568 -3.664669  0.004648
     spin moment: S , {S} =    0.00000  -0.00000  -0.00000  -0.00000
   scf:   17    -4146.372469    -4146.372457    -4146.372457  0.000369 -3.664574  0.003619
     spin moment: S , {S} =    0.00000  -0.00000  -0.00000   0.00000
   scf:   18    -4146.372464    -4146.372460    -4146.372460  0.000210 -3.664881  0.002445
     spin moment: S , {S} =    0.00000  -0.00000  -0.00000   0.00000
   scf:   19    -4146.372465    -4146.372462    -4146.372462  0.000188 -3.664865  0.001576
     spin moment: S , {S} =    0.00000   0.00000  -0.00000   0.00000
   scf:   20    -4146.372463    -4146.372463    -4146.372463  0.000091 -3.664878  0.001181
     spin moment: S , {S} =    0.00000   0.00000  -0.00000   0.00000
   scf:   21    -4146.372464    -4146.372463    -4146.372463  0.000113 -3.664894  0.000770
     spin moment: S , {S} =    0.00000  -0.00000  -0.00000   0.00000
   scf:   22    -4146.372464    -4146.372464    -4146.372464  0.000100 -3.664919  0.000340
     spin moment: S , {S} =    0.00000  -0.00000  -0.00000   0.00000
   scf:   23    -4146.372464    -4146.372464    -4146.372464  0.000053 -3.664933  0.000176
     spin moment: S , {S} =    0.00000  -0.00000  -0.00000   0.00000
   scf:   24    -4146.372464    -4146.372464    -4146.372464  0.000016 -3.664926  0.000107
     spin moment: S , {S} =    0.00000  -0.00000  -0.00000   0.00000
mix: Pulay -- resetting history
   scf:   25    -4146.372464    -4146.372464    -4146.372464  0.000015 -3.664916  0.000066
     spin moment: S , {S} =    0.00000  -0.00000  -0.00000   0.00000
   scf:   26    -4146.372464    -4146.372464    -4146.372464  0.000008 -3.664906  0.000036
     spin moment: S , {S} =    0.00000  -0.00000  -0.00000   0.00000
   scf:   27    -4146.372464    -4146.372464    -4146.372464  0.000007 -3.664904  0.000019
     spin moment: S , {S} =    0.00000  -0.00000  -0.00000   0.00000
   scf:   28    -4146.372464    -4146.372464    -4146.372464  0.000003 -3.664903  0.000013
     spin moment: S , {S} =    0.00000  -0.00000  -0.00000  -0.00000
   scf:   29    -4146.372464    -4146.372464    -4146.372464  0.000001 -3.664903  0.000008
     spin moment: S , {S} =    0.00000  -0.00000  -0.00000  -0.00000
   scf:   30    -4146.372464    -4146.372464    -4146.372464  0.000001 -3.664902  0.000003
     spin moment: S , {S} =    0.00000  -0.00000  -0.00000  -0.00000
   scf:   31    -4146.372464    -4146.372464    -4146.372464  0.000000 -3.664902  0.000002
     spin moment: S , {S} =    0.00000  -0.00000  -0.00000  -0.00000
   scf:   32    -4146.372464    -4146.372464    -4146.372464  0.000000 -3.664902  0.000001
     spin moment: S , {S} =    0.00000  -0.00000  -0.00000  -0.00000
   scf:   33    -4146.372464    -4146.372464    -4146.372464  0.000000 -3.664902  0.000001
     spin moment: S , {S} =    0.00000  -0.00000  -0.00000  -0.00000

SCF Convergence by DM+H criterion
max |DM_out - DM_in|         :     0.0000001576
max |H_out - H_in|      (eV) :     0.0000007432
SCF cycle converged after 33 iterations

Using DM_out to compute the final energy and forces
No. of atoms with KB's overlaping orbs in proc 0. Max # of overlaps:      26     142

siesta: E_KS(eV) =            -4146.3725

siesta: E_KS - E_eggbox =     -4146.3725
     spin moment: S , {S} =    0.00000  -0.00000  -0.00000  -0.00000

siesta: Atomic forces (eV/Ang):
     1    0.032206    0.020520    0.000000
     2   -0.514030    0.289448   -0.000000
     3    0.410807   -0.035656   -0.000000
     4   -0.084804    0.043524   -0.000000
     5   -0.204158   -0.207932   -0.000000
     6    0.081629    0.006070   -0.000000
     7    1.167891    0.982451    0.000000
     8    0.798003   -2.267646    0.000000
     9   -1.262397    1.797208    0.000000
    10    0.101759   -0.367071   -0.000000
    11   -0.986256   -0.308729    0.000000
    12    1.188592   -0.233637    0.000000
    13    2.467087   -2.687737   -0.000000
    14   -0.014775   -0.033076   -0.000000
    15    0.111822    0.032097    0.000000
    16    0.012581   -0.019337    0.000000
    17   -0.001975    0.047110    0.000000
    18   -0.039707    0.044615   -0.000000
    19    0.254410    0.026664    0.000000
    20   -1.342690   -0.170568   -0.000000
    21    1.229927   -3.848424    0.000000
    22    0.330584    0.756651    0.000000
    23    0.214273   -0.583570   -0.000000
    24   -0.324712   -0.930963   -0.000000
    25   -0.484393    1.539768    0.000000
    26    0.830358   -1.186921    0.000000
    27   -0.141962    0.097735   -0.000000
    28    0.044837    0.695693    0.000000
    29   -0.304299   -0.400932   -0.000000
----------------------------------------
   Tot    3.570607   -6.902644    0.000000
----------------------------------------
   Max    3.848424
   Res    0.797249    sqrt( Sum f_i^2 / 3N )
----------------------------------------
   Max    3.848424    constrained

Stress tensor Voigt[x,y,z,yz,xz,xy] (kbar):        0.53        0.22       -0.04        0.00        0.00       -0.50
(Free)E + p*V (eV/cell)    -4148.3459
Target enthalpy (eV/cell)    -4146.3725

siesta: Stress tensor (static) (eV/Ang**3):
         0.000328   -0.000310   -0.000000
        -0.000310    0.000135   -0.000000
         0.000000    0.000000   -0.000025

siesta: Pressure (static):         -0.23421353  kBar

siesta: Stress tensor (total) (eV/Ang**3):
         0.000328   -0.000310   -0.000000
        -0.000310    0.000135   -0.000000
         0.000000    0.000000   -0.000025

siesta: Pressure (total):         -0.23421353  kBar

siesta: Temp_ion =       0.000 K

siesta: Eigenvalues (eV):
ik =     1
  -21.7400  -21.7400  -21.7356  -21.7356  -21.4859  -21.4859  -21.4316  -21.4316  -21.1005  -21.1005
  -20.9716  -20.9716  -20.7056  -20.7056  -19.6843  -19.6843  -19.3101  -19.3101  -19.2241  -19.2241
  -14.6844  -14.6844  -13.7608  -13.7608  -13.2575  -13.2575  -13.0424  -13.0424  -12.9370  -12.9370
  -12.7918  -12.7918  -12.7251  -12.7251  -12.3421  -12.3421  -12.3367  -12.3367  -11.9628  -11.9628
  -11.2911  -11.2911  -10.7380  -10.7380  -10.6296  -10.6296  -10.6021  -10.6021  -10.0137  -10.0137
   -9.4888   -9.4888   -9.1331   -9.1331   -8.7160   -8.7160   -8.6074   -8.6074   -8.5657   -8.5657
   -8.5040   -8.5040   -8.3350   -8.3350   -8.0494   -8.0494   -7.7561   -7.7561   -7.5377   -7.5377
   -7.4890   -7.4890   -7.1869   -7.1869   -7.1531   -7.1531   -6.7499   -6.7499   -6.6757   -6.6757
   -6.4149   -6.4149   -6.3787   -6.3787   -6.0322   -6.0322   -5.9798   -5.9798   -5.9704   -5.9704
   -5.6849   -5.6849   -5.4800   -5.4800   -5.3914   -5.3914   -4.1700   -4.1700   -3.1597   -3.1597
   -2.2317   -2.2317   -2.1802   -2.1802   -2.1561   -2.1561   -1.7805   -1.7805   -1.7730   -1.7730
   -1.7178   -1.7178   -1.7167   -1.7167   -1.5204   -1.5204   -1.4257   -1.4257   -0.9038   -0.9038
   -0.7991   -0.7991   -0.6696   -0.6696   -0.2761   -0.2761   -0.0938   -0.0938    0.1238    0.1238
    0.4880    0.4880    0.5447    0.5447    0.6867    0.6867    0.7756    0.7756    0.9220    0.9220
    1.0446    1.0446    1.3704    1.3704    1.4013    1.4013    1.5004    1.5004    1.5181    1.5181
    1.8547    1.8547    1.9085    1.9085    1.9954    1.9954    2.4495    2.4495    2.8585    2.8585
    2.8699    2.8699    2.8862    2.8862    3.1076    3.1076    3.2353    3.2353    3.4116    3.4116
    3.5174    3.5174    3.8720    3.8720    3.9508    3.9508    4.1679    4.1679    4.3930    4.3930
    4.4972    4.4972    4.5034    4.5034    4.6536    4.6536    4.7271    4.7271    4.9310    4.9310
    4.9941    4.9941    5.1131    5.1131    5.3683    5.3683    5.5728    5.5728    5.8114    5.8114
    5.8387    5.8387    5.8943    5.8943    5.9968    5.9968    6.0753    6.0753    6.1085    6.1085
    6.2541    6.2541    6.4909    6.4909    6.6967    6.6967    6.8191    6.8191    6.9062    6.9062
    7.1132    7.1132    7.3028    7.3028    7.5523    7.5523    7.6516    7.6516    7.8401    7.8401
    7.9149    7.9149    8.0370    8.0370    8.1695    8.1695    8.3616    8.3616    8.3945    8.3945
    8.6400    8.6400    8.8431    8.8431    8.9864    8.9864    8.9933    8.9933    9.2464    9.2464
    9.3203    9.3203    9.3355    9.3355    9.7938    9.7938    9.9129    9.9129    9.9693    9.9693
   10.1748   10.1748   10.2407   10.2407   10.5718   10.5718   10.8716   10.8716   10.9377   10.9377
   11.0943   11.0943   11.1002   11.1002   11.2395   11.2395   11.7531   11.7531   11.8587   11.8587
   11.8999   11.8999   11.9978   11.9978   12.2101   12.2101   12.5047   12.5047   12.7887   12.7887
   12.8001   12.8001   12.9203   12.9203   13.4121   13.4121   13.5459   13.5459   13.7704   13.7704
   13.8738   13.8738   14.1811   14.1811   14.3923   14.3923   14.7675   14.7675   14.8718   14.8718
   14.9421   14.9421   15.4233   15.4233   16.1295   16.1295   16.5794   16.5794   16.7748   16.7748
   17.0447   17.0447   17.4066   17.4066   17.6820   17.6820   18.2936   18.2936   18.5379   18.5379
   18.7298   18.7298   19.2718   19.2718   19.4643   19.4643   20.0180   20.0180   20.3465   20.3465
   21.0529   21.0529   21.3168   21.3168   22.0583   22.0583   22.3080   22.3080   22.4696   22.4696
   22.9732   22.9732   23.3535   23.3535   23.8294   23.8294   23.9197   23.9197   23.9931   23.9931
   24.9414   24.9414   25.4562   25.4562   26.0398   26.0398   26.8236   26.8236   27.5681   27.5681
   28.4380   28.4380   29.0884   29.0884   29.2336   29.2336   29.5292   29.5292   29.7429   29.7429
   30.0845   30.0845   30.2068   30.2068   30.3071   30.3071   30.8215   30.8215   30.9728   30.9728
   31.1357   31.1357   31.2729   31.2729   31.6167   31.6167   31.7014   31.7014   32.2101   32.2101
   32.6825   32.6825   33.9331   33.9331   34.7082   34.7082   34.7238   34.7238   35.0141   35.0141
   35.1153   35.1153   35.1313   35.1313   35.6360   35.6360   35.7377   35.7377   35.9523   35.9523
   36.8367   36.8367   36.9568   36.9568   37.1329   37.1329   37.3911   37.3911   37.6863   37.6863
   38.2942   38.2942   38.4997   38.4997   39.4073   39.4073   39.4876   39.4876   39.8560   39.8560
   40.4907   40.4907   40.6164   40.6164   40.6769   40.6769   40.8041   40.8041   41.0219   41.0219
   41.0989   41.0989   41.3720   41.3720   42.5593   42.5593   42.9533   42.9533   42.9849   42.9849
   43.4481   43.4482   43.8308   43.8308   44.0180   44.0180   44.1160   44.1160   44.4085   44.4085
   44.7733   44.7733   44.7787   44.7787   45.2160   45.2160   45.5546   45.5546   46.0882   46.0882
   46.4262   46.4262   47.1213   47.1213   47.4509   47.4509   48.9064   48.9064   49.2091   49.2091
   49.5637   49.5637   50.4424   50.4424   50.5256   50.5256   51.0501   51.0501   51.1741   51.1741
   51.6942   51.6942   51.7045   51.7045   52.8172   52.8172   52.9237   52.9237   54.2248   54.2248
   54.3989   54.3989   54.6146   54.6146   54.8814   54.8814   55.7727   55.7727   55.8570   55.8570
   55.8718   55.8718   56.1774   56.1774   56.4620   56.4620   58.1937   58.1937   58.4659   58.4659
   58.7416   58.7416   60.2502   60.2502   60.3302   60.3302   60.7173   60.7173   61.1758   61.1758
   61.9054   61.9054   62.0737   62.0737   62.2584   62.2584   64.8446   64.8446   66.6202   66.6202
   66.8972   66.8972   67.3021   67.3021   68.1410   68.1410   68.6400   68.6400   70.9775   70.9775
   73.8977   73.8977   80.3078   80.3078   91.2012   91.2012   92.1145   92.1145   93.3396   93.3396
   98.3801   98.3801   98.6962   98.6962   99.6281   99.6281  103.1505  103.1505  103.7398  103.7398
  110.1928  110.1928  111.6795  111.6795  124.1488  124.1488  126.3155  126.3155  129.2783  129.2783
  135.2463  135.2463  138.3824  138.3824
siesta: Fermi energy =      -3.664902 eV

siesta: Program's energy decomposition (eV):
siesta: Ebs     =     -1123.908758
siesta: Eions   =      3585.165840
siesta: Ena     =       381.828361
siesta: Ekin    =      2902.642331
siesta: Enl     =     -2787.294295
siesta: Eso     =        -0.004276
siesta: Edftu   =         0.000000
siesta: DEna    =        46.896682
siesta: DUscf   =        14.323234
siesta: DUext   =         0.000000
siesta: Exc     =     -1119.598660
siesta: eta*DQ  =         0.000000
siesta: Emadel  =         0.000000
siesta: Emeta   =         0.000000
siesta: Emolmec =         0.000000
siesta: Ekinion =         0.000000
siesta: Eharris =     -4146.372464
siesta: Etot    =     -4146.372464
siesta: FreeEng =     -4146.372464

siesta: Final energy (eV):
siesta:  Band Struct. =   -1123.908758
siesta:       Kinetic =    2902.642331
siesta:       Hartree =   13660.077909
siesta:       Edftu   =       0.000000
siesta:       Eso     =      -0.004276
siesta:    Ext. field =       0.000000
siesta:   Exch.-corr. =   -1119.598660
siesta:  Ion-electron =  -29893.346743
siesta:       Ion-ion =   10303.856975
siesta:       Ekinion =       0.000000
siesta:         Total =   -4146.372464
siesta:         Fermi =      -3.664902

siesta: Atomic forces (eV/Ang):
siesta:      1    0.032206    0.020520    0.000000
siesta:      2   -0.514030    0.289448   -0.000000
siesta:      3    0.410807   -0.035656   -0.000000
siesta:      4   -0.084804    0.043524   -0.000000
siesta:      5   -0.204158   -0.207932   -0.000000
siesta:      6    0.081629    0.006070   -0.000000
siesta:      7    1.167891    0.982451    0.000000
siesta:      8    0.798003   -2.267646    0.000000
siesta:      9   -1.262397    1.797208    0.000000
siesta:     10    0.101759   -0.367071   -0.000000
siesta:     11   -0.986256   -0.308729    0.000000
siesta:     12    1.188592   -0.233637    0.000000
siesta:     13    2.467087   -2.687737   -0.000000
siesta:     14   -0.014775   -0.033076   -0.000000
siesta:     15    0.111822    0.032097    0.000000
siesta:     16    0.012581   -0.019337    0.000000
siesta:     17   -0.001975    0.047110    0.000000
siesta:     18   -0.039707    0.044615   -0.000000
siesta:     19    0.254410    0.026664    0.000000
siesta:     20   -1.342690   -0.170568   -0.000000
siesta:     21    1.229927   -3.848424    0.000000
siesta:     22    0.330584    0.756651    0.000000
siesta:     23    0.214273   -0.583570   -0.000000
siesta:     24   -0.324712   -0.930963   -0.000000
siesta:     25   -0.484393    1.539768    0.000000
siesta:     26    0.830358   -1.186921    0.000000
siesta:     27   -0.141962    0.097735   -0.000000
siesta:     28    0.044837    0.695693    0.000000
siesta:     29   -0.304299   -0.400932   -0.000000
siesta: ----------------------------------------
siesta:    Tot    3.570607   -6.902644    0.000000

siesta: Stress tensor (static) (eV/Ang**3):
siesta:     0.000328   -0.000310   -0.000000
siesta:    -0.000310    0.000135   -0.000000
siesta:     0.000000    0.000000   -0.000025

siesta: Cell volume =      13500.000000 Ang**3

siesta: Pressure (static):
siesta:                Solid            Molecule  Units
siesta:          -0.00000159          0.00000011  Ry/Bohr**3
siesta:          -0.00014618          0.00001042  eV/Ang**3
siesta:          -0.23421353          0.01669878  kBar
(Free)E+ p_basis*V_orbitals  =       -4126.522046
(Free)Eharris+ p_basis*V_orbitals  =       -4126.522046
     spin moment: S , {S} =    0.00000  -0.00000  -0.00000  -0.00000

siesta: Electric dipole (a.u.)  =    0.017393    1.474719    0.000000
siesta: Electric dipole (Debye) =    0.044207    3.748364    0.000000

cite: Please see "GC.bib" for an exhaustive BiBTeX file.
cite: Please clearly indicate Siesta version in published work: v4.1.5-1-g384057250
cite: This calculation has made use of the following articles
cite: which are encouraged to be cited in a published work.
        Primary SIESTA paper
          DOI: www.doi.org/10.1088/0953-8984/14/11/302
        Spin-orbit coupling (on-site approximation)
          DOI: www.doi.org/10.1088/0953-8984/19/19/489001


WARNING: alloc-realloc-dealloc name mismatch
         Name: atomlist isa
         Size:              -116. Bytes
         Node:     0
         Subsequent mismatches will not be reported
>> End of run:   1-FEB-2024  22:52:11
Job completed
