Siesta Version  : v4.1.5-1-g384057250
Architecture    : gcc
Compiler version: GNU Fortran (Ubuntu 11.3.0-1ubuntu1~22.04) 11.3.0
Compiler flags  : mpifort -O2 -fPIC -ftree-vectorize -fallow-argument-mismatch
PP flags        : -DFC_HAVE_ABORT -DMPI -DSIESTA__FLOOK -DSIESTA__METIS -DSIESTA__MUMPS -DCDF -DNCDF -DNCDF_4 -DNCDF_PARALLEL -DSIESTA__MRRR -DSIESTA__ELPA
Libraries       : libncdf.a libfdict.a  -lflookall -ldl -lnetcdff -lnetcdf -lhdf5_hl -lhdf5 -lhdf5_fortran -lz -lscalapack-openmpi -lopenblas -lmetis -lzmumps -lcmumps -ldmumps -lmumps_common -lpord -lsmumps -lesmumps -lscotch -lscotcherr -fopenmp -lelpa
PARALLEL version
NetCDF support
NetCDF-4 support
NetCDF-4 MPI-IO support
METIS ordering support
Lua support

* Running on 4 nodes in parallel
>> Start of run:  28-JUN-2023  20:07:36

                           ***********************       
                           *  WELCOME TO SIESTA  *       
                           ***********************       

reinit: Reading from standard input
reinit: Dumped input in INPUT_TMP.13764
************************** Dump of input data file ****************************
SystemLabel      GC
NumberOfAtoms    29
NumberOfSpecies  4
%block ChemicalSpeciesLabel
    1    8  O
    2    7  N
    3   14  Si
    4    1  H
%endblock ChemicalSpeciesLabel
# Single point calculation
MD.TypeOfRun                CG
MD.Steps                    0
SCF.MustConverge            F # In case it does not. There can be 2 very close atoms
AtomicCoordinatesFormat NotScaledCartesianAng
%block AtomicCoordinatesAndAtomicSpecies
1.043624880    3.939228610    0.000000000       1
-3.040641290   1.071078170    0.000000000       2
2.054601450    1.213582070    0.000000000       2
0.999014100    -1.732643800   0.000000000       2
-2.132351640   -1.812968220   0.000000000       2
3.860190550    -1.112298180   0.000000000       2
-1.236183220   1.152964460    0.000000000       3
-0.532924260   -0.939006270   0.000000000       3
0.635660470    2.374516770    0.000000000       3
2.245170240    -0.549967100   0.000000000       3
-3.449816660   -0.583665030   0.000000000       3
2.963714090    1.790992630    0.000000000       4
-4.845591350   -1.123549660   0.000000000       4
4.007020910    -2.152308560   0.000000000       4
4.772194380    -0.502318160   0.000000000       4
-2.265399090   -2.864605110   0.000000000       4
7.060212091    6.349665986    0.000000000       3
8.965096061    7.556304926    0.000000000       3
8.469341921    3.583331016    0.000000000       3
10.546812211   6.052548176    0.000000000       3
7.119834761    4.632238416    0.000000000       2
5.521077031    7.103343296    0.000000000       2
10.121637181   4.313168236    0.000000000       2
9.156440861    9.048458676    0.000000000       4
12.031180191   6.271278996    0.000000000       4
5.409731751    8.152538406    0.000000000       4
4.588519321    6.478429116    0.000000000       4
8.459115091    1.975219896    0.000000000       1
10.897063061   3.586476676    0.000000000       4
%endblock AtomicCoordinatesAndAtomicSpecies
%include ../../../Defaults.fdf
************************** End of input data file *****************************

reinit: -----------------------------------------------------------------------
reinit: System Name: 
reinit: -----------------------------------------------------------------------
reinit: System Label: GC
reinit: -----------------------------------------------------------------------

initatom: Reading input for the pseudopotentials and atomic orbitals ----------
Species number:   1 Atomic number:    8 Label: O
Species number:   2 Atomic number:    7 Label: N
Species number:   3 Atomic number:   14 Label: Si
Species number:   4 Atomic number:    1 Label: H

Ground state valence configuration:   2s02  2p04
Reading pseudopotential information in formatted form from O.psf

Pseudopotential generated from a relativistic atomic calculation

Valence configuration for pseudopotential generation:
2s( 2.00) rc: 0.45
2p( 4.00) rc: 0.92
3d( 0.00) rc: 2.24
4f( 0.00) rc: 0.25
Ground state valence configuration:   2s02  2p03
Reading pseudopotential information in formatted form from N.psf

Pseudopotential generated from a relativistic atomic calculation

Valence configuration for pseudopotential generation:
2s( 2.00) rc: 0.94
2p( 3.00) rc: 0.59
3d( 0.00) rc: 3.46
4f( 0.00) rc: 2.47
Ground state valence configuration:   3s02  3p02
Reading pseudopotential information in formatted form from Si.psf

Pseudopotential generated from a relativistic atomic calculation

Valence configuration for pseudopotential generation:
3s( 2.00) rc: 1.67
3p( 2.00) rc: 2.04
3d( 0.00) rc: 2.89
4f( 0.00) rc: 2.49
Ground state valence configuration:   1s01
Reading pseudopotential information in formatted form from H.psf

Pseudopotential generated from a relativistic atomic calculation

Valence configuration for pseudopotential generation:
1s( 1.00) rc: 0.01
2p( 0.00) rc: 0.60
3d( 0.00) rc: 1.99
4f( 0.00) rc: 2.49
For O, standard SIESTA heuristics set lmxkb to 3
 (one more than the basis l, including polarization orbitals).
Use PS.lmax or PS.KBprojectors blocks to override.
For N, standard SIESTA heuristics set lmxkb to 3
 (one more than the basis l, including polarization orbitals).
Use PS.lmax or PS.KBprojectors blocks to override.
For Si, standard SIESTA heuristics set lmxkb to 3
 (one more than the basis l, including polarization orbitals).
Use PS.lmax or PS.KBprojectors blocks to override.
For H, standard SIESTA heuristics set lmxkb to 2
 (one more than the basis l, including polarization orbitals).
Use PS.lmax or PS.KBprojectors blocks to override.

<basis_specs>
===============================================================================
O                    Z=   8    Mass=  16.000        Charge= 0.17977+309
Lmxo=1 Lmxkb= 3    BasisType=split      Semic=F
L=0  Nsemic=0  Cnfigmx=2
          i=1  nzeta=2  polorb=0  (2s)
            splnorm:   0.28000    
               vcte:    0.0000    
               rinn:    0.0000    
               qcoe:    0.0000    
               qyuk:    0.0000    
               qwid:   0.10000E-01
                rcs:    0.0000      0.0000    
            lambdas:    1.0000      1.0000    
L=1  Nsemic=0  Cnfigmx=2
          i=1  nzeta=2  polorb=1  (2p)
            splnorm:   0.28000    
               vcte:    0.0000    
               rinn:    0.0000    
               qcoe:    0.0000    
               qyuk:    0.0000    
               qwid:   0.10000E-01
                rcs:    0.0000      0.0000    
            lambdas:    1.0000      1.0000    
-------------------------------------------------------------------------------
L=0  Nkbl=1  erefs: 0.17977+309
L=1  Nkbl=1  erefs: 0.17977+309
L=2  Nkbl=1  erefs: 0.17977+309
L=3  Nkbl=1  erefs: 0.17977+309
===============================================================================
</basis_specs>

atom: Called for O                     (Z =   8)

read_vps: Pseudopotential generation method:
read_vps: ATM4.2.7  Troullier-Martins                       
Valence charge for ps generation:    6.00000

xc_check: Exchange-correlation functional:
xc_check: GGA Perdew, Burke & Ernzerhof 1996
V l=0 = -2*Zval/r beyond r=  1.1000
V l=1 = -2*Zval/r beyond r=  1.1000
V l=2 = -2*Zval/r beyond r=  2.2154
V l=3 = -2*Zval/r beyond r=  1.1000
All V_l potentials equal beyond r=  2.2154
This should be close to max(r_c) in ps generation
All pots = -2*Zval/r beyond r=  2.2154

VLOCAL1: 99.0% of the norm of Vloc inside      8.845 Ry
VLOCAL1: 99.9% of the norm of Vloc inside     20.157 Ry
atom: Maximum radius for 4*pi*r*r*local-pseudopot. charge    2.67231
atom: Maximum radius for r*vlocal+2*Zval:    2.32897
GHOST: No ghost state for L =  0
GHOST: No ghost state for L =  1
GHOST: No ghost state for L =  2
GHOST: No ghost state for L =  3

KBgen: Kleinman-Bylander projectors: 
   l= 0   rc=  2.243238   el= -1.759686   Ekb=**********   kbcos= -0.171774
   l= 1   rc=  2.328968   el= -0.663873   Ekb=-14.506792   kbcos= -0.519897
   l= 2   rc=  2.573941   el=  0.002031   Ekb= -1.137373   kbcos= -0.019581
   l= 3   rc=  2.606321   el=  0.003153   Ekb= -1.013546   kbcos= -0.003122

KBgen: Total number of Kleinman-Bylander projectors:   16
atom: -------------------------------------------------------------------------

atom: SANKEY-TYPE ORBITALS:
atom: Selected multiple-zeta basis: split     

SPLIT: Orbitals with angular momentum L= 0

SPLIT: Basis orbitals for state 2s

SPLIT: PAO cut-off radius determined from an
SPLIT: energy shift=  0.002000 Ry

   izeta = 1
                 lambda =    1.000000
                     rc =    4.243912
                 energy =   -1.758270
                kinetic =    3.286084
    potential(screened) =   -5.044353
       potential(ionic) =  -12.921184

   izeta = 2
                 rmatch =    2.187845
              splitnorm =    0.280000
                 energy =   -0.885018
                kinetic =    8.134434
    potential(screened) =   -9.019452
       potential(ionic) =  -17.710645

SPLIT: Orbitals with angular momentum L= 1

SPLIT: Basis orbitals for state 2p

SPLIT: PAO cut-off radius determined from an
SPLIT: energy shift=  0.002000 Ry

   izeta = 1
                 lambda =    1.000000
                     rc =    5.314825
                 energy =   -0.661986
                kinetic =    4.917472
    potential(screened) =   -5.579458
       potential(ionic) =  -13.236259

   izeta = 2
                 rmatch =    2.160663
              splitnorm =    0.280000
                 energy =   -0.068760
                kinetic =    9.183374
    potential(screened) =   -9.252135
       potential(ionic) =  -18.274251

POLgen: Perturbative polarization orbital with L=  2

POLgen: Polarization orbital for state 2p

   izeta = 1
                     rc =    5.314825
                 energy =    1.970580
                kinetic =    3.886128
    potential(screened) =   -1.915547
       potential(ionic) =   -7.749584
atom: Total number of Sankey-type orbitals: 13

atm_pop: Valence configuration (for local Pseudopot. screening):
 2s( 2.00)                                                            
 2p( 4.00)                                                            
Vna: chval, zval:    6.00000   6.00000

Vna:  Cut-off radius for the neutral-atom potential:   5.314825

atom: _________________________________________________________________________

<basis_specs>
===============================================================================
N                    Z=   7    Mass=  14.010        Charge= 0.17977+309
Lmxo=1 Lmxkb= 3    BasisType=split      Semic=F
L=0  Nsemic=0  Cnfigmx=2
          i=1  nzeta=2  polorb=0  (2s)
            splnorm:   0.28000    
               vcte:    0.0000    
               rinn:    0.0000    
               qcoe:    0.0000    
               qyuk:    0.0000    
               qwid:   0.10000E-01
                rcs:    0.0000      0.0000    
            lambdas:    1.0000      1.0000    
L=1  Nsemic=0  Cnfigmx=2
          i=1  nzeta=2  polorb=1  (2p)
            splnorm:   0.28000    
               vcte:    0.0000    
               rinn:    0.0000    
               qcoe:    0.0000    
               qyuk:    0.0000    
               qwid:   0.10000E-01
                rcs:    0.0000      0.0000    
            lambdas:    1.0000      1.0000    
-------------------------------------------------------------------------------
L=0  Nkbl=1  erefs: 0.17977+309
L=1  Nkbl=1  erefs: 0.17977+309
L=2  Nkbl=1  erefs: 0.17977+309
L=3  Nkbl=1  erefs: 0.17977+309
===============================================================================
</basis_specs>

atom: Called for N                     (Z =   7)

read_vps: Pseudopotential generation method:
read_vps: ATM4.2.7  Troullier-Martins                       
Valence charge for ps generation:    5.00000

xc_check: Exchange-correlation functional:
xc_check: GGA Perdew, Burke & Ernzerhof 1996
V l=0 = -2*Zval/r beyond r=  1.2889
V l=1 = -2*Zval/r beyond r=  1.2889
V l=2 = -2*Zval/r beyond r=  3.4178
V l=3 = -2*Zval/r beyond r=  2.4084
All V_l potentials equal beyond r=  3.3753
This should be close to max(r_c) in ps generation
All pots = -2*Zval/r beyond r=  3.4178

VLOCAL1: 99.0% of the norm of Vloc inside      3.810 Ry
VLOCAL1: 99.9% of the norm of Vloc inside      8.683 Ry
atom: Maximum radius for 4*pi*r*r*local-pseudopot. charge    4.02088
atom: Maximum radius for r*vlocal+2*Zval:    3.54838
GHOST: No ghost state for L =  0
GHOST: No ghost state for L =  1
GHOST: No ghost state for L =  2
GHOST: No ghost state for L =  3

KBgen: Kleinman-Bylander projectors: 
   l= 0   rc=  3.417763   el= -1.365098   Ekb= -4.433130   kbcos= -0.707855
   l= 1   rc=  3.375302   el= -0.521201   Ekb=-13.264039   kbcos= -0.535594
   l= 2   rc=  3.872880   el=  0.001991   Ekb= -0.641094   kbcos= -0.062456
   l= 3   rc=  3.970931   el=  0.003093   Ekb= -0.474517   kbcos= -0.018236

KBgen: Total number of Kleinman-Bylander projectors:   16
atom: -------------------------------------------------------------------------

atom: SANKEY-TYPE ORBITALS:
atom: Selected multiple-zeta basis: split     

SPLIT: Orbitals with angular momentum L= 0

SPLIT: Basis orbitals for state 2s

SPLIT: PAO cut-off radius determined from an
SPLIT: energy shift=  0.002000 Ry

   izeta = 1
                 lambda =    1.000000
                     rc =    4.730425
                 energy =   -1.363399
                kinetic =    1.245246
    potential(screened) =   -2.608645
       potential(ionic) =   -8.121105

   izeta = 2
                 rmatch =    2.531849
              splitnorm =    0.280000
                 energy =   -0.959908
                kinetic =    2.409435
    potential(screened) =   -3.369343
       potential(ionic) =   -9.427975

SPLIT: Orbitals with angular momentum L= 1

SPLIT: Basis orbitals for state 2p

SPLIT: PAO cut-off radius determined from an
SPLIT: energy shift=  0.002000 Ry

   izeta = 1
                 lambda =    1.000000
                     rc =    5.924108
                 energy =   -0.519262
                kinetic =    3.672940
    potential(screened) =   -4.192202
       potential(ionic) =   -9.518354

   izeta = 2
                 rmatch =    2.531849
              splitnorm =    0.280000
                 energy =   -0.104258
                kinetic =    6.807538
    potential(screened) =   -6.911796
       potential(ionic) =  -13.149920

POLgen: Perturbative polarization orbital with L=  2

POLgen: Polarization orbital for state 2p

   izeta = 1
                     rc =    5.924108
                 energy =    1.427508
                kinetic =    2.872379
    potential(screened) =   -1.444871
       potential(ionic) =   -5.563644
atom: Total number of Sankey-type orbitals: 13

atm_pop: Valence configuration (for local Pseudopot. screening):
 2s( 2.00)                                                            
 2p( 3.00)                                                            
Vna: chval, zval:    5.00000   5.00000

Vna:  Cut-off radius for the neutral-atom potential:   5.924108

atom: _________________________________________________________________________

<basis_specs>
===============================================================================
Si                   Z=  14    Mass=  28.090        Charge= 0.17977+309
Lmxo=1 Lmxkb= 3    BasisType=split      Semic=F
L=0  Nsemic=0  Cnfigmx=3
          i=1  nzeta=2  polorb=0  (3s)
            splnorm:   0.28000    
               vcte:    0.0000    
               rinn:    0.0000    
               qcoe:    0.0000    
               qyuk:    0.0000    
               qwid:   0.10000E-01
                rcs:    0.0000      0.0000    
            lambdas:    1.0000      1.0000    
L=1  Nsemic=0  Cnfigmx=3
          i=1  nzeta=2  polorb=1  (3p)
            splnorm:   0.28000    
               vcte:    0.0000    
               rinn:    0.0000    
               qcoe:    0.0000    
               qyuk:    0.0000    
               qwid:   0.10000E-01
                rcs:    0.0000      0.0000    
            lambdas:    1.0000      1.0000    
-------------------------------------------------------------------------------
L=0  Nkbl=1  erefs: 0.17977+309
L=1  Nkbl=1  erefs: 0.17977+309
L=2  Nkbl=1  erefs: 0.17977+309
L=3  Nkbl=1  erefs: 0.17977+309
===============================================================================
</basis_specs>

atom: Called for Si                    (Z =  14)

read_vps: Pseudopotential generation method:
read_vps: ATM4.2.7  Troullier-Martins                       
Valence charge for ps generation:    4.00000

xc_check: Exchange-correlation functional:
xc_check: GGA Perdew, Burke & Ernzerhof 1996
V l=0 = -2*Zval/r beyond r=  2.7826
V l=1 = -2*Zval/r beyond r=  2.7826
V l=2 = -2*Zval/r beyond r=  2.9253
V l=3 = -2*Zval/r beyond r=  2.7826
All V_l potentials equal beyond r=  2.8530
This should be close to max(r_c) in ps generation
All pots = -2*Zval/r beyond r=  2.9253

VLOCAL1: 99.0% of the norm of Vloc inside      5.333 Ry
VLOCAL1: 99.9% of the norm of Vloc inside     12.154 Ry
atom: Maximum radius for 4*pi*r*r*local-pseudopot. charge    3.39869
atom: Maximum radius for r*vlocal+2*Zval:    2.96205
GHOST: No ghost state for L =  0
GHOST: No ghost state for L =  1
GHOST: No ghost state for L =  2
GHOST: No ghost state for L =  3

KBgen: Kleinman-Bylander projectors: 
   l= 0   rc=  3.075247   el= -0.794092   Ekb=  5.879390   kbcos=  0.167461
   l= 1   rc=  3.153101   el= -0.300068   Ekb=  2.642817   kbcos=  0.058301
   l= 2   rc=  3.273594   el=  0.001958   Ekb= -1.185135   kbcos= -0.104411
   l= 3   rc=  3.232927   el=  0.003046   Ekb= -0.497174   kbcos= -0.015889

KBgen: Total number of Kleinman-Bylander projectors:   16
atom: -------------------------------------------------------------------------

atom: SANKEY-TYPE ORBITALS:
atom: Selected multiple-zeta basis: split     

SPLIT: Orbitals with angular momentum L= 0

SPLIT: Basis orbitals for state 3s

SPLIT: PAO cut-off radius determined from an
SPLIT: energy shift=  0.002000 Ry

   izeta = 1
                 lambda =    1.000000
                     rc =    6.429618
                 energy =   -0.792283
                kinetic =    0.525293
    potential(screened) =   -1.317576
       potential(ionic) =   -3.744923

   izeta = 2
                 rmatch =    3.998416
              splitnorm =    0.280000
                 energy =   -0.583081
                kinetic =    1.069570
    potential(screened) =   -1.652651
       potential(ionic) =   -4.235185

SPLIT: Orbitals with angular momentum L= 1

SPLIT: Basis orbitals for state 3p

SPLIT: PAO cut-off radius determined from an
SPLIT: energy shift=  0.002000 Ry

   izeta = 1
                 lambda =    1.000000
                     rc =    8.464845
                 energy =   -0.298236
                kinetic =    0.785360
    potential(screened) =   -1.083596
       potential(ionic) =   -3.273779

   izeta = 2
                 rmatch =    4.587816
              splitnorm =    0.280000
                 energy =   -0.131871
                kinetic =    1.403687
    potential(screened) =   -1.535557
       potential(ionic) =   -4.015310

POLgen: Perturbative polarization orbital with L=  2

POLgen: Polarization orbital for state 3p

   izeta = 1
                     rc =    8.464845
                 energy =    0.321949
                kinetic =    1.055677
    potential(screened) =   -0.733728
       potential(ionic) =   -2.672950
atom: Total number of Sankey-type orbitals: 13

atm_pop: Valence configuration (for local Pseudopot. screening):
 3s( 2.00)                                                            
 3p( 2.00)                                                            
Vna: chval, zval:    4.00000   4.00000

Vna:  Cut-off radius for the neutral-atom potential:   8.464845

atom: _________________________________________________________________________

<basis_specs>
===============================================================================
H                    Z=   1    Mass=  1.0100        Charge= 0.17977+309
Lmxo=0 Lmxkb= 2    BasisType=split      Semic=F
L=0  Nsemic=0  Cnfigmx=1
          i=1  nzeta=2  polorb=1  (1s)
            splnorm:   0.62000    
               vcte:    0.0000    
               rinn:    0.0000    
               qcoe:    0.0000    
               qyuk:    0.0000    
               qwid:   0.10000E-01
                rcs:    0.0000      0.0000    
            lambdas:    1.0000      1.0000    
-------------------------------------------------------------------------------
L=0  Nkbl=1  erefs: 0.17977+309
L=1  Nkbl=1  erefs: 0.17977+309
L=2  Nkbl=1  erefs: 0.17977+309
===============================================================================
</basis_specs>

atom: Called for H                     (Z =   1)

read_vps: Pseudopotential generation method:
read_vps: ATM4.2.7  Troullier-Martins                       
Valence charge for ps generation:    1.00000

xc_check: Exchange-correlation functional:
xc_check: GGA Perdew, Burke & Ernzerhof 1996
V l=0 = -2*Zval/r beyond r=  0.0098
V l=1 = -2*Zval/r beyond r=  0.5817
V l=2 = -2*Zval/r beyond r=  1.9372
All V_l potentials equal beyond r=  1.9372
This should be close to max(r_c) in ps generation
All pots = -2*Zval/r beyond r=  1.9372

VLOCAL1: 99.0% of the norm of Vloc inside     11.567 Ry
VLOCAL1: 99.9% of the norm of Vloc inside     26.362 Ry
atom: Maximum radius for 4*pi*r*r*local-pseudopot. charge    2.25106
atom: Maximum radius for r*vlocal+2*Zval:    1.91306
GHOST: No ghost state for L =  0
GHOST: No ghost state for L =  1
GHOST: No ghost state for L =  2

KBgen: Kleinman-Bylander projectors: 
   l= 0   rc=  2.036604   el= -0.477180   Ekb= -6.081590   kbcos= -0.277285
   l= 1   rc=  2.195416   el=  0.001076   Ekb= -0.926943   kbcos= -0.034643
   l= 2   rc=  2.251056   el=  0.002010   Ekb= -0.130941   kbcos= -0.009788

KBgen: Total number of Kleinman-Bylander projectors:    9
atom: -------------------------------------------------------------------------

atom: SANKEY-TYPE ORBITALS:
atom: Selected multiple-zeta basis: split     

SPLIT: Orbitals with angular momentum L= 0

SPLIT: Basis orbitals for state 1s

SPLIT: PAO cut-off radius determined from an
SPLIT: energy shift=  0.002000 Ry

   izeta = 1
                 lambda =    1.000000
                     rc =    6.518340
                 energy =   -0.475305
                kinetic =    0.912139
    potential(screened) =   -1.387444
       potential(ionic) =   -1.907295

   izeta = 2
                 rmatch =    2.141150
              splitnorm =    0.620000
                 energy =    0.566467
                kinetic =    3.772856
    potential(screened) =   -3.206389
       potential(ionic) =   -3.759093

POLgen: Perturbative polarization orbital with L=  1

POLgen: Polarization orbital for state 1s

   izeta = 1
                     rc =    6.518340
                 energy =    0.533861
                kinetic =    1.121086
    potential(screened) =   -0.587225
       potential(ionic) =   -1.053027
atom: Total number of Sankey-type orbitals:  5

atm_pop: Valence configuration (for local Pseudopot. screening):
 1s( 1.00)                                                            
Vna: chval, zval:    1.00000   1.00000

Vna:  Cut-off radius for the neutral-atom potential:   6.518340

atom: _________________________________________________________________________

prinput: Basis input ----------------------------------------------------------

PAO.BasisType split     

%block ChemicalSpeciesLabel
    1    8 O                       # Species index, atomic number, species label
    2    7 N                       # Species index, atomic number, species label
    3   14 Si                      # Species index, atomic number, species label
    4    1 H                       # Species index, atomic number, species label
%endblock ChemicalSpeciesLabel

%block PAO.Basis                 # Define Basis set
O                     2                    # Species label, number of l-shells
 n=2   0   2                         # n, l, Nzeta 
   4.244      2.188   
   1.000      1.000   
 n=2   1   2 P   1                   # n, l, Nzeta, Polarization, NzetaPol
   5.315      2.161   
   1.000      1.000   
N                     2                    # Species label, number of l-shells
 n=2   0   2                         # n, l, Nzeta 
   4.730      2.532   
   1.000      1.000   
 n=2   1   2 P   1                   # n, l, Nzeta, Polarization, NzetaPol
   5.924      2.532   
   1.000      1.000   
Si                    2                    # Species label, number of l-shells
 n=3   0   2                         # n, l, Nzeta 
   6.430      3.998   
   1.000      1.000   
 n=3   1   2 P   1                   # n, l, Nzeta, Polarization, NzetaPol
   8.465      4.588   
   1.000      1.000   
H                     1                    # Species label, number of l-shells
 n=1   0   2 P   1                   # n, l, Nzeta, Polarization, NzetaPol
   6.518      2.141   
   1.000      1.000   
%endblock PAO.Basis

prinput: ----------------------------------------------------------------------

Dumping basis to NetCDF file O.ion.nc
Dumping basis to NetCDF file N.ion.nc
Dumping basis to NetCDF file Si.ion.nc
Dumping basis to NetCDF file H.ion.nc
coor:   Atomic-coordinates input format  =     Cartesian coordinates
coor:                                          (in Angstroms)

siesta: Atomic coordinates (Bohr) and species
siesta:      1.97217   7.44407   0.00000  1        1
siesta:     -5.74598   2.02405   0.00000  2        2
siesta:      3.88264   2.29334   0.00000  2        3
siesta:      1.88786  -3.27422   0.00000  2        4
siesta:     -4.02956  -3.42601   0.00000  2        5
siesta:      7.29471  -2.10194   0.00000  2        6
siesta:     -2.33605   2.17879   0.00000  3        7
siesta:     -1.00708  -1.77447   0.00000  3        8
siesta:      1.20122   4.48719   0.00000  3        9
siesta:      4.24276  -1.03929   0.00000  3       10
siesta:     -6.51921  -1.10297   0.00000  3       11
siesta:      5.60061   3.38449   0.00000  4       12
siesta:     -9.15684  -2.12320   0.00000  4       13
siesta:      7.57218  -4.06728   0.00000  4       14
siesta:      9.01814  -0.94924   0.00000  4       15
siesta:     -4.28099  -5.41332   0.00000  4       16
siesta:     13.34187  11.99913   0.00000  3       17
siesta:     16.94158  14.27935   0.00000  3       18
siesta:     16.00474   6.77152   0.00000  3       19
siesta:     19.93059  11.43766   0.00000  3       20
siesta:     13.45454   8.75367   0.00000  2       21
siesta:     10.43333  13.42338   0.00000  2       22
siesta:     19.12713   8.15071   0.00000  2       23
siesta:     17.30317  17.09912   0.00000  4       24
siesta:     22.73564  11.85100   0.00000  4       25
siesta:     10.22292  15.40607   0.00000  4       26
siesta:      8.67105  12.24246   0.00000  4       27
siesta:     15.98542   3.73263   0.00000  1       28
siesta:     20.59247   6.77746   0.00000  4       29

siesta: Automatic unit cell vectors (Ang):
siesta:   26.153031    0.000000    0.000000
siesta:    0.000000   20.692953    0.000000
siesta:    0.000000    0.000000    9.854683

siesta: System type = molecule  

initatomlists: Number of atoms, orbitals, and projectors:     29   297   394

siesta: ******************** Simulation parameters ****************************
siesta:
siesta: The following are some of the parameters of the simulation.
siesta: A complete list of the parameters used, including default values,
siesta: can be found in file out.fdf
siesta:
redata: Spin configuration                          = spin-orbit
redata: Number of spin components                   = 8
redata: Time-Reversal Symmetry                      = F
redata: Spin spiral                                 = F
############################################################
This spin-orbit implementation uses a local approximation.
From 4.2 and onwards the full non-local approximation is implemented
You are strongly advised to use >=4.2 versions!
############################################################
redata: Long output                                 =   F
redata: Number of Atomic Species                    =        4
redata: Charge density info will appear in .RHO file
redata: Write Mulliken Pop.                         = Atomic and Orbital charges
redata: Matel table size (NRTAB)                    =     1024
redata: Mesh Cutoff                                 =   340.0000 Ry
redata: Net charge of the system                    =     0.0000 |e|
redata: Min. number of SCF Iter                     =        1
redata: Max. number of SCF Iter                     =      200
redata: SCF mix quantity                            = Hamiltonian
redata: Mix DM or H after convergence               =   F
redata: Recompute H after scf cycle                 =   F
redata: Mix DM in first SCF step                    =   T
redata: Write Pulay info on disk                    =   F
redata: New DM Occupancy tolerance                  = 0.000000000001
redata: No kicks to SCF
redata: DM Mixing Weight for Kicks                  =     0.5000
redata: Require Harris convergence for SCF          =   F
redata: Harris energy tolerance for SCF             =     0.000100 eV
redata: Require DM convergence for SCF              =   T
redata: DM tolerance for SCF                        =     0.000008
redata: Require EDM convergence for SCF             =   F
redata: EDM tolerance for SCF                       =     0.001000 eV
redata: Require H convergence for SCF               =   T
redata: Hamiltonian tolerance for SCF               =     0.000001 eV
redata: Require (free) Energy convergence for SCF   =   F
redata: (free) Energy tolerance for SCF             =     0.000100 eV
redata: Using Saved Data (generic)                  =   F
redata: Use continuation files for DM               =   F
redata: Neglect nonoverlap interactions             =   F
redata: Method of Calculation                       = Diagonalization
redata: Electronic Temperature                      =   299.9978 K
redata: Fix the spin of the system                  =   F
redata: Dynamics option                             = Single-point calculation
mix.SCF: Pulay mixing                            = Pulay
mix.SCF:    Variant                              = stable
mix.SCF:    History steps                        = 6
mix.SCF:    Linear mixing weight                 =     0.250000
mix.SCF:    Mixing weight                        =     0.250000
mix.SCF:    SVD condition                        = 0.1000E-07
mix.SCF:    Restart steps                        = 24
mix.SCF:    Restart save steps                   = 3
mix.SCF: Spin-component mixing                   all
redata: Save all siesta data in one NC              =   F
redata: ***********************************************************************

%block SCF.Mixers
  Pulay
%endblock SCF.Mixers

%block SCF.Mixer.Pulay
  # Mixing method
  method pulay
  variant stable

  # Mixing options
  weight 0.2500
  weight.linear 0.2500
  history 6
  restart 24
  restart.save 3
%endblock SCF.Mixer.Pulay

DM_history_depth set to one: no extrapolation allowed by default for geometry relaxation
Size of DM history Fstack: 1
Total number of electrons:    98.000000
Total ionic charge:    98.000000

* ProcessorY, Blocksize:    2  24


* Orbital distribution balance (max,min):    81    72


Time-reversal symmetry not used.

siesta: k-grid: Number of k-points =     1
siesta: k-grid: Cutoff (effective) =     4.927 Ang
siesta: k-grid: Supercell and displacements
siesta: k-grid:    1   0   0      0.000
siesta: k-grid:    0   1   0      0.000
siesta: k-grid:    0   0   1      0.000

diag: Algorithm                                     = ELPA-1stage
diag: Parallel over k                               =   F
diag: Use parallel 2D distribution                  =   T
diag: Parallel block-size                           = 24
diag: Parallel distribution                         =     2 x     2
diag: Used triangular part                          = Lower
diag: Absolute tolerance                            =  0.100E-15
diag: Orthogonalization factor                      =  0.100E-05
diag: Memory factor                                 =  1.0000


ts: **************************************************************
ts: Save H and S matrices                           =    F
ts: Save DM and EDM matrices                        =    F
ts: Only save the overlap matrix S                  =    F
ts: **************************************************************

************************ Begin: TS CHECKS AND WARNINGS ************************
************************ End: TS CHECKS AND WARNINGS **************************


                     ====================================
                        Single-point calculation
                     ====================================

outcoor: Atomic coordinates (Ang):                          
    1.04362488    3.93922861    0.00000000   1       1  O
   -3.04064129    1.07107817    0.00000000   2       2  N
    2.05460145    1.21358207    0.00000000   2       3  N
    0.99901410   -1.73264380    0.00000000   2       4  N
   -2.13235164   -1.81296822    0.00000000   2       5  N
    3.86019055   -1.11229818    0.00000000   2       6  N
   -1.23618322    1.15296446    0.00000000   3       7  Si
   -0.53292426   -0.93900627    0.00000000   3       8  Si
    0.63566047    2.37451677    0.00000000   3       9  Si
    2.24517024   -0.54996710    0.00000000   3      10  Si
   -3.44981666   -0.58366503    0.00000000   3      11  Si
    2.96371409    1.79099263    0.00000000   4      12  H
   -4.84559135   -1.12354966    0.00000000   4      13  H
    4.00702091   -2.15230856    0.00000000   4      14  H
    4.77219438   -0.50231816    0.00000000   4      15  H
   -2.26539909   -2.86460511    0.00000000   4      16  H
    7.06021209    6.34966599    0.00000000   3      17  Si
    8.96509606    7.55630493    0.00000000   3      18  Si
    8.46934192    3.58333102    0.00000000   3      19  Si
   10.54681221    6.05254818    0.00000000   3      20  Si
    7.11983476    4.63223842    0.00000000   2      21  N
    5.52107703    7.10334330    0.00000000   2      22  N
   10.12163718    4.31316824    0.00000000   2      23  N
    9.15644086    9.04845868    0.00000000   4      24  H
   12.03118019    6.27127900    0.00000000   4      25  H
    5.40973175    8.15253841    0.00000000   4      26  H
    4.58851932    6.47842912    0.00000000   4      27  H
    8.45911509    1.97521990    0.00000000   1      28  O
   10.89706306    3.58647668    0.00000000   4      29  H

outcell: Unit cell vectors (Ang):
       26.153031    0.000000    0.000000
        0.000000   20.692953    0.000000
        0.000000    0.000000    9.854683

outcell: Cell vector modules (Ang)   :   26.153031   20.692953    9.854683
outcell: Cell angles (23,13,12) (deg):     90.0000     90.0000     90.0000
outcell: Cell volume (Ang**3)        :   5333.1915
<dSpData1D:S at geom step 0
  <sparsity:sparsity for geom step 0
    nrows_g=297 nrows=81 sparsity=.1561 nnzs=13771, refcount: 8>
  <dData1D:(new from dSpData1D) n=13771, refcount: 1>
refcount: 1>
new_DM -- step:     1
Initializing Density Matrix...
DM filled with atomic data:
<dSpData2D:DM initialized from atoms
  <sparsity:sparsity for geom step 0
    nrows_g=297 nrows=81 sparsity=.1561 nnzs=13771, refcount: 9>
  <dData2D:DM n=13771 m=8, refcount: 1>
refcount: 1>
     spin moment: S , {S} =   56.00000   0.00000   0.00000  56.00000
No. of atoms with KB's overlaping orbs in proc 0. Max # of overlaps:      29     142

Initializing spin-orbit part of the Hamiltonian
  Adding spin-orbit effects for O 
  Adding spin-orbit effects for N 
  Adding spin-orbit effects for Si
  Adding spin-orbit effects for H 


New grid distribution:   1
           1       1:  150    1:   60    1:   30
           2       1:  150    1:   60   31:   60
           3       1:  150   61:  120    1:   30
           4       1:  150   61:  120   31:   60

InitMesh: MESH =   300 x   240 x   120 =     8640000
InitMesh: (bp) =   150 x   120 x    60 =     1080000
InitMesh: Mesh cutoff (required, used) =   340.000   363.664 Ry
ExtMesh (bp) on 0 =   254 x   164 x   142 =     5915152
New grid distribution:   2
           1      49:  150    1:   33    1:   60
           2       1:   48    1:   33    1:   60
           3      49:  150   34:  120    1:   60
           4       1:   48   34:  120    1:   60
New grid distribution:   3
           1      52:  150    1:   37    1:   60
           2       1:   51    1:   39    1:   60
           3      52:  150   38:  120    1:   60
           4       1:   51   40:  120    1:   60
Setting up quadratic distribution...
ExtMesh (bp) on 0 =   206 x   137 x   172 =     4854184
PhiOnMesh: Number of (b)points on node 0 =               201960
PhiOnMesh: nlist on node 0 =              2588925

stepf: Fermi-Dirac step function

siesta: Program's energy decomposition (eV):
siesta: Ebs     =      -618.340775
siesta: Eions   =      3585.165840
siesta: Ena     =       382.019114
siesta: Ekin    =      3370.613124
siesta: Enl     =     -3299.096931
siesta: Eso     =        -0.003410
siesta: Edftu   =         0.000000
siesta: DEna    =       153.755745
siesta: DUscf   =        81.807527
siesta: DUext   =         0.000000
siesta: Exc     =     -1204.448955
siesta: eta*DQ  =         0.000000
siesta: Emadel  =         0.000000
siesta: Emeta   =         0.000000
siesta: Emolmec =         0.000000
siesta: Ekinion =         0.000000
siesta: Eharris =     -4020.760786
siesta: Etot    =     -4100.519626
siesta: FreeEng =     -4100.521047

        iscf     Eharris(eV)        E_KS(eV)     FreeEng(eV)     dDmax    Ef(eV) dHmax(eV)
   scf:    1    -4020.760786    -4100.519626    -4100.521047  0.965048 -4.904567 21.818876
     spin moment: S , {S} =    2.00727  -0.00000   0.00000   2.00727
timer: Routine,Calls,Time,% = IterSCF        1      12.811  17.70
   scf:    2    -4147.630286    -4136.125319    -4136.127003  0.452805 -4.219481 11.698190
     spin moment: S , {S} =    1.98996   0.00000   0.00000   1.98996
   scf:    3    -4108.884691    -4133.885540    -4133.899238  0.422801 -4.325528 11.752848
     spin moment: S , {S} =    2.04198  -0.00000  -0.00000   2.04198
   scf:    4    -4149.711263    -4145.093804    -4145.093804  0.312876 -3.899451  6.511390
     spin moment: S , {S} =    0.00010  -0.00000  -0.00000   0.00010
   scf:    5    -4146.418173    -4145.861278    -4145.861278  0.036205 -3.669085  4.222728
     spin moment: S , {S} =    0.00006   0.00000   0.00000   0.00006
   scf:    6    -4146.647068    -4146.263831    -4146.263831  0.024442 -3.519068  2.063360
     spin moment: S , {S} =    0.00003   0.00000  -0.00000   0.00003
   scf:    7    -4146.616426    -4146.436978    -4146.436978  0.021169 -3.731897  0.887838
     spin moment: S , {S} =    0.00001  -0.00000  -0.00000   0.00001
   scf:    8    -4146.556693    -4146.494882    -4146.494882  0.012325 -3.662404  0.499924
     spin moment: S , {S} =    0.00000  -0.00000  -0.00000   0.00000
   scf:    9    -4146.533117    -4146.513328    -4146.513328  0.006492 -3.778028  0.369928
     spin moment: S , {S} =    0.00000  -0.00000  -0.00000   0.00000
   scf:   10    -4146.563756    -4146.532761    -4146.532761  0.020892 -3.792290  0.220104
     spin moment: S , {S} =    0.00000   0.00000   0.00000  -0.00000
   scf:   11    -4146.536409    -4146.534563    -4146.534563  0.005636 -3.782924  0.056757
     spin moment: S , {S} =    0.00000   0.00000   0.00000  -0.00000
   scf:   12    -4146.535551    -4146.535070    -4146.535070  0.001059 -3.777032  0.024767
     spin moment: S , {S} =    0.00000   0.00000   0.00000   0.00000
   scf:   13    -4146.535504    -4146.535284    -4146.535284  0.001305 -3.775425  0.015789
     spin moment: S , {S} =    0.00000   0.00000   0.00000   0.00000
   scf:   14    -4146.535524    -4146.535397    -4146.535397  0.001138 -3.773593  0.011614
     spin moment: S , {S} =    0.00000   0.00000   0.00000   0.00000
   scf:   15    -4146.535504    -4146.535447    -4146.535447  0.000941 -3.774058  0.008730
     spin moment: S , {S} =    0.00000   0.00000   0.00000   0.00000
   scf:   16    -4146.535528    -4146.535482    -4146.535482  0.001100 -3.773495  0.005633
     spin moment: S , {S} =    0.00000   0.00000   0.00000   0.00000
   scf:   17    -4146.535502    -4146.535491    -4146.535491  0.000500 -3.773560  0.004196
     spin moment: S , {S} =    0.00000   0.00000   0.00000   0.00000
   scf:   18    -4146.535501    -4146.535495    -4146.535495  0.000375 -3.773763  0.002503
     spin moment: S , {S} =    0.00000   0.00000   0.00000   0.00000
   scf:   19    -4146.535500    -4146.535497    -4146.535497  0.000283 -3.773908  0.001493
     spin moment: S , {S} =    0.00000   0.00000   0.00000   0.00000
   scf:   20    -4146.535500    -4146.535498    -4146.535498  0.000195 -3.773899  0.000797
     spin moment: S , {S} =    0.00000   0.00000   0.00000   0.00000
   scf:   21    -4146.535499    -4146.535499    -4146.535499  0.000134 -3.773877  0.000296
     spin moment: S , {S} =    0.00000   0.00000   0.00000   0.00000
   scf:   22    -4146.535499    -4146.535499    -4146.535499  0.000049 -3.773844  0.000114
     spin moment: S , {S} =    0.00000   0.00000   0.00000   0.00000
   scf:   23    -4146.535499    -4146.535499    -4146.535499  0.000013 -3.773838  0.000072
     spin moment: S , {S} =    0.00000   0.00000   0.00000   0.00000
   scf:   24    -4146.535499    -4146.535499    -4146.535499  0.000006 -3.773832  0.000035
     spin moment: S , {S} =    0.00000   0.00000   0.00000   0.00000
mix: Pulay -- resetting history
   scf:   25    -4146.535499    -4146.535499    -4146.535499  0.000003 -3.773830  0.000024
     spin moment: S , {S} =    0.00000   0.00000   0.00000   0.00000
   scf:   26    -4146.535499    -4146.535499    -4146.535499  0.000001 -3.773828  0.000018
     spin moment: S , {S} =    0.00000   0.00000   0.00000   0.00000
   scf:   27    -4146.535499    -4146.535499    -4146.535499  0.000001 -3.773827  0.000011
     spin moment: S , {S} =    0.00000   0.00000   0.00000  -0.00000
   scf:   28    -4146.535499    -4146.535499    -4146.535499  0.000001 -3.773827  0.000006
     spin moment: S , {S} =    0.00000   0.00000   0.00000  -0.00000
   scf:   29    -4146.535499    -4146.535499    -4146.535499  0.000001 -3.773827  0.000004
     spin moment: S , {S} =    0.00000   0.00000   0.00000  -0.00000
   scf:   30    -4146.535499    -4146.535499    -4146.535499  0.000000 -3.773827  0.000002
     spin moment: S , {S} =    0.00000   0.00000   0.00000  -0.00000
   scf:   31    -4146.535499    -4146.535499    -4146.535499  0.000000 -3.773827  0.000001
     spin moment: S , {S} =    0.00000   0.00000   0.00000  -0.00000
   scf:   32    -4146.535499    -4146.535499    -4146.535499  0.000000 -3.773827  0.000001
     spin moment: S , {S} =    0.00000   0.00000   0.00000  -0.00000

SCF Convergence by DM+H criterion
max |DM_out - DM_in|         :     0.0000001557
max |H_out - H_in|      (eV) :     0.0000008188
SCF cycle converged after 32 iterations

Using DM_out to compute the final energy and forces
No. of atoms with KB's overlaping orbs in proc 0. Max # of overlaps:      29     142

siesta: E_KS(eV) =            -4146.5355

siesta: E_KS - E_eggbox =     -4146.5355
     spin moment: S , {S} =    0.00000   0.00000   0.00000  -0.00000

siesta: Atomic forces (eV/Ang):
     1    0.392222    1.340489   -0.000000
     2    0.005554    0.024030   -0.000000
     3    0.762151   -0.379286   -0.000000
     4    0.732746   -0.023644    0.000000
     5    0.045985   -0.095941    0.000000
     6    1.798017    0.664426    0.000000
     7    0.043135   -0.255472   -0.000000
     8   -0.413133    0.287115    0.000000
     9   -0.184256    1.266150    0.000000
    10   -1.023015    0.361033   -0.000000
    11   -0.022480   -0.020552   -0.000000
    12   -0.353723   -0.120861   -0.000000
    13   -0.007369    0.004292    0.000000
    14    0.331162   -0.204136   -0.000000
    15   -1.251166   -0.924791    0.000000
    16   -0.068777    0.237743   -0.000000
    17    1.011584   -1.106782   -0.000000
    18   -0.216157    0.200457    0.000000
    19   -0.190567   -1.253101    0.000000
    20   -0.013274   -0.417413   -0.000000
    21   -0.307627    1.026723    0.000000
    22   -2.187126   -0.896595   -0.000000
    23    0.315825    0.557884   -0.000000
    24    0.001339    0.121056   -0.000000
    25    0.074751    0.110323    0.000000
    26   -0.270663   -0.167014   -0.000000
    27    1.687532    1.341545    0.000000
    28   -0.524709    2.157059    0.000000
    29   -0.056483    0.138247    0.000000
----------------------------------------
   Tot    0.111475    3.972985    0.000000
----------------------------------------
   Max    2.187126
   Res    0.623324    sqrt( Sum f_i^2 / 3N )
----------------------------------------
   Max    2.187126    constrained

Stress tensor Voigt[x,y,z,yz,xz,xy] (kbar):       -0.06        1.48       -0.11        0.00       -0.00        1.40
(Free)E + p*V (eV/cell)    -4147.9997
Target enthalpy (eV/cell)    -4146.5355

mulliken: Atomic and Orbital Populations:

Species: O                   

Atom      Orb        Charge      Spin       Svec
----------------------------------------------------------------
    1  1 2s         1.74649   0.00000     -0.000   0.000  -0.000
    1  2 2s         0.06711   0.00000      0.000  -0.000   0.000
    1  3 2py        1.42955   0.00000      0.000  -0.000  -0.000
    1  4 2pz        1.54661   0.00000      0.000  -0.000  -0.000
    1  5 2px        1.62652   0.00000     -0.000   0.000  -0.000
    1  6 2py        0.03778   0.00000     -0.000   0.000   0.000
    1  7 2pz       -0.00641   0.00000     -0.000  -0.000   0.000
    1  8 2px        0.00438   0.00000      0.000   0.000   0.000
    1  9 3Pdxy      0.00697   0.00000     -0.000   0.000   0.000
    1 10 3Pdyz      0.00897   0.00000     -0.000   0.000   0.000
    1 11 3Pdz2      0.00158   0.00000      0.000  -0.000  -0.000
    1 12 3Pdxz      0.00037   0.00000      0.000   0.000   0.000
    1 13 3Pdx2-y2   0.00691   0.00000     -0.000  -0.000   0.000
    1     Total     6.47682   0.00000      0.000  -0.000  -0.000

   28  1 2s         1.74332   0.00000      0.000  -0.000   0.000
   28  2 2s         0.06871   0.00000     -0.000   0.000  -0.000
   28  3 2py        1.41175   0.00000      0.000   0.000  -0.000
   28  4 2pz        1.54564   0.00000      0.000  -0.000  -0.000
   28  5 2px        1.64545   0.00000      0.000   0.000  -0.000
   28  6 2py        0.04072   0.00000     -0.000  -0.000   0.000
   28  7 2pz       -0.00445   0.00000     -0.000   0.000   0.000
   28  8 2px        0.00988   0.00000      0.000  -0.000   0.000
   28  9 3Pdxy      0.00636   0.00000      0.000  -0.000   0.000
   28 10 3Pdyz      0.00967   0.00000     -0.000   0.000   0.000
   28 11 3Pdz2      0.00125   0.00000      0.000  -0.000  -0.000
   28 12 3Pdxz     -0.00018   0.00000     -0.000   0.000  -0.000
   28 13 3Pdx2-y2   0.00769   0.00000      0.000  -0.000  -0.000
   28     Total     6.48581   0.00000      0.000  -0.000   0.000

----------------------------------------------------------------
Total              12.96262   0.00000      0.000  -0.000  -0.000


Species: N                   

Atom      Orb        Charge      Spin       Svec
----------------------------------------------------------------
    2  1 2s         1.55109   0.00000      0.000   0.000  -0.000
    2  2 2s         0.08426   0.00000     -0.000  -0.000  -0.000
    2  3 2py        1.04403   0.00000      0.000  -0.000  -0.000
    2  4 2pz        1.22425   0.00000     -0.000   0.000  -0.000
    2  5 2px        0.99013   0.00000     -0.000  -0.000  -0.000
    2  6 2py        0.18830   0.00000     -0.000   0.000   0.000
    2  7 2pz        0.05537   0.00000      0.000   0.000   0.000
    2  8 2px        0.19578   0.00000      0.000   0.000   0.000
    2  9 3Pdxy      0.00838   0.00000     -0.000  -0.000  -0.000
    2 10 3Pdyz      0.01098   0.00000     -0.000   0.000   0.000
    2 11 3Pdz2      0.00195   0.00000     -0.000  -0.000   0.000
    2 12 3Pdxz      0.00758   0.00000      0.000   0.000   0.000
    2 13 3Pdx2-y2   0.00908   0.00000      0.000   0.000  -0.000
    2     Total     5.37119   0.00000     -0.000   0.000  -0.000

    3  1 2s         1.40033   0.00000      0.000  -0.000  -0.000
    3  2 2s         0.11658   0.00000     -0.000   0.000   0.000
    3  3 2py        0.94167   0.00000     -0.000   0.000  -0.000
    3  4 2pz        1.54380   0.00000      0.000  -0.000  -0.000
    3  5 2px        1.08263   0.00000     -0.000   0.000  -0.000
    3  6 2py        0.24856   0.00000     -0.000   0.000   0.000
    3  7 2pz        0.00706   0.00000     -0.000   0.000   0.000
    3  8 2px        0.17825   0.00000      0.000   0.000   0.000
    3  9 3Pdxy      0.00396   0.00000     -0.000   0.000   0.000
    3 10 3Pdyz      0.00415   0.00000     -0.000  -0.000  -0.000
    3 11 3Pdz2      0.00074   0.00000     -0.000   0.000   0.000
    3 12 3Pdxz      0.00277   0.00000      0.000  -0.000  -0.000
    3 13 3Pdx2-y2   0.00281   0.00000      0.000  -0.000  -0.000
    3     Total     5.53330   0.00000     -0.000   0.000  -0.000

    4  1 2s         1.45996   0.00000      0.000   0.000  -0.000
    4  2 2s         0.11887   0.00000     -0.000  -0.000   0.000
    4  3 2py        1.13070   0.00000     -0.000  -0.000  -0.000
    4  4 2pz        1.29480   0.00000     -0.000  -0.000  -0.000
    4  5 2px        0.82600   0.00000     -0.000   0.000  -0.000
    4  6 2py        0.14964   0.00000      0.000   0.000   0.000
    4  7 2pz        0.05352   0.00000      0.000   0.000   0.000
    4  8 2px        0.29228   0.00000      0.000  -0.000   0.000
    4  9 3Pdxy      0.00870   0.00000     -0.000  -0.000   0.000
    4 10 3Pdyz      0.01045   0.00000     -0.000   0.000   0.000
    4 11 3Pdz2      0.00126   0.00000      0.000   0.000   0.000
    4 12 3Pdxz      0.00496   0.00000      0.000   0.000   0.000
    4 13 3Pdx2-y2   0.00798   0.00000     -0.000   0.000  -0.000
    4     Total     5.35909   0.00000      0.000  -0.000  -0.000

    5  1 2s         1.37605   0.00000     -0.000  -0.000  -0.000
    5  2 2s         0.12803   0.00000      0.000   0.000   0.000
    5  3 2py        1.02594   0.00000     -0.000   0.000  -0.000
    5  4 2pz        1.50079   0.00000      0.000   0.000  -0.000
    5  5 2px        1.05994   0.00000     -0.000  -0.000  -0.000
    5  6 2py        0.20387   0.00000      0.000   0.000   0.000
    5  7 2pz        0.01341   0.00000      0.000  -0.000   0.000
    5  8 2px        0.20100   0.00000      0.000   0.000   0.000
    5  9 3Pdxy      0.00393   0.00000      0.000   0.000   0.000
    5 10 3Pdyz      0.00241   0.00000      0.000   0.000   0.000
    5 11 3Pdz2      0.00142   0.00000     -0.000  -0.000   0.000
    5 12 3Pdxz      0.00684   0.00000     -0.000  -0.000   0.000
    5 13 3Pdx2-y2   0.00559   0.00000      0.000   0.000   0.000
    5     Total     5.52921   0.00000     -0.000   0.000  -0.000

    6  1 2s         1.26960   0.00000     -0.000   0.000  -0.000
    6  2 2s         0.17927   0.00000      0.000  -0.000   0.000
    6  3 2py        1.07677   0.00000     -0.000  -0.000  -0.000
    6  4 2pz        1.57231   0.00000      0.000  -0.000  -0.000
    6  5 2px        0.95732   0.00000      0.000  -0.000  -0.000
    6  6 2py        0.18824   0.00000      0.000   0.000   0.000
    6  7 2pz        0.02995   0.00000     -0.000   0.000   0.000
    6  8 2px        0.25540   0.00000     -0.000  -0.000   0.000
    6  9 3Pdxy      0.00241   0.00000      0.000  -0.000   0.000
    6 10 3Pdyz      0.00015   0.00000     -0.000  -0.000  -0.000
    6 11 3Pdz2      0.00174   0.00000      0.000  -0.000   0.000
    6 12 3Pdxz      0.00328   0.00000     -0.000  -0.000   0.000
    6 13 3Pdx2-y2   0.00395   0.00000      0.000   0.000   0.000
    6     Total     5.54038   0.00000      0.000  -0.000  -0.000

   21  1 2s         1.42340   0.00000      0.000  -0.000   0.000
   21  2 2s         0.12830   0.00000     -0.000   0.000  -0.000
   21  3 2py        0.87186   0.00000     -0.000  -0.000  -0.000
   21  4 2pz        1.29539   0.00000      0.000   0.000  -0.000
   21  5 2px        1.15722   0.00000      0.000   0.000  -0.000
   21  6 2py        0.27537   0.00000      0.000   0.000   0.000
   21  7 2pz        0.04881   0.00000     -0.000   0.000   0.000
   21  8 2px        0.16281   0.00000     -0.000  -0.000   0.000
   21  9 3Pdxy      0.00644   0.00000      0.000   0.000   0.000
   21 10 3Pdyz      0.00503   0.00000     -0.000  -0.000  -0.000
   21 11 3Pdz2      0.00016   0.00000     -0.000  -0.000  -0.000
   21 12 3Pdxz      0.00577   0.00000     -0.000   0.000  -0.000
   21 13 3Pdx2-y2   0.00560   0.00000     -0.000  -0.000  -0.000
   21     Total     5.38616   0.00000      0.000   0.000  -0.000

   22  1 2s         1.29467   0.00000     -0.000   0.000  -0.000
   22  2 2s         0.16781   0.00000      0.000  -0.000   0.000
   22  3 2py        1.05768   0.00000      0.000   0.000  -0.000
   22  4 2pz        1.55509   0.00000      0.000  -0.000   0.000
   22  5 2px        0.98450   0.00000      0.000  -0.000  -0.000
   22  6 2py        0.19643   0.00000     -0.000  -0.000  -0.000
   22  7 2pz        0.02843   0.00000     -0.000   0.000  -0.000
   22  8 2px        0.23474   0.00000     -0.000   0.000   0.000
   22  9 3Pdxy      0.00325   0.00000     -0.000  -0.000   0.000
   22 10 3Pdyz      0.00034   0.00000      0.000   0.000   0.000
   22 11 3Pdz2      0.00254   0.00000      0.000  -0.000   0.000
   22 12 3Pdxz      0.00319   0.00000      0.000  -0.000  -0.000
   22 13 3Pdx2-y2   0.00475   0.00000      0.000   0.000  -0.000
   22     Total     5.53341   0.00000      0.000  -0.000  -0.000

   23  1 2s         1.39682   0.00000     -0.000   0.000  -0.000
   23  2 2s         0.11807   0.00000      0.000  -0.000  -0.000
   23  3 2py        1.00722   0.00000      0.000   0.000  -0.000
   23  4 2pz        1.52523   0.00000     -0.000   0.000  -0.000
   23  5 2px        1.06485   0.00000      0.000  -0.000  -0.000
   23  6 2py        0.21141   0.00000     -0.000  -0.000   0.000
   23  7 2pz        0.00490   0.00000      0.000  -0.000   0.000
   23  8 2px        0.19797   0.00000     -0.000   0.000   0.000
   23  9 3Pdxy      0.00528   0.00000      0.000  -0.000  -0.000
   23 10 3Pdyz      0.00445   0.00000      0.000  -0.000  -0.000
   23 11 3Pdz2      0.00063   0.00000     -0.000  -0.000  -0.000
   23 12 3Pdxz      0.00244   0.00000      0.000  -0.000  -0.000
   23 13 3Pdx2-y2   0.00136   0.00000     -0.000  -0.000  -0.000
   23     Total     5.54063   0.00000      0.000   0.000  -0.000

----------------------------------------------------------------
Total              56.75599   0.00000      0.000  -0.000  -0.000


Species: Si                  

Atom      Orb        Charge      Spin       Svec
----------------------------------------------------------------
    7  1 3s         0.66788   0.00000     -0.000   0.000   0.000
    7  2 3s         0.36483   0.00000      0.000  -0.000   0.000
    7  3 3py        0.48840   0.00000     -0.000  -0.000  -0.000
    7  4 3pz        0.69171   0.00000     -0.000  -0.000  -0.000
    7  5 3px        0.12520   0.00000      0.000   0.000  -0.000
    7  6 3py        0.26423   0.00000      0.000   0.000   0.000
    7  7 3pz        0.25890   0.00000      0.000   0.000   0.000
    7  8 3px        0.43799   0.00000     -0.000  -0.000   0.000
    7  9 3Pdxy      0.24552   0.00000     -0.000  -0.000   0.000
    7 10 3Pdyz      0.02931   0.00000     -0.000  -0.000   0.000
    7 11 3Pdz2      0.01176   0.00000     -0.000   0.000   0.000
    7 12 3Pdxz      0.14554   0.00000     -0.000  -0.000  -0.000
    7 13 3Pdx2-y2   0.11291   0.00000     -0.000  -0.000  -0.000
    7     Total     3.84418   0.00000     -0.000  -0.000   0.000

    8  1 3s         0.65679   0.00000      0.000  -0.000   0.000
    8  2 3s         0.36853   0.00000     -0.000   0.000   0.000
    8  3 3py        0.38819   0.00000      0.000   0.000  -0.000
    8  4 3pz        0.52463   0.00000     -0.000   0.000   0.000
    8  5 3px       -0.03055   0.00000     -0.000   0.000   0.000
    8  6 3py        0.30886   0.00000      0.000  -0.000   0.000
    8  7 3pz        0.20210   0.00000      0.000   0.000   0.000
    8  8 3px        0.51467   0.00000      0.000  -0.000   0.000
    8  9 3Pdxy      0.24603   0.00000     -0.000   0.000   0.000
    8 10 3Pdyz      0.11217   0.00000     -0.000   0.000  -0.000
    8 11 3Pdz2      0.01449   0.00000     -0.000   0.000   0.000
    8 12 3Pdxz      0.15346   0.00000      0.000   0.000   0.000
    8 13 3Pdx2-y2   0.20028   0.00000     -0.000  -0.000   0.000
    8     Total     3.65965   0.00000     -0.000   0.000   0.000

    9  1 3s         0.60459   0.00000      0.000   0.000   0.000
    9  2 3s         0.36601   0.00000     -0.000  -0.000  -0.000
    9  3 3py        0.07525   0.00000     -0.000  -0.000  -0.000
    9  4 3pz        0.48510   0.00000      0.000   0.000  -0.000
    9  5 3px        0.37986   0.00000      0.000  -0.000  -0.000
    9  6 3py        0.44739   0.00000     -0.000   0.000   0.000
    9  7 3pz        0.18694   0.00000     -0.000  -0.000  -0.000
    9  8 3px        0.27315   0.00000     -0.000   0.000   0.000
    9  9 3Pdxy      0.31262   0.00000     -0.000  -0.000  -0.000
    9 10 3Pdyz      0.19026   0.00000      0.000  -0.000  -0.000
    9 11 3Pdz2      0.01641   0.00000     -0.000   0.000  -0.000
    9 12 3Pdxz      0.09766   0.00000     -0.000  -0.000  -0.000
    9 13 3Pdx2-y2   0.17213   0.00000      0.000  -0.000   0.000
    9     Total     3.60736   0.00000      0.000  -0.000  -0.000

   10  1 3s         0.48248   0.00000      0.000  -0.000   0.000
   10  2 3s         0.37780   0.00000     -0.000   0.000   0.000
   10  3 3py        0.24122   0.00000     -0.000  -0.000   0.000
   10  4 3pz        0.40843   0.00000     -0.000   0.000   0.000
   10  5 3px        0.10116   0.00000      0.000  -0.000   0.000
   10  6 3py        0.32753   0.00000      0.000  -0.000   0.000
   10  7 3pz        0.22262   0.00000     -0.000   0.000   0.000
   10  8 3px        0.42903   0.00000      0.000   0.000   0.000
   10  9 3Pdxy      0.16947   0.00000     -0.000  -0.000   0.000
   10 10 3Pdyz      0.13967   0.00000      0.000   0.000   0.000
   10 11 3Pdz2      0.01032   0.00000      0.000   0.000   0.000
   10 12 3Pdxz      0.17489   0.00000     -0.000   0.000   0.000
   10 13 3Pdx2-y2   0.30994   0.00000      0.000   0.000  -0.000
   10     Total     3.39456   0.00000      0.000  -0.000   0.000

   11  1 3s         0.55276   0.00000     -0.000  -0.000   0.000
   11  2 3s         0.38527   0.00000      0.000   0.000   0.000
   11  3 3py        0.32187   0.00000      0.000  -0.000   0.000
   11  4 3pz        0.54079   0.00000      0.000  -0.000   0.000
   11  5 3px        0.12423   0.00000      0.000   0.000   0.000
   11  6 3py        0.28680   0.00000     -0.000   0.000   0.000
   11  7 3pz        0.17739   0.00000     -0.000  -0.000   0.000
   11  8 3px        0.44643   0.00000     -0.000  -0.000   0.000
   11  9 3Pdxy      0.22534   0.00000      0.000   0.000   0.000
   11 10 3Pdyz      0.12634   0.00000      0.000   0.000   0.000
   11 11 3Pdz2      0.00959   0.00000      0.000  -0.000  -0.000
   11 12 3Pdxz      0.05279   0.00000      0.000   0.000   0.000
   11 13 3Pdx2-y2   0.20386   0.00000     -0.000  -0.000   0.000
   11     Total     3.45347   0.00000      0.000  -0.000   0.000

   17  1 3s         0.63877   0.00000     -0.000  -0.000   0.000
   17  2 3s         0.36084   0.00000      0.000   0.000  -0.000
   17  3 3py        0.22688   0.00000      0.000   0.000   0.000
   17  4 3pz        0.42257   0.00000     -0.000   0.000   0.000
   17  5 3px        0.24474   0.00000      0.000  -0.000   0.000
   17  6 3py        0.38766   0.00000     -0.000  -0.000  -0.000
   17  7 3pz        0.21158   0.00000      0.000  -0.000   0.000
   17  8 3px        0.36895   0.00000     -0.000   0.000  -0.000
   17  9 3Pdxy      0.30150   0.00000      0.000  -0.000  -0.000
   17 10 3Pdyz      0.14270   0.00000     -0.000   0.000   0.000
   17 11 3Pdz2      0.00904   0.00000     -0.000   0.000   0.000
   17 12 3Pdxz      0.14332   0.00000      0.000  -0.000   0.000
   17 13 3Pdx2-y2   0.16360   0.00000     -0.000   0.000   0.000
   17     Total     3.62216   0.00000      0.000  -0.000   0.000

   18  1 3s         0.74418   0.00000     -0.000   0.000   0.000
   18  2 3s         0.33968   0.00000      0.000   0.000   0.000
   18  3 3py        0.07923   0.00000      0.000  -0.000   0.000
   18  4 3pz        0.82089   0.00000     -0.000   0.000   0.000
   18  5 3px        0.55527   0.00000     -0.000   0.000   0.000
   18  6 3py        0.51824   0.00000     -0.000   0.000   0.000
   18  7 3pz        0.19780   0.00000      0.000  -0.000   0.000
   18  8 3px        0.25030   0.00000      0.000  -0.000   0.000
   18  9 3Pdxy      0.10330   0.00000      0.000   0.000  -0.000
   18 10 3Pdyz      0.02748   0.00000     -0.000   0.000  -0.000
   18 11 3Pdz2      0.00871   0.00000     -0.000   0.000  -0.000
   18 12 3Pdxz      0.03028   0.00000      0.000  -0.000  -0.000
   18 13 3Pdx2-y2   0.11288   0.00000     -0.000   0.000   0.000
   18     Total     3.78824   0.00000     -0.000   0.000   0.000

   19  1 3s         0.46027   0.00000     -0.000   0.000   0.000
   19  2 3s         0.36479   0.00000      0.000  -0.000  -0.000
   19  3 3py        0.08308   0.00000      0.000   0.000   0.000
   19  4 3pz        0.42934   0.00000     -0.000   0.000   0.000
   19  5 3px        0.35831   0.00000      0.000  -0.000  -0.000
   19  6 3py        0.47025   0.00000     -0.000   0.000  -0.000
   19  7 3pz        0.18252   0.00000      0.000  -0.000   0.000
   19  8 3px        0.23811   0.00000     -0.000   0.000   0.000
   19  9 3Pdxy      0.34207   0.00000     -0.000  -0.000  -0.000
   19 10 3Pdyz      0.18875   0.00000     -0.000   0.000  -0.000
   19 11 3Pdz2      0.01606   0.00000      0.000   0.000   0.000
   19 12 3Pdxz      0.08832   0.00000     -0.000  -0.000  -0.000
   19 13 3Pdx2-y2   0.23819   0.00000      0.000   0.000   0.000
   19     Total     3.46004   0.00000     -0.000   0.000   0.000

   20  1 3s         0.67354   0.00000      0.000  -0.000  -0.000
   20  2 3s         0.37792   0.00000     -0.000   0.000   0.000
   20  3 3py        0.33049   0.00000     -0.000  -0.000  -0.000
   20  4 3pz        0.59115   0.00000      0.000  -0.000  -0.000
   20  5 3px        0.13827   0.00000     -0.000   0.000  -0.000
   20  6 3py        0.29219   0.00000      0.000  -0.000  -0.000
   20  7 3pz        0.16371   0.00000     -0.000  -0.000  -0.000
   20  8 3px        0.49967   0.00000      0.000  -0.000   0.000
   20  9 3Pdxy      0.10013   0.00000     -0.000   0.000   0.000
   20 10 3Pdyz      0.13364   0.00000      0.000   0.000  -0.000
   20 11 3Pdz2      0.00736   0.00000      0.000  -0.000   0.000
   20 12 3Pdxz      0.02693   0.00000      0.000  -0.000   0.000
   20 13 3Pdx2-y2   0.17217   0.00000     -0.000   0.000  -0.000
   20     Total     3.50719   0.00000     -0.000  -0.000  -0.000

----------------------------------------------------------------
Total              89.09283   0.00000     -0.000   0.000   0.000


Species: H                   

Atom      Orb        Charge      Spin       Svec
----------------------------------------------------------------
   12  1 1s         0.49545   0.00000      0.000  -0.000   0.000
   12  2 1s         0.18209   0.00000     -0.000   0.000   0.000
   12  3 2Ppy       0.02903   0.00000     -0.000  -0.000   0.000
   12  4 2Ppz       0.03384   0.00000      0.000  -0.000  -0.000
   12  5 2Ppx       0.02277   0.00000      0.000  -0.000   0.000
   12     Total     0.76318   0.00000      0.000  -0.000   0.000

   13  1 1s         1.01912   0.00000     -0.000   0.000  -0.000
   13  2 1s         0.09541   0.00000      0.000  -0.000   0.000
   13  3 2Ppy       0.01808   0.00000     -0.000  -0.000  -0.000
   13  4 2Ppz       0.02009   0.00000      0.000   0.000   0.000
   13  5 2Ppx       0.03512   0.00000      0.000  -0.000   0.000
   13     Total     1.18784   0.00000     -0.000   0.000  -0.000

   14  1 1s         0.46089   0.00000      0.000   0.000   0.000
   14  2 1s         0.20022   0.00000      0.000  -0.000   0.000
   14  3 2Ppy       0.01794   0.00000      0.000   0.000   0.000
   14  4 2Ppz       0.04539   0.00000     -0.000   0.000  -0.000
   14  5 2Ppx       0.01711   0.00000     -0.000  -0.000   0.000
   14     Total     0.74156   0.00000     -0.000   0.000   0.000

   15  1 1s         0.49381   0.00000      0.000  -0.000   0.000
   15  2 1s         0.17888   0.00000      0.000   0.000   0.000
   15  3 2Ppy       0.00507   0.00000     -0.000  -0.000   0.000
   15  4 2Ppz       0.04178   0.00000     -0.000   0.000  -0.000
   15  5 2Ppx       0.02816   0.00000      0.000  -0.000   0.000
   15     Total     0.74770   0.00000      0.000  -0.000   0.000

   16  1 1s         0.51018   0.00000     -0.000  -0.000   0.000
   16  2 1s         0.18731   0.00000     -0.000   0.000   0.000
   16  3 2Ppy       0.02982   0.00000     -0.000  -0.000   0.000
   16  4 2Ppz       0.03981   0.00000      0.000  -0.000  -0.000
   16  5 2Ppx       0.02359   0.00000      0.000   0.000   0.000
   16     Total     0.79071   0.00000     -0.000  -0.000   0.000

   24  1 1s         1.06270   0.00000      0.000  -0.000  -0.000
   24  2 1s         0.07465   0.00000     -0.000   0.000   0.000
   24  3 2Ppy       0.03211   0.00000      0.000  -0.000   0.000
   24  4 2Ppz       0.03067   0.00000      0.000   0.000   0.000
   24  5 2Ppx       0.01729   0.00000     -0.000  -0.000  -0.000
   24     Total     1.21741   0.00000      0.000  -0.000  -0.000

   25  1 1s         1.04301   0.00000      0.000  -0.000  -0.000
   25  2 1s         0.08661   0.00000     -0.000   0.000  -0.000
   25  3 2Ppy       0.01226   0.00000     -0.000  -0.000  -0.000
   25  4 2Ppz       0.01849   0.00000     -0.000  -0.000  -0.000
   25  5 2Ppx       0.03569   0.00000     -0.000  -0.000   0.000
   25     Total     1.19606   0.00000      0.000  -0.000  -0.000

   26  1 1s         0.47459   0.00000     -0.000   0.000  -0.000
   26  2 1s         0.19628   0.00000      0.000  -0.000   0.000
   26  3 2Ppy       0.02098   0.00000     -0.000  -0.000  -0.000
   26  4 2Ppz       0.04879   0.00000     -0.000   0.000  -0.000
   26  5 2Ppx       0.01601   0.00000     -0.000   0.000  -0.000
   26     Total     0.75665   0.00000     -0.000   0.000  -0.000

   27  1 1s         0.50849   0.00000     -0.000  -0.000  -0.000
   27  2 1s         0.16933   0.00000     -0.000   0.000  -0.000
   27  3 2Ppy       0.00661   0.00000      0.000  -0.000  -0.000
   27  4 2Ppz       0.03697   0.00000      0.000  -0.000  -0.000
   27  5 2Ppx       0.02866   0.00000      0.000  -0.000   0.000
   27     Total     0.75006   0.00000     -0.000  -0.000  -0.000

   29  1 1s         0.48473   0.00000     -0.000   0.000   0.000
   29  2 1s         0.18764   0.00000      0.000   0.000   0.000
   29  3 2Ppy       0.02511   0.00000      0.000  -0.000  -0.000
   29  4 2Ppz       0.03435   0.00000      0.000  -0.000   0.000
   29  5 2Ppx       0.02416   0.00000      0.000  -0.000   0.000
   29     Total     0.75600   0.00000     -0.000  -0.000   0.000

----------------------------------------------------------------
Total              98.00000   0.00000      0.000   0.000  -0.000


siesta: Eigenvalues (eV):
ik =     1
  -21.8772  -21.8772  -21.8109  -21.8109  -21.5841  -21.5841  -21.5583  -21.5583  -21.2362  -21.2362
  -21.0114  -21.0114  -20.8261  -20.8261  -19.8209  -19.8209  -19.3903  -19.3903  -19.3662  -19.3662
  -14.7410  -14.7410  -13.8829  -13.8829  -13.3338  -13.3338  -13.1799  -13.1799  -13.1078  -13.1078
  -12.8635  -12.8635  -12.8343  -12.8343  -12.4454  -12.4454  -12.3787  -12.3787  -12.0172  -12.0172
  -11.4405  -11.4405  -10.7995  -10.7995  -10.7551  -10.7551  -10.7067  -10.7067  -10.0879  -10.0879
   -9.5360   -9.5360   -9.2362   -9.2362   -8.8665   -8.8665   -8.7091   -8.7091   -8.6582   -8.6582
   -8.6410   -8.6410   -8.3932   -8.3932   -8.1873   -8.1873   -7.8229   -7.8229   -7.6521   -7.6521
   -7.5791   -7.5791   -7.3232   -7.3232   -7.3122   -7.3122   -6.8813   -6.8813   -6.7464   -6.7464
   -6.5204   -6.5204   -6.5024   -6.5024   -6.1058   -6.1058   -6.0946   -6.0946   -6.0924   -6.0924
   -5.7260   -5.7260   -5.6518   -5.6518   -5.4478   -5.4478   -4.3137   -4.3137   -3.2339   -3.2339
   -2.3246   -2.3246   -2.2902   -2.2902   -2.2443   -2.2443   -1.8764   -1.8764   -1.8640   -1.8640
   -1.8285   -1.8285   -1.7687   -1.7687   -1.5629   -1.5629   -1.5303   -1.5303   -0.9856   -0.9856
   -0.9556   -0.9556   -0.8143   -0.8143   -0.3840   -0.3840   -0.1762   -0.1762    0.0402    0.0402
    0.3549    0.3549    0.4342    0.4342    0.5514    0.5514    0.7078    0.7078    0.7798    0.7798
    0.9924    0.9924    1.2586    1.2586    1.2844    1.2844    1.4103    1.4103    1.4489    1.4489
    1.6847    1.6847    1.8285    1.8285    1.9182    1.9182    2.3651    2.3651    2.7389    2.7389
    2.7441    2.7441    2.8320    2.8320    3.0119    3.0119    3.1346    3.1346    3.3336    3.3336
    3.3874    3.3874    3.7826    3.7826    3.8726    3.8726    4.0894    4.0894    4.3047    4.3047
    4.4248    4.4248    4.5080    4.5080    4.5885    4.5885    4.5943    4.5943    4.8583    4.8583
    4.9417    4.9417    5.0113    5.0113    5.2439    5.2439    5.4938    5.4938    5.6796    5.6796
    5.7088    5.7088    5.7689    5.7689    5.9325    5.9325    5.9838    5.9838    6.0044    6.0044
    6.1814    6.1814    6.3364    6.3364    6.6239    6.6239    6.7409    6.7409    6.8105    6.8105
    7.0520    7.0520    7.1974    7.1974    7.3930    7.3930    7.5422    7.5422    7.7313    7.7313
    7.8086    7.8086    8.0272    8.0272    8.0905    8.0905    8.2441    8.2441    8.2629    8.2629
    8.5417    8.5417    8.6865    8.6865    8.7734    8.7734    8.9457    8.9457    9.1907    9.1907
    9.2324    9.2324    9.2768    9.2768    9.7174    9.7174    9.8261    9.8261    9.8446    9.8446
    9.9913    9.9913   10.1625   10.1625   10.4366   10.4366   10.7900   10.7900   10.8733   10.8733
   10.9562   10.9562   11.0867   11.0867   11.1840   11.1840   11.7040   11.7040   11.8516   11.8516
   11.8835   11.8835   11.9449   11.9449   12.2125   12.2125   12.4017   12.4017   12.5367   12.5367
   12.7001   12.7001   12.7331   12.7331   13.4089   13.4089   13.5110   13.5110   13.7226   13.7226
   13.7933   13.7933   14.0451   14.0451   14.2353   14.2353   14.4758   14.4758   14.8299   14.8299
   14.8447   14.8447   15.3284   15.3284   15.9910   15.9910   16.4241   16.4241   16.6736   16.6736
   16.9550   16.9550   17.4090   17.4090   17.6744   17.6744   18.2373   18.2373   18.3397   18.3397
   18.5725   18.5725   19.0819   19.0819   19.3510   19.3510   19.9640   19.9640   20.2506   20.2506
   20.8877   20.8877   21.3174   21.3174   21.8019   21.8019   22.1662   22.1662   22.4580   22.4580
   23.1102   23.1102   23.3036   23.3036   23.7692   23.7692   23.8427   23.8427   23.8998   23.8998
   24.8352   24.8352   25.2137   25.2137   25.9784   25.9784   26.8176   26.8176   27.5029   27.5029
   28.5885   28.5885   29.0858   29.0858   29.1295   29.1295   29.5134   29.5134   29.6139   29.6139
   30.0740   30.0740   30.1600   30.1600   30.2515   30.2515   30.6465   30.6465   30.8325   30.8325
   31.0178   31.0178   31.1511   31.1511   31.4592   31.4592   31.6162   31.6162   32.2518   32.2518
   32.7164   32.7164   33.8819   33.8819   34.5076   34.5076   34.6615   34.6615   34.9400   34.9400
   34.9434   34.9434   35.0670   35.0670   35.3752   35.3752   35.6766   35.6766   35.8130   35.8130
   36.7551   36.7551   36.8518   36.8518   37.0536   37.0536   37.2426   37.2426   37.6355   37.6355
   38.1740   38.1740   38.3726   38.3726   39.3275   39.3275   39.4956   39.4956   39.9121   39.9121
   40.2362   40.2362   40.5522   40.5522   40.6572   40.6572   40.6936   40.6936   40.9577   40.9577
   41.1732   41.1732   41.4791   41.4791   42.3982   42.3982   42.6955   42.6955   42.9957   42.9957
   43.1754   43.1754   43.7429   43.7429   43.9433   43.9433   44.0590   44.0590   44.2381   44.2381
   44.6864   44.6864   44.6974   44.6974   45.1243   45.1243   45.4091   45.4091   46.0559   46.0559
   46.4779   46.4779   46.8824   46.8824   47.1960   47.1960   48.5957   48.5957   49.0870   49.0870
   49.4934   49.4934   50.2978   50.2978   50.5230   50.5230   50.6875   50.6875   50.9400   50.9400
   51.3882   51.3882   51.5278   51.5278   52.6933   52.6933   52.8132   52.8132   54.1862   54.1862
   54.3954   54.3954   54.3986   54.3986   54.9664   54.9664   55.7907   55.7907   55.8920   55.8920
   55.9299   55.9299   56.1904   56.1904   56.4911   56.4911   57.9769   57.9769   58.2657   58.2657
   58.7099   58.7099   60.1807   60.1807   60.4440   60.4440   60.8711   60.8711   61.1627   61.1627
   61.8020   61.8020   62.0611   62.0611   62.2768   62.2768   64.4952   64.4952   66.4431   66.4431
   67.1852   67.1852   67.2531   67.2531   68.1180   68.1180   68.8129   68.8129   70.8495   70.8495
   74.1153   74.1153   80.0445   80.0445   91.0912   91.0912   91.8994   91.8994   93.3745   93.3745
   98.3964   98.3964   98.8596   98.8596   99.5830   99.5830  103.3670  103.3670  103.8037  103.8037
  110.1679  110.1679  111.6997  111.6997  123.6456  123.6456  125.6991  125.6991  130.0367  130.0367
  135.1010  135.1010  138.4057  138.4057
siesta: Fermi energy =      -3.773827 eV

siesta: Program's energy decomposition (eV):
siesta: Ebs     =     -1134.110437
siesta: Eions   =      3585.165840
siesta: Ena     =       382.019114
siesta: Ekin    =      2903.528255
siesta: Enl     =     -2788.345236
siesta: Eso     =        -0.004280
siesta: Edftu   =         0.000000
siesta: DEna    =        47.025307
siesta: DUscf   =        14.321866
siesta: DUext   =         0.000000
siesta: Exc     =     -1119.914686
siesta: eta*DQ  =         0.000000
siesta: Emadel  =         0.000000
siesta: Emeta   =         0.000000
siesta: Emolmec =         0.000000
siesta: Ekinion =         0.000000
siesta: Eharris =     -4146.535499
siesta: Etot    =     -4146.535499
siesta: FreeEng =     -4146.535499

siesta: Final energy (eV):
siesta:  Band Struct. =   -1134.110437
siesta:       Kinetic =    2903.528255
siesta:       Hartree =    8234.730582
siesta:       Edftu   =       0.000000
siesta:       Eso     =      -0.004280
siesta:    Ext. field =       0.000000
siesta:   Exch.-corr. =   -1119.914686
siesta:  Ion-electron =  -19053.324549
siesta:       Ion-ion =    4888.449178
siesta:       Ekinion =       0.000000
siesta:         Total =   -4146.535499
siesta:         Fermi =      -3.773827

siesta: Atomic forces (eV/Ang):
siesta:      1    0.392222    1.340489   -0.000000
siesta:      2    0.005554    0.024030   -0.000000
siesta:      3    0.762151   -0.379286   -0.000000
siesta:      4    0.732746   -0.023644    0.000000
siesta:      5    0.045985   -0.095941    0.000000
siesta:      6    1.798017    0.664426    0.000000
siesta:      7    0.043135   -0.255472   -0.000000
siesta:      8   -0.413133    0.287115    0.000000
siesta:      9   -0.184256    1.266150    0.000000
siesta:     10   -1.023015    0.361033   -0.000000
siesta:     11   -0.022480   -0.020552   -0.000000
siesta:     12   -0.353723   -0.120861   -0.000000
siesta:     13   -0.007369    0.004292    0.000000
siesta:     14    0.331162   -0.204136   -0.000000
siesta:     15   -1.251166   -0.924791    0.000000
siesta:     16   -0.068777    0.237743   -0.000000
siesta:     17    1.011584   -1.106782   -0.000000
siesta:     18   -0.216157    0.200457    0.000000
siesta:     19   -0.190567   -1.253101    0.000000
siesta:     20   -0.013274   -0.417413   -0.000000
siesta:     21   -0.307627    1.026723    0.000000
siesta:     22   -2.187126   -0.896595   -0.000000
siesta:     23    0.315825    0.557884   -0.000000
siesta:     24    0.001339    0.121056   -0.000000
siesta:     25    0.074751    0.110323    0.000000
siesta:     26   -0.270663   -0.167014   -0.000000
siesta:     27    1.687532    1.341545    0.000000
siesta:     28   -0.524709    2.157059    0.000000
siesta:     29   -0.056483    0.138247    0.000000
siesta: ----------------------------------------
siesta:    Tot    0.111475    3.972985    0.000000

siesta: Stress tensor (static) (eV/Ang**3):
siesta:    -0.000035    0.000877   -0.000000
siesta:     0.000877    0.000925   -0.000000
siesta:    -0.000000    0.000000   -0.000066

siesta: Cell volume =       5333.191501 Ang**3

siesta: Pressure (static):
siesta:                Solid            Molecule  Units
siesta:          -0.00000299          0.00000067  Ry/Bohr**3
siesta:          -0.00027455          0.00006155  eV/Ang**3
siesta:          -0.43988263          0.09861058  kBar
(Free)E+ p_basis*V_orbitals  =       -4126.685081
(Free)Eharris+ p_basis*V_orbitals  =       -4126.685081
     spin moment: S , {S} =    0.00000   0.00000   0.00000  -0.00000

siesta: Electric dipole (a.u.)  =    1.566807    0.042444   -0.000000
siesta: Electric dipole (Debye) =    3.982430    0.107881   -0.000000

cite: Please see "GC.bib" for an exhaustive BiBTeX file.
cite: Please clearly indicate Siesta version in published work: v4.1.5-1-g384057250
cite: This calculation has made use of the following articles
cite: which are encouraged to be cited in a published work.
        Primary SIESTA paper
          DOI: www.doi.org/10.1088/0953-8984/14/11/302
        Spin-orbit coupling (on-site approximation)
          DOI: www.doi.org/10.1088/0953-8984/19/19/489001


WARNING: alloc-realloc-dealloc name mismatch
         Name: atomlist isa
         Size:              -116. Bytes
         Node:     0
         Subsequent mismatches will not be reported
>> End of run:  28-JUN-2023  20:12:28
Job completed
