Siesta Version  : v4.1.5-1-g384057250
Architecture    : gcc
Compiler version: GNU Fortran (Debian 10.2.1-6) 10.2.1 20210110
Compiler flags  : mpifort -O2 -fPIC -ftree-vectorize -fallow-argument-mismatch
PP flags        : -DFC_HAVE_ABORT -DMPI -DSIESTA__FLOOK -DSIESTA__METIS -DSIESTA__MUMPS -DCDF -DNCDF -DNCDF_4 -DNCDF_PARALLEL -DSIESTA__MRRR -DSIESTA__ELPA
Libraries       : libncdf.a libfdict.a  -lflookall -ldl -lnetcdff -lnetcdf -lhdf5_hl -lhdf5 -lhdf5_fortran -lz -lscalapack-openmpi -lopenblas -lmetis -lzmumps -lcmumps -ldmumps -lmumps_common -lpord -lsmumps -lesmumps -lscotch -lscotcherr -fopenmp -lelpa
PARALLEL version
NetCDF support
NetCDF-4 support
NetCDF-4 MPI-IO support
METIS ordering support
Lua support

* Running on 6 nodes in parallel
>> Start of run:  16-OCT-2023  18:51:45

                           ***********************       
                           *  WELCOME TO SIESTA  *       
                           ***********************       

reinit: Reading from standard input
reinit: Dumped input in INPUT_TMP.61014
************************** Dump of input data file ****************************
# mpirun -np 4 siesta-4.1.5 < GC.fdf > GC.out &
SystemLabel      GC
NumberOfAtoms    29
NumberOfSpecies  4
%block ChemicalSpeciesLabel
    1    1  H
    2    7  N
    3   14  Si
    4    8  O
%endblock ChemicalSpeciesLabel
############################################
# This overrides Defaults.fdf configuration
############################################
MD.TypeOfRun                CG # CG, Verlet
MD.Steps                    0
MaxSCFIterations            600
AtomicCoordinatesFormat NotScaledCartesianAng
%block AtomicCoordinatesAndAtomicSpecies
    -0.3961909879385703 5.726642669432669 0.0  1  1  H
    -1.1026777179385703 4.936606489432669 0.0  2  2  N
    -2.83296462793857 5.377970399432669 0.0  3  3  Si
    -2.9887443079385703 6.867962659432669 0.0  1  4  H
    -4.35628624793857 3.8190628794326686 0.0  3  5  Si
    -5.839473877938571 4.061893239432669 0.0  1  6  H
    -3.15789538793857 1.9057867194326688 0.0  3  7  Si
    -3.9239208479385703 0.3730699794326686 0.0  2  8  N
    -3.33367429793857 -0.5841430505673313 0.0  1  9  H
    -4.97554316793857 0.2926097494326687 0.0  1  10  H
    -1.4416953279385702 1.9609610294326687 0.0  2  11  N
    -0.3666727079385703 3.2912998694326685 0.0  3  12  Si
    1.2420006120614295 3.272489609432669 0.0  4  13  O
    5.6164483 -7.44953905 0.0  1  14  H
    4.58206954 -7.2320376 0.0  2  15  N
    3.29666389 -8.492636 0.0  3  16  Si
    3.80117524 -9.90371886 -0.0  1  17  H
    1.65934232 -8.01362137 0.0  2  18  N
    1.68097912 -6.20463398 -0.0  3  19  Si
    0.54543521 -4.28636135 0.0  3  20  Si
    -1.03431493 -3.94450034 0.0  4  21  O
    1.73226934 -2.87719605 0.0  2  22  N
    1.20957366 -1.92961761 -0.0  1  23  H
    3.50853448 -2.77677601 0.0  3  24  Si
    4.13684451 -1.17938608 0.0  2  25  N
    3.54296161 -0.26248101 0.0  1  26  H
    5.18364407 -1.05231197 -0.0  1  27  H
    4.63288658 -4.07521596 -0.0  2  28  N
    3.79410501 -5.58634043 0.0  3  29  Si
%endblock AtomicCoordinatesAndAtomicSpecies
%include ../../../../Defaults.fdf
************************** End of input data file *****************************

reinit: -----------------------------------------------------------------------
reinit: System Name: 
reinit: -----------------------------------------------------------------------
reinit: System Label: GC
reinit: -----------------------------------------------------------------------

initatom: Reading input for the pseudopotentials and atomic orbitals ----------
Species number:   1 Atomic number:    1 Label: H
Species number:   2 Atomic number:    7 Label: N
Species number:   3 Atomic number:   14 Label: Si
Species number:   4 Atomic number:    8 Label: O

Ground state valence configuration:   1s01
Reading pseudopotential information in formatted form from H.psf

Pseudopotential generated from a relativistic atomic calculation

Valence configuration for pseudopotential generation:
1s( 1.00) rc: 0.01
2p( 0.00) rc: 0.60
3d( 0.00) rc: 1.99
4f( 0.00) rc: 2.49
Ground state valence configuration:   2s02  2p03
Reading pseudopotential information in formatted form from N.psf

Pseudopotential generated from a relativistic atomic calculation

Valence configuration for pseudopotential generation:
2s( 2.00) rc: 0.94
2p( 3.00) rc: 0.59
3d( 0.00) rc: 3.46
4f( 0.00) rc: 2.47
Ground state valence configuration:   3s02  3p02
Reading pseudopotential information in formatted form from Si.psf

Pseudopotential generated from a relativistic atomic calculation

Valence configuration for pseudopotential generation:
3s( 2.00) rc: 1.67
3p( 2.00) rc: 2.04
3d( 0.00) rc: 2.89
4f( 0.00) rc: 2.49
Ground state valence configuration:   2s02  2p04
Reading pseudopotential information in formatted form from O.psf

Pseudopotential generated from a relativistic atomic calculation

Valence configuration for pseudopotential generation:
2s( 2.00) rc: 0.45
2p( 4.00) rc: 0.92
3d( 0.00) rc: 2.24
4f( 0.00) rc: 0.25
For H, standard SIESTA heuristics set lmxkb to 2
 (one more than the basis l, including polarization orbitals).
Use PS.lmax or PS.KBprojectors blocks to override.
For N, standard SIESTA heuristics set lmxkb to 3
 (one more than the basis l, including polarization orbitals).
Use PS.lmax or PS.KBprojectors blocks to override.
For Si, standard SIESTA heuristics set lmxkb to 3
 (one more than the basis l, including polarization orbitals).
Use PS.lmax or PS.KBprojectors blocks to override.
For O, standard SIESTA heuristics set lmxkb to 3
 (one more than the basis l, including polarization orbitals).
Use PS.lmax or PS.KBprojectors blocks to override.

<basis_specs>
===============================================================================
H                    Z=   1    Mass=  1.0100        Charge= 0.17977+309
Lmxo=0 Lmxkb= 2    BasisType=split      Semic=F
L=0  Nsemic=0  Cnfigmx=1
          i=1  nzeta=2  polorb=1  (1s)
            splnorm:   0.62000    
               vcte:    0.0000    
               rinn:    0.0000    
               qcoe:    0.0000    
               qyuk:    0.0000    
               qwid:   0.10000E-01
                rcs:    0.0000      0.0000    
            lambdas:    1.0000      1.0000    
-------------------------------------------------------------------------------
L=0  Nkbl=1  erefs: 0.17977+309
L=1  Nkbl=1  erefs: 0.17977+309
L=2  Nkbl=1  erefs: 0.17977+309
===============================================================================
</basis_specs>

atom: Called for H                     (Z =   1)

read_vps: Pseudopotential generation method:
read_vps: ATM4.2.7  Troullier-Martins                       
Valence charge for ps generation:    1.00000

xc_check: Exchange-correlation functional:
xc_check: GGA Perdew, Burke & Ernzerhof 1996
V l=0 = -2*Zval/r beyond r=  0.0098
V l=1 = -2*Zval/r beyond r=  0.5817
V l=2 = -2*Zval/r beyond r=  1.9372
All V_l potentials equal beyond r=  1.9372
This should be close to max(r_c) in ps generation
All pots = -2*Zval/r beyond r=  1.9372

VLOCAL1: 99.0% of the norm of Vloc inside     11.567 Ry
VLOCAL1: 99.9% of the norm of Vloc inside     26.362 Ry
atom: Maximum radius for 4*pi*r*r*local-pseudopot. charge    2.25106
atom: Maximum radius for r*vlocal+2*Zval:    1.91306
GHOST: No ghost state for L =  0
GHOST: No ghost state for L =  1
GHOST: No ghost state for L =  2

KBgen: Kleinman-Bylander projectors: 
   l= 0   rc=  2.036604   el= -0.477180   Ekb= -6.081590   kbcos= -0.277285
   l= 1   rc=  2.195416   el=  0.001076   Ekb= -0.926943   kbcos= -0.034643
   l= 2   rc=  2.251056   el=  0.002010   Ekb= -0.130941   kbcos= -0.009788

KBgen: Total number of Kleinman-Bylander projectors:    9
atom: -------------------------------------------------------------------------

atom: SANKEY-TYPE ORBITALS:
atom: Selected multiple-zeta basis: split     

SPLIT: Orbitals with angular momentum L= 0

SPLIT: Basis orbitals for state 1s

SPLIT: PAO cut-off radius determined from an
SPLIT: energy shift=  0.002000 Ry

   izeta = 1
                 lambda =    1.000000
                     rc =    6.518340
                 energy =   -0.475305
                kinetic =    0.912139
    potential(screened) =   -1.387444
       potential(ionic) =   -1.907295

   izeta = 2
                 rmatch =    2.141150
              splitnorm =    0.620000
                 energy =    0.566467
                kinetic =    3.772856
    potential(screened) =   -3.206389
       potential(ionic) =   -3.759093

POLgen: Perturbative polarization orbital with L=  1

POLgen: Polarization orbital for state 1s

   izeta = 1
                     rc =    6.518340
                 energy =    0.533861
                kinetic =    1.121086
    potential(screened) =   -0.587225
       potential(ionic) =   -1.053027
atom: Total number of Sankey-type orbitals:  5

atm_pop: Valence configuration (for local Pseudopot. screening):
 1s( 1.00)                                                            
Vna: chval, zval:    1.00000   1.00000

Vna:  Cut-off radius for the neutral-atom potential:   6.518340

atom: _________________________________________________________________________

<basis_specs>
===============================================================================
N                    Z=   7    Mass=  14.010        Charge= 0.17977+309
Lmxo=1 Lmxkb= 3    BasisType=split      Semic=F
L=0  Nsemic=0  Cnfigmx=2
          i=1  nzeta=2  polorb=0  (2s)
            splnorm:   0.28000    
               vcte:    0.0000    
               rinn:    0.0000    
               qcoe:    0.0000    
               qyuk:    0.0000    
               qwid:   0.10000E-01
                rcs:    0.0000      0.0000    
            lambdas:    1.0000      1.0000    
L=1  Nsemic=0  Cnfigmx=2
          i=1  nzeta=2  polorb=1  (2p)
            splnorm:   0.28000    
               vcte:    0.0000    
               rinn:    0.0000    
               qcoe:    0.0000    
               qyuk:    0.0000    
               qwid:   0.10000E-01
                rcs:    0.0000      0.0000    
            lambdas:    1.0000      1.0000    
-------------------------------------------------------------------------------
L=0  Nkbl=1  erefs: 0.17977+309
L=1  Nkbl=1  erefs: 0.17977+309
L=2  Nkbl=1  erefs: 0.17977+309
L=3  Nkbl=1  erefs: 0.17977+309
===============================================================================
</basis_specs>

atom: Called for N                     (Z =   7)

read_vps: Pseudopotential generation method:
read_vps: ATM4.2.7  Troullier-Martins                       
Valence charge for ps generation:    5.00000

xc_check: Exchange-correlation functional:
xc_check: GGA Perdew, Burke & Ernzerhof 1996
V l=0 = -2*Zval/r beyond r=  1.2889
V l=1 = -2*Zval/r beyond r=  1.2889
V l=2 = -2*Zval/r beyond r=  3.4178
V l=3 = -2*Zval/r beyond r=  2.4084
All V_l potentials equal beyond r=  3.3753
This should be close to max(r_c) in ps generation
All pots = -2*Zval/r beyond r=  3.4178

VLOCAL1: 99.0% of the norm of Vloc inside      3.810 Ry
VLOCAL1: 99.9% of the norm of Vloc inside      8.683 Ry
atom: Maximum radius for 4*pi*r*r*local-pseudopot. charge    4.02088
atom: Maximum radius for r*vlocal+2*Zval:    3.54838
GHOST: No ghost state for L =  0
GHOST: No ghost state for L =  1
GHOST: No ghost state for L =  2
GHOST: No ghost state for L =  3

KBgen: Kleinman-Bylander projectors: 
   l= 0   rc=  3.417763   el= -1.365098   Ekb= -4.433130   kbcos= -0.707855
   l= 1   rc=  3.375302   el= -0.521201   Ekb=-13.264039   kbcos= -0.535594
   l= 2   rc=  3.872880   el=  0.001991   Ekb= -0.641094   kbcos= -0.062456
   l= 3   rc=  3.970931   el=  0.003093   Ekb= -0.474517   kbcos= -0.018236

KBgen: Total number of Kleinman-Bylander projectors:   16
atom: -------------------------------------------------------------------------

atom: SANKEY-TYPE ORBITALS:
atom: Selected multiple-zeta basis: split     

SPLIT: Orbitals with angular momentum L= 0

SPLIT: Basis orbitals for state 2s

SPLIT: PAO cut-off radius determined from an
SPLIT: energy shift=  0.002000 Ry

   izeta = 1
                 lambda =    1.000000
                     rc =    4.730425
                 energy =   -1.363399
                kinetic =    1.245246
    potential(screened) =   -2.608645
       potential(ionic) =   -8.121105

   izeta = 2
                 rmatch =    2.531849
              splitnorm =    0.280000
                 energy =   -0.959908
                kinetic =    2.409435
    potential(screened) =   -3.369343
       potential(ionic) =   -9.427975

SPLIT: Orbitals with angular momentum L= 1

SPLIT: Basis orbitals for state 2p

SPLIT: PAO cut-off radius determined from an
SPLIT: energy shift=  0.002000 Ry

   izeta = 1
                 lambda =    1.000000
                     rc =    5.924108
                 energy =   -0.519262
                kinetic =    3.672940
    potential(screened) =   -4.192202
       potential(ionic) =   -9.518354

   izeta = 2
                 rmatch =    2.531849
              splitnorm =    0.280000
                 energy =   -0.104258
                kinetic =    6.807538
    potential(screened) =   -6.911796
       potential(ionic) =  -13.149920

POLgen: Perturbative polarization orbital with L=  2

POLgen: Polarization orbital for state 2p

   izeta = 1
                     rc =    5.924108
                 energy =    1.427508
                kinetic =    2.872379
    potential(screened) =   -1.444871
       potential(ionic) =   -5.563644
atom: Total number of Sankey-type orbitals: 13

atm_pop: Valence configuration (for local Pseudopot. screening):
 2s( 2.00)                                                            
 2p( 3.00)                                                            
Vna: chval, zval:    5.00000   5.00000

Vna:  Cut-off radius for the neutral-atom potential:   5.924108

atom: _________________________________________________________________________

<basis_specs>
===============================================================================
Si                   Z=  14    Mass=  28.090        Charge= 0.17977+309
Lmxo=1 Lmxkb= 3    BasisType=split      Semic=F
L=0  Nsemic=0  Cnfigmx=3
          i=1  nzeta=2  polorb=0  (3s)
            splnorm:   0.28000    
               vcte:    0.0000    
               rinn:    0.0000    
               qcoe:    0.0000    
               qyuk:    0.0000    
               qwid:   0.10000E-01
                rcs:    0.0000      0.0000    
            lambdas:    1.0000      1.0000    
L=1  Nsemic=0  Cnfigmx=3
          i=1  nzeta=2  polorb=1  (3p)
            splnorm:   0.28000    
               vcte:    0.0000    
               rinn:    0.0000    
               qcoe:    0.0000    
               qyuk:    0.0000    
               qwid:   0.10000E-01
                rcs:    0.0000      0.0000    
            lambdas:    1.0000      1.0000    
-------------------------------------------------------------------------------
L=0  Nkbl=1  erefs: 0.17977+309
L=1  Nkbl=1  erefs: 0.17977+309
L=2  Nkbl=1  erefs: 0.17977+309
L=3  Nkbl=1  erefs: 0.17977+309
===============================================================================
</basis_specs>

atom: Called for Si                    (Z =  14)

read_vps: Pseudopotential generation method:
read_vps: ATM4.2.7  Troullier-Martins                       
Valence charge for ps generation:    4.00000

xc_check: Exchange-correlation functional:
xc_check: GGA Perdew, Burke & Ernzerhof 1996
V l=0 = -2*Zval/r beyond r=  2.7826
V l=1 = -2*Zval/r beyond r=  2.7826
V l=2 = -2*Zval/r beyond r=  2.9253
V l=3 = -2*Zval/r beyond r=  2.7826
All V_l potentials equal beyond r=  2.8530
This should be close to max(r_c) in ps generation
All pots = -2*Zval/r beyond r=  2.9253

VLOCAL1: 99.0% of the norm of Vloc inside      5.333 Ry
VLOCAL1: 99.9% of the norm of Vloc inside     12.154 Ry
atom: Maximum radius for 4*pi*r*r*local-pseudopot. charge    3.39869
atom: Maximum radius for r*vlocal+2*Zval:    2.96205
GHOST: No ghost state for L =  0
GHOST: No ghost state for L =  1
GHOST: No ghost state for L =  2
GHOST: No ghost state for L =  3

KBgen: Kleinman-Bylander projectors: 
   l= 0   rc=  3.075247   el= -0.794092   Ekb=  5.879390   kbcos=  0.167461
   l= 1   rc=  3.153101   el= -0.300068   Ekb=  2.642817   kbcos=  0.058301
   l= 2   rc=  3.273594   el=  0.001958   Ekb= -1.185135   kbcos= -0.104411
   l= 3   rc=  3.232927   el=  0.003046   Ekb= -0.497174   kbcos= -0.015889

KBgen: Total number of Kleinman-Bylander projectors:   16
atom: -------------------------------------------------------------------------

atom: SANKEY-TYPE ORBITALS:
atom: Selected multiple-zeta basis: split     

SPLIT: Orbitals with angular momentum L= 0

SPLIT: Basis orbitals for state 3s

SPLIT: PAO cut-off radius determined from an
SPLIT: energy shift=  0.002000 Ry

   izeta = 1
                 lambda =    1.000000
                     rc =    6.429618
                 energy =   -0.792283
                kinetic =    0.525293
    potential(screened) =   -1.317576
       potential(ionic) =   -3.744923

   izeta = 2
                 rmatch =    3.998416
              splitnorm =    0.280000
                 energy =   -0.583081
                kinetic =    1.069570
    potential(screened) =   -1.652651
       potential(ionic) =   -4.235185

SPLIT: Orbitals with angular momentum L= 1

SPLIT: Basis orbitals for state 3p

SPLIT: PAO cut-off radius determined from an
SPLIT: energy shift=  0.002000 Ry

   izeta = 1
                 lambda =    1.000000
                     rc =    8.464845
                 energy =   -0.298236
                kinetic =    0.785360
    potential(screened) =   -1.083596
       potential(ionic) =   -3.273779

   izeta = 2
                 rmatch =    4.587816
              splitnorm =    0.280000
                 energy =   -0.131871
                kinetic =    1.403687
    potential(screened) =   -1.535557
       potential(ionic) =   -4.015310

POLgen: Perturbative polarization orbital with L=  2

POLgen: Polarization orbital for state 3p

   izeta = 1
                     rc =    8.464845
                 energy =    0.321949
                kinetic =    1.055677
    potential(screened) =   -0.733728
       potential(ionic) =   -2.672950
atom: Total number of Sankey-type orbitals: 13

atm_pop: Valence configuration (for local Pseudopot. screening):
 3s( 2.00)                                                            
 3p( 2.00)                                                            
Vna: chval, zval:    4.00000   4.00000

Vna:  Cut-off radius for the neutral-atom potential:   8.464845

atom: _________________________________________________________________________

<basis_specs>
===============================================================================
O                    Z=   8    Mass=  16.000        Charge= 0.17977+309
Lmxo=1 Lmxkb= 3    BasisType=split      Semic=F
L=0  Nsemic=0  Cnfigmx=2
          i=1  nzeta=2  polorb=0  (2s)
            splnorm:   0.28000    
               vcte:    0.0000    
               rinn:    0.0000    
               qcoe:    0.0000    
               qyuk:    0.0000    
               qwid:   0.10000E-01
                rcs:    0.0000      0.0000    
            lambdas:    1.0000      1.0000    
L=1  Nsemic=0  Cnfigmx=2
          i=1  nzeta=2  polorb=1  (2p)
            splnorm:   0.28000    
               vcte:    0.0000    
               rinn:    0.0000    
               qcoe:    0.0000    
               qyuk:    0.0000    
               qwid:   0.10000E-01
                rcs:    0.0000      0.0000    
            lambdas:    1.0000      1.0000    
-------------------------------------------------------------------------------
L=0  Nkbl=1  erefs: 0.17977+309
L=1  Nkbl=1  erefs: 0.17977+309
L=2  Nkbl=1  erefs: 0.17977+309
L=3  Nkbl=1  erefs: 0.17977+309
===============================================================================
</basis_specs>

atom: Called for O                     (Z =   8)

read_vps: Pseudopotential generation method:
read_vps: ATM4.2.7  Troullier-Martins                       
Valence charge for ps generation:    6.00000

xc_check: Exchange-correlation functional:
xc_check: GGA Perdew, Burke & Ernzerhof 1996
V l=0 = -2*Zval/r beyond r=  1.1000
V l=1 = -2*Zval/r beyond r=  1.1000
V l=2 = -2*Zval/r beyond r=  2.2154
V l=3 = -2*Zval/r beyond r=  1.1000
All V_l potentials equal beyond r=  2.2154
This should be close to max(r_c) in ps generation
All pots = -2*Zval/r beyond r=  2.2154

VLOCAL1: 99.0% of the norm of Vloc inside      8.845 Ry
VLOCAL1: 99.9% of the norm of Vloc inside     20.157 Ry
atom: Maximum radius for 4*pi*r*r*local-pseudopot. charge    2.67231
atom: Maximum radius for r*vlocal+2*Zval:    2.32897
GHOST: No ghost state for L =  0
GHOST: No ghost state for L =  1
GHOST: No ghost state for L =  2
GHOST: No ghost state for L =  3

KBgen: Kleinman-Bylander projectors: 
   l= 0   rc=  2.243238   el= -1.759686   Ekb=**********   kbcos= -0.171774
   l= 1   rc=  2.328968   el= -0.663873   Ekb=-14.506792   kbcos= -0.519897
   l= 2   rc=  2.573941   el=  0.002031   Ekb= -1.137373   kbcos= -0.019581
   l= 3   rc=  2.606321   el=  0.003153   Ekb= -1.013546   kbcos= -0.003122

KBgen: Total number of Kleinman-Bylander projectors:   16
atom: -------------------------------------------------------------------------

atom: SANKEY-TYPE ORBITALS:
atom: Selected multiple-zeta basis: split     

SPLIT: Orbitals with angular momentum L= 0

SPLIT: Basis orbitals for state 2s

SPLIT: PAO cut-off radius determined from an
SPLIT: energy shift=  0.002000 Ry

   izeta = 1
                 lambda =    1.000000
                     rc =    4.243912
                 energy =   -1.758270
                kinetic =    3.286084
    potential(screened) =   -5.044353
       potential(ionic) =  -12.921184

   izeta = 2
                 rmatch =    2.187845
              splitnorm =    0.280000
                 energy =   -0.885018
                kinetic =    8.134434
    potential(screened) =   -9.019452
       potential(ionic) =  -17.710645

SPLIT: Orbitals with angular momentum L= 1

SPLIT: Basis orbitals for state 2p

SPLIT: PAO cut-off radius determined from an
SPLIT: energy shift=  0.002000 Ry

   izeta = 1
                 lambda =    1.000000
                     rc =    5.314825
                 energy =   -0.661986
                kinetic =    4.917472
    potential(screened) =   -5.579458
       potential(ionic) =  -13.236259

   izeta = 2
                 rmatch =    2.160663
              splitnorm =    0.280000
                 energy =   -0.068760
                kinetic =    9.183374
    potential(screened) =   -9.252135
       potential(ionic) =  -18.274251

POLgen: Perturbative polarization orbital with L=  2

POLgen: Polarization orbital for state 2p

   izeta = 1
                     rc =    5.314825
                 energy =    1.970580
                kinetic =    3.886128
    potential(screened) =   -1.915547
       potential(ionic) =   -7.749584
atom: Total number of Sankey-type orbitals: 13

atm_pop: Valence configuration (for local Pseudopot. screening):
 2s( 2.00)                                                            
 2p( 4.00)                                                            
Vna: chval, zval:    6.00000   6.00000

Vna:  Cut-off radius for the neutral-atom potential:   5.314825

atom: _________________________________________________________________________

prinput: Basis input ----------------------------------------------------------

PAO.BasisType split     

%block ChemicalSpeciesLabel
    1    1 H                       # Species index, atomic number, species label
    2    7 N                       # Species index, atomic number, species label
    3   14 Si                      # Species index, atomic number, species label
    4    8 O                       # Species index, atomic number, species label
%endblock ChemicalSpeciesLabel

%block PAO.Basis                 # Define Basis set
H                     1                    # Species label, number of l-shells
 n=1   0   2 P   1                   # n, l, Nzeta, Polarization, NzetaPol
   6.518      2.141   
   1.000      1.000   
N                     2                    # Species label, number of l-shells
 n=2   0   2                         # n, l, Nzeta 
   4.730      2.532   
   1.000      1.000   
 n=2   1   2 P   1                   # n, l, Nzeta, Polarization, NzetaPol
   5.924      2.532   
   1.000      1.000   
Si                    2                    # Species label, number of l-shells
 n=3   0   2                         # n, l, Nzeta 
   6.430      3.998   
   1.000      1.000   
 n=3   1   2 P   1                   # n, l, Nzeta, Polarization, NzetaPol
   8.465      4.588   
   1.000      1.000   
O                     2                    # Species label, number of l-shells
 n=2   0   2                         # n, l, Nzeta 
   4.244      2.188   
   1.000      1.000   
 n=2   1   2 P   1                   # n, l, Nzeta, Polarization, NzetaPol
   5.315      2.161   
   1.000      1.000   
%endblock PAO.Basis

prinput: ----------------------------------------------------------------------

Dumping basis to NetCDF file H.ion.nc
Dumping basis to NetCDF file N.ion.nc
Dumping basis to NetCDF file Si.ion.nc
Dumping basis to NetCDF file O.ion.nc
coor:   Atomic-coordinates input format  =     Cartesian coordinates
coor:                                          (in Angstroms)

siesta: Atomic coordinates (Bohr) and species
siesta:     -0.74869  10.82179   0.00000  1        1
siesta:     -2.08376   9.32884   0.00000  2        2
siesta:     -5.35353  10.16290   0.00000  3        3
siesta:     -5.64791  12.97857   0.00000  1        4
siesta:     -8.23219   7.21699   0.00000  3        5
siesta:    -11.03501   7.67587   0.00000  1        6
siesta:     -5.96756   3.60142   0.00000  3        7
siesta:     -7.41514   0.70500   0.00000  2        8
siesta:     -6.29973  -1.10387   0.00000  1        9
siesta:     -9.40242   0.55295   0.00000  1       10
siesta:     -2.72441   3.70568   0.00000  2       11
siesta:     -0.69291   6.21966   0.00000  3       12
siesta:      2.34704   6.18411   0.00000  4       13
siesta:     10.61355 -14.07759   0.00000  1       14
siesta:      8.65886 -13.66658   0.00000  2       15
siesta:      6.22979 -16.04876   0.00000  3       16
siesta:      7.18318 -18.71532  -0.00000  1       17
siesta:      3.13570 -15.14356   0.00000  2       18
siesta:      3.17659 -11.72506  -0.00000  3       19
siesta:      1.03072  -8.10005   0.00000  3       20
siesta:     -1.95457  -7.45403   0.00000  4       21
siesta:      3.27352  -5.43711   0.00000  2       22
siesta:      2.28576  -3.64645  -0.00000  1       23
siesta:      6.63017  -5.24735   0.00000  3       24
siesta:      7.81751  -2.22872   0.00000  2       25
siesta:      6.69523  -0.49602   0.00000  1       26
siesta:      9.79567  -1.98858  -0.00000  1       27
siesta:      8.75489  -7.70105  -0.00000  2       28
siesta:      7.16982 -10.55666   0.00000  3       29

siesta: Automatic unit cell vectors (Ang):
siesta:   20.190097    0.000000    0.000000
siesta:    0.000000   26.037432    0.000000
siesta:    0.000000    0.000000    9.854683

siesta: System type = molecule  

initatomlists: Number of atoms, orbitals, and projectors:     29   297   394

siesta: ******************** Simulation parameters ****************************
siesta:
siesta: The following are some of the parameters of the simulation.
siesta: A complete list of the parameters used, including default values,
siesta: can be found in file out.fdf
siesta:
redata: Spin configuration                          = spin-orbit
redata: Number of spin components                   = 8
redata: Time-Reversal Symmetry                      = F
redata: Spin spiral                                 = F
############################################################
This spin-orbit implementation uses a local approximation.
From 4.2 and onwards the full non-local approximation is implemented
You are strongly advised to use >=4.2 versions!
############################################################
redata: Long output                                 =   F
redata: Number of Atomic Species                    =        4
redata: Charge density info will appear in .RHO file
redata: Write Mulliken Pop.                         = NO
redata: Matel table size (NRTAB)                    =     1024
redata: Mesh Cutoff                                 =   340.0000 Ry
redata: Net charge of the system                    =     0.0000 |e|
redata: Min. number of SCF Iter                     =        1
redata: Max. number of SCF Iter                     =      600
redata: SCF convergence failure will abort job
redata: SCF mix quantity                            = Hamiltonian
redata: Mix DM or H after convergence               =   F
redata: Recompute H after scf cycle                 =   F
redata: Mix DM in first SCF step                    =   T
redata: Write Pulay info on disk                    =   F
redata: New DM Occupancy tolerance                  = 0.000000000001
redata: No kicks to SCF
redata: DM Mixing Weight for Kicks                  =     0.5000
redata: Require Harris convergence for SCF          =   F
redata: Harris energy tolerance for SCF             =     0.000100 eV
redata: Require DM convergence for SCF              =   T
redata: DM tolerance for SCF                        =     0.000008
redata: Require EDM convergence for SCF             =   F
redata: EDM tolerance for SCF                       =     0.001000 eV
redata: Require H convergence for SCF               =   T
redata: Hamiltonian tolerance for SCF               =     0.000001 eV
redata: Require (free) Energy convergence for SCF   =   F
redata: (free) Energy tolerance for SCF             =     0.000100 eV
redata: Using Saved Data (generic)                  =   F
redata: Use continuation files for DM               =   T
redata: Neglect nonoverlap interactions             =   F
redata: Method of Calculation                       = Diagonalization
redata: Electronic Temperature                      =   299.9978 K
redata: Fix the spin of the system                  =   F
redata: Dynamics option                             = Single-point calculation
mix.SCF: Pulay mixing                            = Pulay
mix.SCF:    Variant                              = stable
mix.SCF:    History steps                        = 6
mix.SCF:    Linear mixing weight                 =     0.250000
mix.SCF:    Mixing weight                        =     0.250000
mix.SCF:    SVD condition                        = 0.1000E-07
mix.SCF:    Restart steps                        = 24
mix.SCF:    Restart save steps                   = 3
mix.SCF: Spin-component mixing                   all
redata: Save all siesta data in one NC              =   F
redata: ***********************************************************************

%block SCF.Mixers
  Pulay
%endblock SCF.Mixers

%block SCF.Mixer.Pulay
  # Mixing method
  method pulay
  variant stable

  # Mixing options
  weight 0.2500
  weight.linear 0.2500
  history 6
  restart 24
  restart.save 3
%endblock SCF.Mixer.Pulay

DM_history_depth set to one: no extrapolation allowed by default for geometry relaxation
Size of DM history Fstack: 1
Total number of electrons:    98.000000
Total ionic charge:    98.000000

* ProcessorY, Blocksize:    2  24


* Orbital distribution balance (max,min):    57    48


Time-reversal symmetry not used.

siesta: k-grid: Number of k-points =     1
siesta: k-grid: Cutoff (effective) =     4.927 Ang
siesta: k-grid: Supercell and displacements
siesta: k-grid:    1   0   0      0.000
siesta: k-grid:    0   1   0      0.000
siesta: k-grid:    0   0   1      0.000

diag: Algorithm                                     = ELPA-1stage
diag: Parallel over k                               =   F
diag: Use parallel 2D distribution                  =   T
diag: Parallel block-size                           = 24
diag: Parallel distribution                         =     2 x     3
diag: Used triangular part                          = Lower
diag: Absolute tolerance                            =  0.100E-15
diag: Orthogonalization factor                      =  0.100E-05
diag: Memory factor                                 =  1.0000


ts: **************************************************************
ts: Save H and S matrices                           =    F
ts: Save DM and EDM matrices                        =    F
ts: Only save the overlap matrix S                  =    F
ts: **************************************************************

************************ Begin: TS CHECKS AND WARNINGS ************************
************************ End: TS CHECKS AND WARNINGS **************************


                     ====================================
                        Single-point calculation
                     ====================================

outcoor: Atomic coordinates (Ang):                          
   -0.39619099    5.72664267    0.00000000   1       1  H
   -1.10267772    4.93660649    0.00000000   2       2  N
   -2.83296463    5.37797040    0.00000000   3       3  Si
   -2.98874431    6.86796266    0.00000000   1       4  H
   -4.35628625    3.81906288    0.00000000   3       5  Si
   -5.83947388    4.06189324    0.00000000   1       6  H
   -3.15789539    1.90578672    0.00000000   3       7  Si
   -3.92392085    0.37306998    0.00000000   2       8  N
   -3.33367430   -0.58414305    0.00000000   1       9  H
   -4.97554317    0.29260975    0.00000000   1      10  H
   -1.44169533    1.96096103    0.00000000   2      11  N
   -0.36667271    3.29129987    0.00000000   3      12  Si
    1.24200061    3.27248961    0.00000000   4      13  O
    5.61644830   -7.44953905    0.00000000   1      14  H
    4.58206954   -7.23203760    0.00000000   2      15  N
    3.29666389   -8.49263600    0.00000000   3      16  Si
    3.80117524   -9.90371886    0.00000000   1      17  H
    1.65934232   -8.01362137    0.00000000   2      18  N
    1.68097912   -6.20463398    0.00000000   3      19  Si
    0.54543521   -4.28636135    0.00000000   3      20  Si
   -1.03431493   -3.94450034    0.00000000   4      21  O
    1.73226934   -2.87719605    0.00000000   2      22  N
    1.20957366   -1.92961761    0.00000000   1      23  H
    3.50853448   -2.77677601    0.00000000   3      24  Si
    4.13684451   -1.17938608    0.00000000   2      25  N
    3.54296161   -0.26248101    0.00000000   1      26  H
    5.18364407   -1.05231197    0.00000000   1      27  H
    4.63288658   -4.07521596    0.00000000   2      28  N
    3.79410501   -5.58634043    0.00000000   3      29  Si

outcell: Unit cell vectors (Ang):
       20.190097    0.000000    0.000000
        0.000000   26.037432    0.000000
        0.000000    0.000000    9.854683

outcell: Cell vector modules (Ang)   :   20.190097   26.037432    9.854683
outcell: Cell angles (23,13,12) (deg):     90.0000     90.0000     90.0000
outcell: Cell volume (Ang**3)        :   5180.5902
<dSpData1D:S at geom step 0
  <sparsity:sparsity for geom step 0
    nrows_g=297 nrows=57 sparsity=.1013 nnzs=8937, refcount: 8>
  <dData1D:(new from dSpData1D) n=8937, refcount: 1>
refcount: 1>
new_DM -- step:     1
Initializing Density Matrix...

Attempting to read DM from file... Failed...
DM filled with atomic data:
<dSpData2D:DM initialized from atoms
  <sparsity:sparsity for geom step 0
    nrows_g=297 nrows=57 sparsity=.1013 nnzs=8937, refcount: 9>
  <dData2D:DM n=8937 m=8, refcount: 1>
refcount: 1>
     spin moment: S , {S} =   56.00000   0.00000   0.00000  56.00000
No. of atoms with KB's overlaping orbs in proc 0. Max # of overlaps:      28     150

Initializing spin-orbit part of the Hamiltonian
  Adding spin-orbit effects for H 
  Adding spin-orbit effects for N 
  Adding spin-orbit effects for Si
  Adding spin-orbit effects for O 


New grid distribution:   1
           1       1:  120    1:   75    1:   20
           2       1:  120    1:   75   21:   40
           3       1:  120    1:   75   41:   60
           4       1:  120   76:  150    1:   20
           5       1:  120   76:  150   21:   40
           6       1:  120   76:  150   41:   60

InitMesh: MESH =   240 x   300 x   120 =     8640000
InitMesh: (bp) =   120 x   150 x    60 =     1080000
InitMesh: Mesh cutoff (required, used) =   340.000   366.900 Ry
ExtMesh (bp) on 0 =   228 x   179 x   132 =     5387184
New grid distribution:   2
           1       1:   80    1:  106    1:   60
           2      81:  120    1:   20    1:   60
           3       1:   16  107:  150    1:   60
           4      17:  120  127:  150    1:   60
           5      81:  120   21:  106    1:   60
           6      17:  120  107:  126    1:   60
New grid distribution:   3
           1      33:  120   25:   92    1:   60
           2       1:   32    1:   92    1:   60
           3      33:  120    1:   24    1:   60
           4       1:   22   93:  150    1:   60
           5      23:  120   93:  126    1:   60
           6      23:  120  127:  150    1:   60
Setting up quadratic distribution...
ExtMesh (bp) on 0 =   188 x   210 x   172 =     6790560
PhiOnMesh: Number of (b)points on node 0 =               508800
PhiOnMesh: nlist on node 0 =              2364716

stepf: Fermi-Dirac step function

siesta: Program's energy decomposition (eV):
siesta: Ebs     =      -618.931408
siesta: Eions   =      3585.165840
siesta: Ena     =       381.828221
siesta: Ekin    =      3368.987597
siesta: Enl     =     -3297.359442
siesta: Eso     =        -0.003409
siesta: Edftu   =         0.000000
siesta: DEna    =       153.560702
siesta: DUscf   =        81.584656
siesta: DUext   =         0.000000
siesta: Exc     =     -1204.032965
siesta: eta*DQ  =         0.000000
siesta: Emadel  =         0.000000
siesta: Emeta   =         0.000000
siesta: Emolmec =         0.000000
siesta: Ekinion =         0.000000
siesta: Eharris =     -4021.413039
siesta: Etot    =     -4100.600480
siesta: FreeEng =     -4100.601516

        iscf     Eharris(eV)        E_KS(eV)     FreeEng(eV)     dDmax    Ef(eV) dHmax(eV)
   scf:    1    -4021.413039    -4100.600480    -4100.601516  0.965634 -4.903597 21.860571
     spin moment: S , {S} =    2.00583   0.00000   0.00000   2.00583
timer: Routine,Calls,Time,% = IterSCF        1       6.592  25.21
   scf:    2    -4147.588446    -4136.098000    -4136.100112  0.453252 -4.208939 12.208470
     spin moment: S , {S} =    1.98825  -0.00000  -0.00000   1.98825
   scf:    3    -4109.181942    -4133.894718    -4133.902017  0.424420 -4.330177 11.725900
     spin moment: S , {S} =    2.02481  -0.00000   0.00000   2.02481
   scf:    4    -4149.539419    -4144.991785    -4144.991786  0.323297 -3.902238  6.924260
     spin moment: S , {S} =    0.00010  -0.00000   0.00000   0.00010
   scf:    5    -4146.279823    -4145.738525    -4145.738525  0.035282 -3.695407  4.254297
     spin moment: S , {S} =    0.00006   0.00000   0.00000   0.00006
   scf:    6    -4146.530827    -4146.144246    -4146.144246  0.024517 -3.510346  2.073256
     spin moment: S , {S} =    0.00003   0.00000   0.00000   0.00003
   scf:    7    -4146.497266    -4146.317581    -4146.317581  0.021024 -3.711237  0.889292
     spin moment: S , {S} =    0.00001   0.00000   0.00000   0.00001
   scf:    8    -4146.437865    -4146.375823    -4146.375823  0.012340 -3.638236  0.490656
     spin moment: S , {S} =    0.00000   0.00000   0.00000   0.00000
   scf:    9    -4146.413885    -4146.394201    -4146.394201  0.006518 -3.753231  0.359840
     spin moment: S , {S} =    0.00000   0.00000   0.00000   0.00000
   scf:   10    -4146.444146    -4146.413718    -4146.413718  0.020341 -3.783106  0.223030
     spin moment: S , {S} =    0.00000   0.00000   0.00000  -0.00000
   scf:   11    -4146.417368    -4146.415488    -4146.415488  0.005829 -3.771647  0.056518
     spin moment: S , {S} =    0.00000   0.00000  -0.00000  -0.00000
   scf:   12    -4146.416419    -4146.415966    -4146.415966  0.001082 -3.767873  0.024025
     spin moment: S , {S} =    0.00000   0.00000   0.00000   0.00000
   scf:   13    -4146.416379    -4146.416169    -4146.416169  0.001292 -3.765357  0.015241
     spin moment: S , {S} =    0.00000  -0.00000  -0.00000   0.00000
   scf:   14    -4146.416412    -4146.416283    -4146.416283  0.001239 -3.764715  0.012262
     spin moment: S , {S} =    0.00000  -0.00000  -0.00000   0.00000
   scf:   15    -4146.416395    -4146.416335    -4146.416335  0.001017 -3.763524  0.009136
     spin moment: S , {S} =    0.00000  -0.00000  -0.00000   0.00000
   scf:   16    -4146.416416    -4146.416370    -4146.416370  0.001120 -3.763807  0.005936
     spin moment: S , {S} =    0.00000  -0.00000  -0.00000   0.00000
   scf:   17    -4146.416392    -4146.416380    -4146.416380  0.000552 -3.763737  0.004282
     spin moment: S , {S} =    0.00000  -0.00000  -0.00000   0.00000
   scf:   18    -4146.416391    -4146.416384    -4146.416384  0.000415 -3.763739  0.002394
     spin moment: S , {S} =    0.00000  -0.00000  -0.00000   0.00000
   scf:   19    -4146.416389    -4146.416387    -4146.416387  0.000282 -3.763782  0.001374
     spin moment: S , {S} =    0.00000  -0.00000  -0.00000   0.00000
   scf:   20    -4146.416388    -4146.416387    -4146.416387  0.000176 -3.763827  0.000753
     spin moment: S , {S} =    0.00000  -0.00000  -0.00000   0.00000
   scf:   21    -4146.416388    -4146.416388    -4146.416388  0.000128 -3.763849  0.000278
     spin moment: S , {S} =    0.00000  -0.00000  -0.00000   0.00000
   scf:   22    -4146.416388    -4146.416388    -4146.416388  0.000051 -3.763835  0.000135
     spin moment: S , {S} =    0.00000  -0.00000  -0.00000   0.00000
   scf:   23    -4146.416388    -4146.416388    -4146.416388  0.000011 -3.763822  0.000089
     spin moment: S , {S} =    0.00000  -0.00000  -0.00000   0.00000
   scf:   24    -4146.416388    -4146.416388    -4146.416388  0.000004 -3.763810  0.000046
     spin moment: S , {S} =    0.00000  -0.00000  -0.00000   0.00000
mix: Pulay -- resetting history
   scf:   25    -4146.416388    -4146.416388    -4146.416388  0.000003 -3.763804  0.000031
     spin moment: S , {S} =    0.00000  -0.00000  -0.00000   0.00000
   scf:   26    -4146.416388    -4146.416388    -4146.416388  0.000002 -3.763802  0.000019
     spin moment: S , {S} =    0.00000  -0.00000  -0.00000   0.00000
   scf:   27    -4146.416388    -4146.416388    -4146.416388  0.000001 -3.763802  0.000011
     spin moment: S , {S} =    0.00000  -0.00000  -0.00000   0.00000
   scf:   28    -4146.416388    -4146.416388    -4146.416388  0.000001 -3.763802  0.000005
     spin moment: S , {S} =    0.00000  -0.00000  -0.00000  -0.00000
   scf:   29    -4146.416388    -4146.416388    -4146.416388  0.000000 -3.763802  0.000003
     spin moment: S , {S} =    0.00000  -0.00000  -0.00000   0.00000
   scf:   30    -4146.416388    -4146.416388    -4146.416388  0.000000 -3.763802  0.000001
     spin moment: S , {S} =    0.00000  -0.00000  -0.00000   0.00000
   scf:   31    -4146.416388    -4146.416388    -4146.416388  0.000000 -3.763802  0.000001
     spin moment: S , {S} =    0.00000  -0.00000  -0.00000   0.00000

SCF Convergence by DM+H criterion
max |DM_out - DM_in|         :     0.0000002772
max |H_out - H_in|      (eV) :     0.0000008827
SCF cycle converged after 31 iterations

Using DM_out to compute the final energy and forces
No. of atoms with KB's overlaping orbs in proc 0. Max # of overlaps:      28     150

siesta: E_KS(eV) =            -4146.4164

siesta: E_KS - E_eggbox =     -4146.4164
     spin moment: S , {S} =    0.00000  -0.00000  -0.00000   0.00000

siesta: Atomic forces (eV/Ang):
     1   -0.035760   -0.021447   -0.000000
     2   -0.523767    0.238215   -0.000000
     3    0.399020   -0.023824   -0.000000
     4   -0.101899    0.090434    0.000000
     5   -0.198325   -0.208856    0.000000
     6    0.037096    0.081338   -0.000000
     7    1.140653    0.977016    0.000000
     8    0.808788   -2.264690   -0.000000
     9   -1.291492    1.741187   -0.000000
    10    0.157966   -0.323684   -0.000000
    11   -0.949370   -0.303684   -0.000000
    12    1.141686   -0.228318    0.000000
    13    2.156068    2.567153    0.000000
    14    0.074877   -0.049465    0.000000
    15    0.107104    0.028507    0.000000
    16    0.022224   -0.013856    0.000000
    17   -0.138389    0.095756    0.000000
    18   -0.006243    0.037534   -0.000000
    19    0.249016    0.030931   -0.000000
    20   -1.311992   -0.161871   -0.000000
    21    3.949057    1.161079    0.000000
    22    0.328667    0.726071    0.000000
    23    0.187246   -0.552569   -0.000000
    24   -0.320698   -0.901483   -0.000000
    25   -0.488817    1.535072    0.000000
    26    0.681663   -1.124263   -0.000000
    27   -0.074038    0.169287    0.000000
    28    0.059074    0.720237    0.000000
    29   -0.290220   -0.388739   -0.000000
----------------------------------------
   Tot    5.769194    3.633068   -0.000000
----------------------------------------
   Max    3.949057
   Res    0.779548    sqrt( Sum f_i^2 / 3N )
----------------------------------------
   Max    3.949057    constrained

Stress tensor Voigt[x,y,z,yz,xz,xy] (kbar):        1.33        0.69       -0.08       -0.00       -0.00       -1.30
(Free)E + p*V (eV/cell)    -4148.5029
Target enthalpy (eV/cell)    -4146.4164

siesta: Eigenvalues (eV):
ik =     1
  -21.8455  -21.8455  -21.8401  -21.8401  -21.5526  -21.5526  -21.5501  -21.5501  -21.2292  -21.2292
  -21.0575  -21.0575  -20.8203  -20.8203  -19.8050  -19.8050  -19.3920  -19.3920  -19.3607  -19.3607
  -14.7511  -14.7511  -13.8866  -13.8866  -13.3266  -13.3266  -13.1569  -13.1569  -13.0663  -13.0663
  -12.8592  -12.8592  -12.8301  -12.8301  -12.4576  -12.4576  -12.4017  -12.4017  -12.0330  -12.0330
  -11.4065  -11.4065  -10.8095  -10.8095  -10.7570  -10.7570  -10.7252  -10.7252  -10.0855  -10.0855
   -9.5595   -9.5595   -9.2579   -9.2579   -8.8497   -8.8497   -8.7021   -8.7021   -8.6712   -8.6712
   -8.6219   -8.6219   -8.4125   -8.4125   -8.1753   -8.1753   -7.8257   -7.8257   -7.6469   -7.6469
   -7.6198   -7.6198   -7.3043   -7.3043   -7.2941   -7.2941   -6.8688   -6.8688   -6.7608   -6.7608
   -6.5109   -6.5109   -6.5007   -6.5007   -6.1226   -6.1226   -6.1173   -6.1173   -6.1074   -6.1074
   -5.7954   -5.7954   -5.6380   -5.6380   -5.4680   -5.4680   -4.3033   -4.3033   -3.2250   -3.2250
   -2.3158   -2.3158   -2.2955   -2.2955   -2.2868   -2.2868   -1.9008   -1.9008   -1.8475   -1.8475
   -1.8438   -1.8438   -1.7922   -1.7922   -1.5859   -1.5859   -1.5439   -1.5439   -0.9839   -0.9839
   -0.9298   -0.9298   -0.7950   -0.7950   -0.4070   -0.4070   -0.1775   -0.1775    0.0565    0.0565
    0.3869    0.3869    0.4139    0.4139    0.5595    0.5595    0.6949    0.6949    0.8079    0.8079
    0.9862    0.9862    1.2592    1.2592    1.3134    1.3134    1.4037    1.4037    1.4389    1.4389
    1.7290    1.7290    1.8437    1.8437    1.9319    1.9319    2.3240    2.3240    2.7307    2.7307
    2.7368    2.7368    2.8184    2.8184    2.9770    2.9770    3.1627    3.1627    3.3512    3.3512
    3.3903    3.3903    3.7530    3.7530    3.8234    3.8234    4.1063    4.1063    4.2779    4.2779
    4.4216    4.4216    4.4339    4.4339    4.5794    4.5794    4.6002    4.6002    4.8133    4.8133
    4.9160    4.9160    5.0025    5.0025    5.2401    5.2401    5.5070    5.5070    5.6884    5.6884
    5.7542    5.7542    5.7675    5.7675    5.8966    5.8966    5.9722    5.9722    6.0239    6.0239
    6.1825    6.1825    6.3608    6.3608    6.6157    6.6157    6.6919    6.6919    6.8364    6.8364
    7.0365    7.0365    7.1714    7.1714    7.4228    7.4228    7.5294    7.5294    7.7197    7.7197
    7.8269    7.8269    7.9728    7.9728    8.0986    8.0986    8.2676    8.2676    8.2884    8.2884
    8.5217    8.5217    8.7125    8.7125    8.8631    8.8631    8.9179    8.9179    9.1399    9.1399
    9.1927    9.1927    9.2433    9.2433    9.7096    9.7096    9.8369    9.8369    9.8432    9.8432
   10.0466   10.0466   10.1759   10.1759   10.4417   10.4417   10.7787   10.7787   10.8758   10.8758
   10.9684   10.9684   10.9949   10.9949   11.1540   11.1540   11.6872   11.6872   11.7397   11.7397
   11.8081   11.8081   11.8889   11.8889   12.1226   12.1226   12.3908   12.3908   12.7040   12.7040
   12.7294   12.7294   12.7911   12.7911   13.3014   13.3014   13.4727   13.4727   13.6518   13.6518
   13.7956   13.7956   14.1112   14.1112   14.2695   14.2695   14.6661   14.6661   14.7414   14.7414
   14.8653   14.8653   15.3508   15.3508   15.9946   15.9946   16.4481   16.4481   16.7214   16.7214
   16.9169   16.9169   17.3474   17.3474   17.6056   17.6056   18.1768   18.1768   18.4121   18.4121
   18.5928   18.5928   19.1934   19.1934   19.3217   19.3217   19.8919   19.8919   20.2891   20.2891
   20.9929   20.9929   21.2418   21.2418   21.9268   21.9268   22.2239   22.2239   22.3685   22.3685
   22.8969   22.8969   23.2483   23.2483   23.7106   23.7106   23.8028   23.8028   23.9236   23.9236
   24.8906   24.8906   25.3243   25.3243   25.9579   25.9579   26.6951   26.6951   27.5796   27.5796
   28.4907   28.4907   28.9960   28.9960   29.1577   29.1577   29.4219   29.4219   29.7065   29.7065
   29.9643   29.9643   30.0876   30.0876   30.2503   30.2503   30.7047   30.7047   30.8974   30.8974
   30.9914   30.9914   31.1790   31.1790   31.5811   31.5811   31.6367   31.6367   32.0678   32.0678
   32.6960   32.6960   33.8192   33.8192   34.5866   34.5866   34.6070   34.6070   34.9504   34.9504
   34.9599   34.9599   35.0188   35.0188   35.5052   35.5052   35.6078   35.6078   35.7929   35.7929
   36.7049   36.7049   36.8431   36.8431   37.0754   37.0754   37.2820   37.2820   37.6589   37.6589
   38.1355   38.1355   38.4822   38.4822   39.2657   39.2657   39.3993   39.3993   39.8739   39.8739
   40.3605   40.3605   40.5039   40.5039   40.5813   40.5813   40.8454   40.8454   40.8808   40.8808
   41.1425   41.1425   41.2392   41.2392   42.5099   42.5099   42.8660   42.8660   42.8989   42.8989
   43.3200   43.3200   43.7206   43.7206   43.9501   43.9501   43.9961   43.9961   44.3213   44.3213
   44.6465   44.6465   44.6942   44.6942   45.1399   45.1399   45.4633   45.4633   45.9651   45.9651
   46.4112   46.4112   47.0260   47.0260   47.3172   47.3172   48.7530   48.7530   49.2259   49.2259
   49.4416   49.4416   50.3155   50.3155   50.4507   50.4507   50.9702   50.9702   51.0629   51.0629
   51.5944   51.5944   51.6311   51.6311   52.6576   52.6576   53.0110   53.0110   54.1228   54.1228
   54.2542   54.2542   54.5815   54.5815   54.9353   54.9353   55.6635   55.6635   55.8198   55.8198
   55.8295   55.8295   56.1526   56.1526   56.3860   56.3860   58.2699   58.2699   58.3553   58.3553
   58.7021   58.7021   60.1462   60.1462   60.2128   60.2128   60.8128   60.8128   61.1465   61.1465
   61.8031   61.8031   61.9908   61.9908   62.1727   62.1727   64.7137   64.7137   66.5373   66.5373
   66.7962   66.7962   67.2454   67.2454   68.0555   68.0555   68.5712   68.5712   70.8527   70.8527
   73.7874   73.7874   80.3834   80.3834   91.1137   91.1137   92.0476   92.0476   93.2309   93.2309
   98.3019   98.3019   98.7866   98.7866   99.5069   99.5069  103.0990  103.0990  103.6600  103.6600
  110.0937  110.0937  111.7019  111.7019  124.0330  124.0330  126.2511  126.2511  129.2274  129.2274
  135.2165  135.2165  138.2999  138.2999
siesta: Fermi energy =      -3.763802 eV

siesta: Program's energy decomposition (eV):
siesta: Ebs     =     -1134.280108
siesta: Eions   =      3585.165840
siesta: Ena     =       381.828221
siesta: Ekin    =      2902.634993
siesta: Enl     =     -2787.347343
siesta: Eso     =        -0.004274
siesta: Edftu   =         0.000000
siesta: DEna    =        46.930767
siesta: DUscf   =        14.310358
siesta: DUext   =         0.000000
siesta: Exc     =     -1119.603270
siesta: eta*DQ  =         0.000000
siesta: Emadel  =         0.000000
siesta: Emeta   =         0.000000
siesta: Emolmec =         0.000000
siesta: Ekinion =         0.000000
siesta: Eharris =     -4146.416388
siesta: Etot    =     -4146.416388
siesta: FreeEng =     -4146.416388

siesta: Final energy (eV):
siesta:  Band Struct. =   -1134.280108
siesta:       Kinetic =    2902.634993
siesta:       Hartree =    8223.603915
siesta:       Edftu   =       0.000000
siesta:       Eso     =      -0.004274
siesta:    Ext. field =       0.000000
siesta:   Exch.-corr. =   -1119.603270
siesta:  Ion-electron =  -19030.752597
siesta:       Ion-ion =    4877.704845
siesta:       Ekinion =       0.000000
siesta:         Total =   -4146.416388
siesta:         Fermi =      -3.763802

siesta: Atomic forces (eV/Ang):
siesta:      1   -0.035760   -0.021447   -0.000000
siesta:      2   -0.523767    0.238215   -0.000000
siesta:      3    0.399020   -0.023824   -0.000000
siesta:      4   -0.101899    0.090434    0.000000
siesta:      5   -0.198325   -0.208856    0.000000
siesta:      6    0.037096    0.081338   -0.000000
siesta:      7    1.140653    0.977016    0.000000
siesta:      8    0.808788   -2.264690   -0.000000
siesta:      9   -1.291492    1.741187   -0.000000
siesta:     10    0.157966   -0.323684   -0.000000
siesta:     11   -0.949370   -0.303684   -0.000000
siesta:     12    1.141686   -0.228318    0.000000
siesta:     13    2.156068    2.567153    0.000000
siesta:     14    0.074877   -0.049465    0.000000
siesta:     15    0.107104    0.028507    0.000000
siesta:     16    0.022224   -0.013856    0.000000
siesta:     17   -0.138389    0.095756    0.000000
siesta:     18   -0.006243    0.037534   -0.000000
siesta:     19    0.249016    0.030931   -0.000000
siesta:     20   -1.311992   -0.161871   -0.000000
siesta:     21    3.949057    1.161079    0.000000
siesta:     22    0.328667    0.726071    0.000000
siesta:     23    0.187246   -0.552569   -0.000000
siesta:     24   -0.320698   -0.901483   -0.000000
siesta:     25   -0.488817    1.535072    0.000000
siesta:     26    0.681663   -1.124263   -0.000000
siesta:     27   -0.074038    0.169287    0.000000
siesta:     28    0.059074    0.720237    0.000000
siesta:     29   -0.290220   -0.388739   -0.000000
siesta: ----------------------------------------
siesta:    Tot    5.769194    3.633068   -0.000000

siesta: Stress tensor (static) (eV/Ang**3):
siesta:     0.000828   -0.000811   -0.000000
siesta:    -0.000811    0.000433    0.000000
siesta:    -0.000000   -0.000000   -0.000053

siesta: Cell volume =       5180.590170 Ang**3

siesta: Pressure (static):
siesta:                Solid            Molecule  Units
siesta:          -0.00000439         -0.00000376  Ry/Bohr**3
siesta:          -0.00040276         -0.00034521  eV/Ang**3
siesta:          -0.64529643         -0.55309780  kBar
(Free)E+ p_basis*V_orbitals  =       -4126.565970
(Free)Eharris+ p_basis*V_orbitals  =       -4126.565970
     spin moment: S , {S} =    0.00000  -0.00000  -0.00000   0.00000

siesta: Electric dipole (a.u.)  =    0.007679    1.551963    0.000000
siesta: Electric dipole (Debye) =    0.019519    3.944698    0.000000

cite: Please see "GC.bib" for an exhaustive BiBTeX file.
cite: Please clearly indicate Siesta version in published work: v4.1.5-1-g384057250
cite: This calculation has made use of the following articles
cite: which are encouraged to be cited in a published work.
        Primary SIESTA paper
          DOI: www.doi.org/10.1088/0953-8984/14/11/302
        Spin-orbit coupling (on-site approximation)
          DOI: www.doi.org/10.1088/0953-8984/19/19/489001


WARNING: alloc-realloc-dealloc name mismatch
         Name: atomlist isa
         Size:              -116. Bytes
         Node:     0
         Subsequent mismatches will not be reported
>> End of run:  16-OCT-2023  18:54:00
Job completed
