Siesta Version  : v4.1.5-1-g384057250
Architecture    : gcc
Compiler version: GNU Fortran (Ubuntu 11.4.0-1ubuntu1~22.04) 11.4.0
Compiler flags  : mpifort -O2 -fPIC -ftree-vectorize -fallow-argument-mismatch
PP flags        : -DFC_HAVE_ABORT -DMPI -DSIESTA__FLOOK -DSIESTA__METIS -DSIESTA__MUMPS -DCDF -DNCDF -DNCDF_4 -DNCDF_PARALLEL -DSIESTA__MRRR -DSIESTA__ELPA
Libraries       : libncdf.a libfdict.a  -lflookall -ldl -lnetcdff -lnetcdf -lhdf5_hl -lhdf5 -lhdf5_fortran -lz -lscalapack-openmpi -lopenblas -lmetis -lzmumps -lcmumps -ldmumps -lmumps_common -lpord -lsmumps -lesmumps -lscotch -lscotcherr -fopenmp -lelpa
PARALLEL version
NetCDF support
NetCDF-4 support
NetCDF-4 MPI-IO support
METIS ordering support
Lua support

* Running on 8 nodes in parallel
>> Start of run:   1-FEB-2024  22:38:24

                           ***********************       
                           *  WELCOME TO SIESTA  *       
                           ***********************       

reinit: Reading from standard input
reinit: Dumped input in INPUT_TMP.74615
************************** Dump of input data file ****************************
# mpirun -np 4 siesta-4.1.5 < GC.fdf > GC.out &
SystemLabel      GC
NumberOfAtoms    29
NumberOfSpecies  4
%block ChemicalSpeciesLabel
    1    1  H
    2    7  N
    3   14  Si
    4    8  O
%endblock ChemicalSpeciesLabel
############################################
# This overrides Defaults.fdf configuration
############################################
MD.TypeOfRun                Verlet # CG, Verlet
MD.Steps                    0
MaxSCFIterations            200
SCF.MustConverge            F
AtomicCoordinatesFormat NotScaledCartesianAng
%block AtomicCoordinatesAndAtomicSpecies
    -0.4147812598730105 5.7543105732295725 0.0  1  1  H
    -1.1212679898730105 4.964274393229572 0.0  2  2  N
    -2.8515548998730105 5.405638303229572 0.0  3  3  Si
    -3.0073345798730102 6.895630563229572 0.0  1  4  H
    -4.374876519873011 3.846730783229572 0.0  3  5  Si
    -5.858064149873011 4.089561143229572 0.0  1  6  H
    -3.1764856598730105 1.933454623229572 0.0  3  7  Si
    -3.9425111198730107 0.4007378832295718 0.0  2  8  N
    -3.3522645698730105 -0.5564751467704281 0.0  1  9  H
    -4.994133439873011 0.3202776532295719 0.0  1  10  H
    -1.4602855998730104 1.988628933229572 0.0  2  11  N
    -0.3852629798730105 3.3189677732295717 0.0  3  12  Si
    1.2234103401269893 3.300157513229572 0.0  4  13  O
    5.6164483 -7.44953905 0.0  1  14  H
    4.58206954 -7.2320376 0.0  2  15  N
    3.29666389 -8.492636 0.0  3  16  Si
    3.80117524 -9.90371886 -0.0  1  17  H
    1.65934232 -8.01362137 0.0  2  18  N
    1.68097912 -6.20463398 -0.0  3  19  Si
    0.54543521 -4.28636135 0.0  3  20  Si
    -1.03431493 -3.94450034 0.0  4  21  O
    1.73226934 -2.87719605 0.0  2  22  N
    1.20957366 -1.92961761 -0.0  1  23  H
    3.50853448 -2.77677601 0.0  3  24  Si
    4.13684451 -1.17938608 0.0  2  25  N
    3.54296161 -0.26248101 0.0  1  26  H
    5.18364407 -1.05231197 -0.0  1  27  H
    4.63288658 -4.07521596 -0.0  2  28  N
    3.79410501 -5.58634043 0.0  3  29  Si
%endblock AtomicCoordinatesAndAtomicSpecies
#############
# Unit Cell
#############
LatticeConstant 1.0 Ang
%block LatticeVectors
    30.00000    0.000000    0.000000
    0.000000    45.00000    0.000000
    0.000000    0.000000    10.00000
%endblock LatticeVectors
%include ../../../../Defaults.fdf
************************** End of input data file *****************************

reinit: -----------------------------------------------------------------------
reinit: System Name: 
reinit: -----------------------------------------------------------------------
reinit: System Label: GC
reinit: -----------------------------------------------------------------------

initatom: Reading input for the pseudopotentials and atomic orbitals ----------
Species number:   1 Atomic number:    1 Label: H
Species number:   2 Atomic number:    7 Label: N
Species number:   3 Atomic number:   14 Label: Si
Species number:   4 Atomic number:    8 Label: O

Ground state valence configuration:   1s01
Reading pseudopotential information in formatted form from H.psf

Pseudopotential generated from a relativistic atomic calculation

Valence configuration for pseudopotential generation:
1s( 1.00) rc: 0.01
2p( 0.00) rc: 0.60
3d( 0.00) rc: 1.99
4f( 0.00) rc: 2.49
Ground state valence configuration:   2s02  2p03
Reading pseudopotential information in formatted form from N.psf

Pseudopotential generated from a relativistic atomic calculation

Valence configuration for pseudopotential generation:
2s( 2.00) rc: 0.94
2p( 3.00) rc: 0.59
3d( 0.00) rc: 3.46
4f( 0.00) rc: 2.47
Ground state valence configuration:   3s02  3p02
Reading pseudopotential information in formatted form from Si.psf

Pseudopotential generated from a relativistic atomic calculation

Valence configuration for pseudopotential generation:
3s( 2.00) rc: 1.67
3p( 2.00) rc: 2.04
3d( 0.00) rc: 2.89
4f( 0.00) rc: 2.49
Ground state valence configuration:   2s02  2p04
Reading pseudopotential information in formatted form from O.psf

Pseudopotential generated from a relativistic atomic calculation

Valence configuration for pseudopotential generation:
2s( 2.00) rc: 0.45
2p( 4.00) rc: 0.92
3d( 0.00) rc: 2.24
4f( 0.00) rc: 0.25
For H, standard SIESTA heuristics set lmxkb to 2
 (one more than the basis l, including polarization orbitals).
Use PS.lmax or PS.KBprojectors blocks to override.
For N, standard SIESTA heuristics set lmxkb to 3
 (one more than the basis l, including polarization orbitals).
Use PS.lmax or PS.KBprojectors blocks to override.
For Si, standard SIESTA heuristics set lmxkb to 3
 (one more than the basis l, including polarization orbitals).
Use PS.lmax or PS.KBprojectors blocks to override.
For O, standard SIESTA heuristics set lmxkb to 3
 (one more than the basis l, including polarization orbitals).
Use PS.lmax or PS.KBprojectors blocks to override.

<basis_specs>
===============================================================================
H                    Z=   1    Mass=  1.0100        Charge= 0.17977+309
Lmxo=0 Lmxkb= 2    BasisType=split      Semic=F
L=0  Nsemic=0  Cnfigmx=1
          i=1  nzeta=2  polorb=1  (1s)
            splnorm:   0.62000    
               vcte:    0.0000    
               rinn:    0.0000    
               qcoe:    0.0000    
               qyuk:    0.0000    
               qwid:   0.10000E-01
                rcs:    0.0000      0.0000    
            lambdas:    1.0000      1.0000    
-------------------------------------------------------------------------------
L=0  Nkbl=1  erefs: 0.17977+309
L=1  Nkbl=1  erefs: 0.17977+309
L=2  Nkbl=1  erefs: 0.17977+309
===============================================================================
</basis_specs>

atom: Called for H                     (Z =   1)

read_vps: Pseudopotential generation method:
read_vps: ATM4.2.7  Troullier-Martins                       
Valence charge for ps generation:    1.00000

xc_check: Exchange-correlation functional:
xc_check: GGA Perdew, Burke & Ernzerhof 1996
V l=0 = -2*Zval/r beyond r=  0.0098
V l=1 = -2*Zval/r beyond r=  0.5817
V l=2 = -2*Zval/r beyond r=  1.9372
All V_l potentials equal beyond r=  1.9372
This should be close to max(r_c) in ps generation
All pots = -2*Zval/r beyond r=  1.9372

VLOCAL1: 99.0% of the norm of Vloc inside     11.567 Ry
VLOCAL1: 99.9% of the norm of Vloc inside     26.362 Ry
atom: Maximum radius for 4*pi*r*r*local-pseudopot. charge    2.25106
atom: Maximum radius for r*vlocal+2*Zval:    1.91306
GHOST: No ghost state for L =  0
GHOST: No ghost state for L =  1
GHOST: No ghost state for L =  2

KBgen: Kleinman-Bylander projectors: 
   l= 0   rc=  2.036604   el= -0.477180   Ekb= -6.081590   kbcos= -0.277285
   l= 1   rc=  2.195416   el=  0.001076   Ekb= -0.926943   kbcos= -0.034643
   l= 2   rc=  2.251056   el=  0.002010   Ekb= -0.130941   kbcos= -0.009788

KBgen: Total number of Kleinman-Bylander projectors:    9
atom: -------------------------------------------------------------------------

atom: SANKEY-TYPE ORBITALS:
atom: Selected multiple-zeta basis: split     

SPLIT: Orbitals with angular momentum L= 0

SPLIT: Basis orbitals for state 1s

SPLIT: PAO cut-off radius determined from an
SPLIT: energy shift=  0.002000 Ry

   izeta = 1
                 lambda =    1.000000
                     rc =    6.518340
                 energy =   -0.475305
                kinetic =    0.912139
    potential(screened) =   -1.387444
       potential(ionic) =   -1.907295

   izeta = 2
                 rmatch =    2.141150
              splitnorm =    0.620000
                 energy =    0.566467
                kinetic =    3.772856
    potential(screened) =   -3.206389
       potential(ionic) =   -3.759093

POLgen: Perturbative polarization orbital with L=  1

POLgen: Polarization orbital for state 1s

   izeta = 1
                     rc =    6.518340
                 energy =    0.533861
                kinetic =    1.121086
    potential(screened) =   -0.587225
       potential(ionic) =   -1.053027
atom: Total number of Sankey-type orbitals:  5

atm_pop: Valence configuration (for local Pseudopot. screening):
 1s( 1.00)                                                            
Vna: chval, zval:    1.00000   1.00000

Vna:  Cut-off radius for the neutral-atom potential:   6.518340

atom: _________________________________________________________________________

<basis_specs>
===============================================================================
N                    Z=   7    Mass=  14.010        Charge= 0.17977+309
Lmxo=1 Lmxkb= 3    BasisType=split      Semic=F
L=0  Nsemic=0  Cnfigmx=2
          i=1  nzeta=2  polorb=0  (2s)
            splnorm:   0.28000    
               vcte:    0.0000    
               rinn:    0.0000    
               qcoe:    0.0000    
               qyuk:    0.0000    
               qwid:   0.10000E-01
                rcs:    0.0000      0.0000    
            lambdas:    1.0000      1.0000    
L=1  Nsemic=0  Cnfigmx=2
          i=1  nzeta=2  polorb=1  (2p)
            splnorm:   0.28000    
               vcte:    0.0000    
               rinn:    0.0000    
               qcoe:    0.0000    
               qyuk:    0.0000    
               qwid:   0.10000E-01
                rcs:    0.0000      0.0000    
            lambdas:    1.0000      1.0000    
-------------------------------------------------------------------------------
L=0  Nkbl=1  erefs: 0.17977+309
L=1  Nkbl=1  erefs: 0.17977+309
L=2  Nkbl=1  erefs: 0.17977+309
L=3  Nkbl=1  erefs: 0.17977+309
===============================================================================
</basis_specs>

atom: Called for N                     (Z =   7)

read_vps: Pseudopotential generation method:
read_vps: ATM4.2.7  Troullier-Martins                       
Valence charge for ps generation:    5.00000

xc_check: Exchange-correlation functional:
xc_check: GGA Perdew, Burke & Ernzerhof 1996
V l=0 = -2*Zval/r beyond r=  1.2889
V l=1 = -2*Zval/r beyond r=  1.2889
V l=2 = -2*Zval/r beyond r=  3.4178
V l=3 = -2*Zval/r beyond r=  2.4084
All V_l potentials equal beyond r=  3.3753
This should be close to max(r_c) in ps generation
All pots = -2*Zval/r beyond r=  3.4178

VLOCAL1: 99.0% of the norm of Vloc inside      3.810 Ry
VLOCAL1: 99.9% of the norm of Vloc inside      8.683 Ry
atom: Maximum radius for 4*pi*r*r*local-pseudopot. charge    4.02088
atom: Maximum radius for r*vlocal+2*Zval:    3.54838
GHOST: No ghost state for L =  0
GHOST: No ghost state for L =  1
GHOST: No ghost state for L =  2
GHOST: No ghost state for L =  3

KBgen: Kleinman-Bylander projectors: 
   l= 0   rc=  3.417763   el= -1.365098   Ekb= -4.433130   kbcos= -0.707855
   l= 1   rc=  3.375302   el= -0.521201   Ekb=-13.264039   kbcos= -0.535594
   l= 2   rc=  3.872880   el=  0.001991   Ekb= -0.641094   kbcos= -0.062456
   l= 3   rc=  3.970931   el=  0.003093   Ekb= -0.474517   kbcos= -0.018236

KBgen: Total number of Kleinman-Bylander projectors:   16
atom: -------------------------------------------------------------------------

atom: SANKEY-TYPE ORBITALS:
atom: Selected multiple-zeta basis: split     

SPLIT: Orbitals with angular momentum L= 0

SPLIT: Basis orbitals for state 2s

SPLIT: PAO cut-off radius determined from an
SPLIT: energy shift=  0.002000 Ry

   izeta = 1
                 lambda =    1.000000
                     rc =    4.730425
                 energy =   -1.363399
                kinetic =    1.245246
    potential(screened) =   -2.608645
       potential(ionic) =   -8.121105

   izeta = 2
                 rmatch =    2.531849
              splitnorm =    0.280000
                 energy =   -0.959908
                kinetic =    2.409435
    potential(screened) =   -3.369343
       potential(ionic) =   -9.427975

SPLIT: Orbitals with angular momentum L= 1

SPLIT: Basis orbitals for state 2p

SPLIT: PAO cut-off radius determined from an
SPLIT: energy shift=  0.002000 Ry

   izeta = 1
                 lambda =    1.000000
                     rc =    5.924108
                 energy =   -0.519262
                kinetic =    3.672940
    potential(screened) =   -4.192202
       potential(ionic) =   -9.518354

   izeta = 2
                 rmatch =    2.531849
              splitnorm =    0.280000
                 energy =   -0.104258
                kinetic =    6.807538
    potential(screened) =   -6.911796
       potential(ionic) =  -13.149920

POLgen: Perturbative polarization orbital with L=  2

POLgen: Polarization orbital for state 2p

   izeta = 1
                     rc =    5.924108
                 energy =    1.427508
                kinetic =    2.872379
    potential(screened) =   -1.444871
       potential(ionic) =   -5.563644
atom: Total number of Sankey-type orbitals: 13

atm_pop: Valence configuration (for local Pseudopot. screening):
 2s( 2.00)                                                            
 2p( 3.00)                                                            
Vna: chval, zval:    5.00000   5.00000

Vna:  Cut-off radius for the neutral-atom potential:   5.924108

atom: _________________________________________________________________________

<basis_specs>
===============================================================================
Si                   Z=  14    Mass=  28.090        Charge= 0.17977+309
Lmxo=1 Lmxkb= 3    BasisType=split      Semic=F
L=0  Nsemic=0  Cnfigmx=3
          i=1  nzeta=2  polorb=0  (3s)
            splnorm:   0.28000    
               vcte:    0.0000    
               rinn:    0.0000    
               qcoe:    0.0000    
               qyuk:    0.0000    
               qwid:   0.10000E-01
                rcs:    0.0000      0.0000    
            lambdas:    1.0000      1.0000    
L=1  Nsemic=0  Cnfigmx=3
          i=1  nzeta=2  polorb=1  (3p)
            splnorm:   0.28000    
               vcte:    0.0000    
               rinn:    0.0000    
               qcoe:    0.0000    
               qyuk:    0.0000    
               qwid:   0.10000E-01
                rcs:    0.0000      0.0000    
            lambdas:    1.0000      1.0000    
-------------------------------------------------------------------------------
L=0  Nkbl=1  erefs: 0.17977+309
L=1  Nkbl=1  erefs: 0.17977+309
L=2  Nkbl=1  erefs: 0.17977+309
L=3  Nkbl=1  erefs: 0.17977+309
===============================================================================
</basis_specs>

atom: Called for Si                    (Z =  14)

read_vps: Pseudopotential generation method:
read_vps: ATM4.2.7  Troullier-Martins                       
Valence charge for ps generation:    4.00000

xc_check: Exchange-correlation functional:
xc_check: GGA Perdew, Burke & Ernzerhof 1996
V l=0 = -2*Zval/r beyond r=  2.7826
V l=1 = -2*Zval/r beyond r=  2.7826
V l=2 = -2*Zval/r beyond r=  2.9253
V l=3 = -2*Zval/r beyond r=  2.7826
All V_l potentials equal beyond r=  2.8530
This should be close to max(r_c) in ps generation
All pots = -2*Zval/r beyond r=  2.9253

VLOCAL1: 99.0% of the norm of Vloc inside      5.333 Ry
VLOCAL1: 99.9% of the norm of Vloc inside     12.154 Ry
atom: Maximum radius for 4*pi*r*r*local-pseudopot. charge    3.39869
atom: Maximum radius for r*vlocal+2*Zval:    2.96205
GHOST: No ghost state for L =  0
GHOST: No ghost state for L =  1
GHOST: No ghost state for L =  2
GHOST: No ghost state for L =  3

KBgen: Kleinman-Bylander projectors: 
   l= 0   rc=  3.075247   el= -0.794092   Ekb=  5.879390   kbcos=  0.167461
   l= 1   rc=  3.153101   el= -0.300068   Ekb=  2.642817   kbcos=  0.058301
   l= 2   rc=  3.273594   el=  0.001958   Ekb= -1.185135   kbcos= -0.104411
   l= 3   rc=  3.232927   el=  0.003046   Ekb= -0.497174   kbcos= -0.015889

KBgen: Total number of Kleinman-Bylander projectors:   16
atom: -------------------------------------------------------------------------

atom: SANKEY-TYPE ORBITALS:
atom: Selected multiple-zeta basis: split     

SPLIT: Orbitals with angular momentum L= 0

SPLIT: Basis orbitals for state 3s

SPLIT: PAO cut-off radius determined from an
SPLIT: energy shift=  0.002000 Ry

   izeta = 1
                 lambda =    1.000000
                     rc =    6.429618
                 energy =   -0.792283
                kinetic =    0.525293
    potential(screened) =   -1.317576
       potential(ionic) =   -3.744923

   izeta = 2
                 rmatch =    3.998416
              splitnorm =    0.280000
                 energy =   -0.583081
                kinetic =    1.069570
    potential(screened) =   -1.652651
       potential(ionic) =   -4.235185

SPLIT: Orbitals with angular momentum L= 1

SPLIT: Basis orbitals for state 3p

SPLIT: PAO cut-off radius determined from an
SPLIT: energy shift=  0.002000 Ry

   izeta = 1
                 lambda =    1.000000
                     rc =    8.464845
                 energy =   -0.298236
                kinetic =    0.785360
    potential(screened) =   -1.083596
       potential(ionic) =   -3.273779

   izeta = 2
                 rmatch =    4.587816
              splitnorm =    0.280000
                 energy =   -0.131871
                kinetic =    1.403687
    potential(screened) =   -1.535557
       potential(ionic) =   -4.015310

POLgen: Perturbative polarization orbital with L=  2

POLgen: Polarization orbital for state 3p

   izeta = 1
                     rc =    8.464845
                 energy =    0.321949
                kinetic =    1.055677
    potential(screened) =   -0.733728
       potential(ionic) =   -2.672950
atom: Total number of Sankey-type orbitals: 13

atm_pop: Valence configuration (for local Pseudopot. screening):
 3s( 2.00)                                                            
 3p( 2.00)                                                            
Vna: chval, zval:    4.00000   4.00000

Vna:  Cut-off radius for the neutral-atom potential:   8.464845

atom: _________________________________________________________________________

<basis_specs>
===============================================================================
O                    Z=   8    Mass=  16.000        Charge= 0.17977+309
Lmxo=1 Lmxkb= 3    BasisType=split      Semic=F
L=0  Nsemic=0  Cnfigmx=2
          i=1  nzeta=2  polorb=0  (2s)
            splnorm:   0.28000    
               vcte:    0.0000    
               rinn:    0.0000    
               qcoe:    0.0000    
               qyuk:    0.0000    
               qwid:   0.10000E-01
                rcs:    0.0000      0.0000    
            lambdas:    1.0000      1.0000    
L=1  Nsemic=0  Cnfigmx=2
          i=1  nzeta=2  polorb=1  (2p)
            splnorm:   0.28000    
               vcte:    0.0000    
               rinn:    0.0000    
               qcoe:    0.0000    
               qyuk:    0.0000    
               qwid:   0.10000E-01
                rcs:    0.0000      0.0000    
            lambdas:    1.0000      1.0000    
-------------------------------------------------------------------------------
L=0  Nkbl=1  erefs: 0.17977+309
L=1  Nkbl=1  erefs: 0.17977+309
L=2  Nkbl=1  erefs: 0.17977+309
L=3  Nkbl=1  erefs: 0.17977+309
===============================================================================
</basis_specs>

atom: Called for O                     (Z =   8)

read_vps: Pseudopotential generation method:
read_vps: ATM4.2.7  Troullier-Martins                       
Valence charge for ps generation:    6.00000

xc_check: Exchange-correlation functional:
xc_check: GGA Perdew, Burke & Ernzerhof 1996
V l=0 = -2*Zval/r beyond r=  1.1000
V l=1 = -2*Zval/r beyond r=  1.1000
V l=2 = -2*Zval/r beyond r=  2.2154
V l=3 = -2*Zval/r beyond r=  1.1000
All V_l potentials equal beyond r=  2.2154
This should be close to max(r_c) in ps generation
All pots = -2*Zval/r beyond r=  2.2154

VLOCAL1: 99.0% of the norm of Vloc inside      8.845 Ry
VLOCAL1: 99.9% of the norm of Vloc inside     20.157 Ry
atom: Maximum radius for 4*pi*r*r*local-pseudopot. charge    2.67231
atom: Maximum radius for r*vlocal+2*Zval:    2.32897
GHOST: No ghost state for L =  0
GHOST: No ghost state for L =  1
GHOST: No ghost state for L =  2
GHOST: No ghost state for L =  3

KBgen: Kleinman-Bylander projectors: 
   l= 0   rc=  2.243238   el= -1.759686   Ekb=**********   kbcos= -0.171774
   l= 1   rc=  2.328968   el= -0.663873   Ekb=-14.506792   kbcos= -0.519897
   l= 2   rc=  2.573941   el=  0.002031   Ekb= -1.137373   kbcos= -0.019581
   l= 3   rc=  2.606321   el=  0.003153   Ekb= -1.013546   kbcos= -0.003122

KBgen: Total number of Kleinman-Bylander projectors:   16
atom: -------------------------------------------------------------------------

atom: SANKEY-TYPE ORBITALS:
atom: Selected multiple-zeta basis: split     

SPLIT: Orbitals with angular momentum L= 0

SPLIT: Basis orbitals for state 2s

SPLIT: PAO cut-off radius determined from an
SPLIT: energy shift=  0.002000 Ry

   izeta = 1
                 lambda =    1.000000
                     rc =    4.243912
                 energy =   -1.758270
                kinetic =    3.286084
    potential(screened) =   -5.044353
       potential(ionic) =  -12.921184

   izeta = 2
                 rmatch =    2.187845
              splitnorm =    0.280000
                 energy =   -0.885018
                kinetic =    8.134434
    potential(screened) =   -9.019452
       potential(ionic) =  -17.710645

SPLIT: Orbitals with angular momentum L= 1

SPLIT: Basis orbitals for state 2p

SPLIT: PAO cut-off radius determined from an
SPLIT: energy shift=  0.002000 Ry

   izeta = 1
                 lambda =    1.000000
                     rc =    5.314825
                 energy =   -0.661986
                kinetic =    4.917472
    potential(screened) =   -5.579458
       potential(ionic) =  -13.236259

   izeta = 2
                 rmatch =    2.160663
              splitnorm =    0.280000
                 energy =   -0.068760
                kinetic =    9.183374
    potential(screened) =   -9.252135
       potential(ionic) =  -18.274251

POLgen: Perturbative polarization orbital with L=  2

POLgen: Polarization orbital for state 2p

   izeta = 1
                     rc =    5.314825
                 energy =    1.970580
                kinetic =    3.886128
    potential(screened) =   -1.915547
       potential(ionic) =   -7.749584
atom: Total number of Sankey-type orbitals: 13

atm_pop: Valence configuration (for local Pseudopot. screening):
 2s( 2.00)                                                            
 2p( 4.00)                                                            
Vna: chval, zval:    6.00000   6.00000

Vna:  Cut-off radius for the neutral-atom potential:   5.314825

atom: _________________________________________________________________________

prinput: Basis input ----------------------------------------------------------

PAO.BasisType split     

%block ChemicalSpeciesLabel
    1    1 H                       # Species index, atomic number, species label
    2    7 N                       # Species index, atomic number, species label
    3   14 Si                      # Species index, atomic number, species label
    4    8 O                       # Species index, atomic number, species label
%endblock ChemicalSpeciesLabel

%block PAO.Basis                 # Define Basis set
H                     1                    # Species label, number of l-shells
 n=1   0   2 P   1                   # n, l, Nzeta, Polarization, NzetaPol
   6.518      2.141   
   1.000      1.000   
N                     2                    # Species label, number of l-shells
 n=2   0   2                         # n, l, Nzeta 
   4.730      2.532   
   1.000      1.000   
 n=2   1   2 P   1                   # n, l, Nzeta, Polarization, NzetaPol
   5.924      2.532   
   1.000      1.000   
Si                    2                    # Species label, number of l-shells
 n=3   0   2                         # n, l, Nzeta 
   6.430      3.998   
   1.000      1.000   
 n=3   1   2 P   1                   # n, l, Nzeta, Polarization, NzetaPol
   8.465      4.588   
   1.000      1.000   
O                     2                    # Species label, number of l-shells
 n=2   0   2                         # n, l, Nzeta 
   4.244      2.188   
   1.000      1.000   
 n=2   1   2 P   1                   # n, l, Nzeta, Polarization, NzetaPol
   5.315      2.161   
   1.000      1.000   
%endblock PAO.Basis

prinput: ----------------------------------------------------------------------

Dumping basis to NetCDF file H.ion.nc
Dumping basis to NetCDF file N.ion.nc
Dumping basis to NetCDF file Si.ion.nc
Dumping basis to NetCDF file O.ion.nc
coor:   Atomic-coordinates input format  =     Cartesian coordinates
coor:                                          (in Angstroms)

siesta: Atomic coordinates (Bohr) and species
siesta:     -0.78382  10.87408   0.00000  1        1
siesta:     -2.11889   9.38112   0.00000  2        2
siesta:     -5.38866  10.21518   0.00000  3        3
siesta:     -5.68304  13.03086   0.00000  1        4
siesta:     -8.26732   7.26927   0.00000  3        5
siesta:    -11.07014   7.72815   0.00000  1        6
siesta:     -6.00269   3.65370   0.00000  3        7
siesta:     -7.45027   0.75729   0.00000  2        8
siesta:     -6.33486  -1.05159   0.00000  1        9
siesta:     -9.43755   0.60524   0.00000  1       10
siesta:     -2.75954   3.75797   0.00000  2       11
siesta:     -0.72804   6.27194   0.00000  3       12
siesta:      2.31191   6.23640   0.00000  4       13
siesta:     10.61355 -14.07759   0.00000  1       14
siesta:      8.65886 -13.66658   0.00000  2       15
siesta:      6.22979 -16.04876   0.00000  3       16
siesta:      7.18318 -18.71532  -0.00000  1       17
siesta:      3.13570 -15.14356   0.00000  2       18
siesta:      3.17659 -11.72506  -0.00000  3       19
siesta:      1.03072  -8.10005   0.00000  3       20
siesta:     -1.95457  -7.45403   0.00000  4       21
siesta:      3.27352  -5.43711   0.00000  2       22
siesta:      2.28576  -3.64645  -0.00000  1       23
siesta:      6.63017  -5.24735   0.00000  3       24
siesta:      7.81751  -2.22872   0.00000  2       25
siesta:      6.69523  -0.49602   0.00000  1       26
siesta:      9.79567  -1.98858  -0.00000  1       27
siesta:      8.75489  -7.70105  -0.00000  2       28
siesta:      7.16982 -10.55666   0.00000  3       29

siesta: System type = molecule  

initatomlists: Number of atoms, orbitals, and projectors:     29   297   394

siesta: ******************** Simulation parameters ****************************
siesta:
siesta: The following are some of the parameters of the simulation.
siesta: A complete list of the parameters used, including default values,
siesta: can be found in file out.fdf
siesta:
redata: Spin configuration                          = spin-orbit
redata: Number of spin components                   = 8
redata: Time-Reversal Symmetry                      = F
redata: Spin spiral                                 = F
############################################################
This spin-orbit implementation uses a local approximation.
From 4.2 and onwards the full non-local approximation is implemented
You are strongly advised to use >=4.2 versions!
############################################################
redata: Long output                                 =   F
redata: Number of Atomic Species                    =        4
redata: Charge density info will appear in .RHO file
redata: Write Mulliken Pop.                         = NO
redata: Matel table size (NRTAB)                    =     1024
redata: Mesh Cutoff                                 =   340.0000 Ry
redata: Net charge of the system                    =     0.0000 |e|
redata: Min. number of SCF Iter                     =        1
redata: Max. number of SCF Iter                     =      200
redata: SCF mix quantity                            = Hamiltonian
redata: Mix DM or H after convergence               =   F
redata: Recompute H after scf cycle                 =   F
redata: Mix DM in first SCF step                    =   T
redata: Write Pulay info on disk                    =   F
redata: New DM Occupancy tolerance                  = 0.000000000001
redata: No kicks to SCF
redata: DM Mixing Weight for Kicks                  =     0.5000
redata: Require Harris convergence for SCF          =   F
redata: Harris energy tolerance for SCF             =     0.000100 eV
redata: Require DM convergence for SCF              =   T
redata: DM tolerance for SCF                        =     0.000008
redata: Require EDM convergence for SCF             =   F
redata: EDM tolerance for SCF                       =     0.001000 eV
redata: Require H convergence for SCF               =   T
redata: Hamiltonian tolerance for SCF               =     0.000001 eV
redata: Require (free) Energy convergence for SCF   =   F
redata: (free) Energy tolerance for SCF             =     0.000100 eV
redata: Using Saved Data (generic)                  =   F
redata: Use continuation files for DM               =   T
redata: Neglect nonoverlap interactions             =   F
redata: Method of Calculation                       = Diagonalization
redata: Electronic Temperature                      =   299.9978 K
redata: Fix the spin of the system                  =   F
redata: Dynamics option                             = Verlet MD run
redata: Initial MD time step                        =        1
redata:   Final MD time step                        =        1
redata: Length of MD time step                      =     0.5000 fs
redata: Initial Temperature of MD run               =     0.0000 K
redata: Perform a MD quench                         =   F
mix.SCF: Pulay mixing                            = Pulay
mix.SCF:    Variant                              = stable
mix.SCF:    History steps                        = 6
mix.SCF:    Linear mixing weight                 =     0.250000
mix.SCF:    Mixing weight                        =     0.250000
mix.SCF:    SVD condition                        = 0.1000E-07
mix.SCF:    Restart steps                        = 24
mix.SCF:    Restart save steps                   = 3
mix.SCF: Spin-component mixing                   all
redata: Save all siesta data in one NC              =   F
redata: ***********************************************************************

%block SCF.Mixers
  Pulay
%endblock SCF.Mixers

%block SCF.Mixer.Pulay
  # Mixing method
  method pulay
  variant stable

  # Mixing options
  weight 0.2500
  weight.linear 0.2500
  history 6
  restart 24
  restart.save 3
%endblock SCF.Mixer.Pulay

Size of DM history Fstack: 3
Total number of electrons:    98.000000
Total ionic charge:    98.000000

* ProcessorY, Blocksize:    2  24


* Orbital distribution balance (max,min):    48    24


Time-reversal symmetry not used.

siesta: k-grid: Number of k-points =     1
siesta: k-grid: Cutoff (effective) =     5.000 Ang
siesta: k-grid: Supercell and displacements
siesta: k-grid:    1   0   0      0.000
siesta: k-grid:    0   1   0      0.000
siesta: k-grid:    0   0   1      0.000

diag: Algorithm                                     = ELPA-1stage
diag: Parallel over k                               =   F
diag: Use parallel 2D distribution                  =   T
diag: Parallel block-size                           = 24
diag: Parallel distribution                         =     2 x     4
diag: Used triangular part                          = Lower
diag: Absolute tolerance                            =  0.100E-15
diag: Orthogonalization factor                      =  0.100E-05
diag: Memory factor                                 =  1.0000


ts: **************************************************************
ts: Save H and S matrices                           =    F
ts: Save DM and EDM matrices                        =    F
ts: Only save the overlap matrix S                  =    F
ts: **************************************************************

************************ Begin: TS CHECKS AND WARNINGS ************************
************************ End: TS CHECKS AND WARNINGS **************************


                     ====================================
                        Begin MD step =      1
                     ====================================

outcoor: Atomic coordinates (Ang):                          
   -0.41478126    5.75431057    0.00000000   1       1  H
   -1.12126799    4.96427439    0.00000000   2       2  N
   -2.85155490    5.40563830    0.00000000   3       3  Si
   -3.00733458    6.89563056    0.00000000   1       4  H
   -4.37487652    3.84673078    0.00000000   3       5  Si
   -5.85806415    4.08956114    0.00000000   1       6  H
   -3.17648566    1.93345462    0.00000000   3       7  Si
   -3.94251112    0.40073788    0.00000000   2       8  N
   -3.35226457   -0.55647515    0.00000000   1       9  H
   -4.99413344    0.32027765    0.00000000   1      10  H
   -1.46028560    1.98862893    0.00000000   2      11  N
   -0.38526298    3.31896777    0.00000000   3      12  Si
    1.22341034    3.30015751    0.00000000   4      13  O
    5.61644830   -7.44953905    0.00000000   1      14  H
    4.58206954   -7.23203760    0.00000000   2      15  N
    3.29666389   -8.49263600    0.00000000   3      16  Si
    3.80117524   -9.90371886    0.00000000   1      17  H
    1.65934232   -8.01362137    0.00000000   2      18  N
    1.68097912   -6.20463398    0.00000000   3      19  Si
    0.54543521   -4.28636135    0.00000000   3      20  Si
   -1.03431493   -3.94450034    0.00000000   4      21  O
    1.73226934   -2.87719605    0.00000000   2      22  N
    1.20957366   -1.92961761    0.00000000   1      23  H
    3.50853448   -2.77677601    0.00000000   3      24  Si
    4.13684451   -1.17938608    0.00000000   2      25  N
    3.54296161   -0.26248101    0.00000000   1      26  H
    5.18364407   -1.05231197    0.00000000   1      27  H
    4.63288658   -4.07521596    0.00000000   2      28  N
    3.79410501   -5.58634043    0.00000000   3      29  Si

outcell: Unit cell vectors (Ang):
       30.000000    0.000000    0.000000
        0.000000   45.000000    0.000000
        0.000000    0.000000   10.000000

outcell: Cell vector modules (Ang)   :   30.000000   45.000000   10.000000
outcell: Cell angles (23,13,12) (deg):     90.0000     90.0000     90.0000
outcell: Cell volume (Ang**3)        :  13500.0000
<dSpData1D:S at geom step 1
  <sparsity:sparsity for geom step 1
    nrows_g=297 nrows=48 sparsity=.0933 nnzs=8234, refcount: 8>
  <dData1D:(new from dSpData1D) n=8234, refcount: 1>
refcount: 1>
new_DM -- step:     1
Initializing Density Matrix...

Attempting to read DM from file... Failed...
DM filled with atomic data:
<dSpData2D:DM initialized from atoms
  <sparsity:sparsity for geom step 1
    nrows_g=297 nrows=48 sparsity=.0933 nnzs=8234, refcount: 9>
  <dData2D:DM n=8234 m=8, refcount: 1>
refcount: 1>
     spin moment: S , {S} =   56.00000   0.00000   0.00000  56.00000
No. of atoms with KB's overlaping orbs in proc 0. Max # of overlaps:      27     150

Initializing spin-orbit part of the Hamiltonian
  Adding spin-orbit effects for H 
  Adding spin-orbit effects for N 
  Adding spin-orbit effects for Si
  Adding spin-orbit effects for O 


New grid distribution:   1
           1       1:  180    1:  125    1:   15
           2       1:  180    1:  125   16:   30
           3       1:  180    1:  125   31:   45
           4       1:  180    1:  125   46:   60
           5       1:  180  126:  250    1:   15
           6       1:  180  126:  250   16:   30
           7       1:  180  126:  250   31:   45
           8       1:  180  126:  250   46:   60

InitMesh: MESH =   360 x   500 x   120 =    21600000
InitMesh: (bp) =   180 x   250 x    60 =     2700000
InitMesh: Mesh cutoff (required, used) =   340.000   341.206 Ry
ExtMesh (bp) on 0 =   288 x   225 x   123 =     7970400
New grid distribution:   2
           1       1:  156   30:  208    1:   60
           2     157:  180   21:  208    1:   60
           3       1:   21  227:  250    1:   60
           4     157:  180    1:   20    1:   60
           5       1:  156    1:   29    1:   60
           6      22:  180  229:  250    1:   60
           7      22:  180  209:  228    1:   60
           8       1:   21  209:  226    1:   60
New grid distribution:   3
           1       1:  144   25:  193    1:   60
           2       1:  144    1:   24    1:   60
           3       1:   32  222:  250    1:   60
           4     145:  180    1:   25    1:   60
           5     145:  180   26:  193    1:   60
           6      33:  180  194:  229    1:   60
           7      33:  180  230:  250    1:   60
           8       1:   32  194:  221    1:   60
Setting up quadratic distribution...
ExtMesh (bp) on 0 =   264 x   279 x   168 =    12374208
PhiOnMesh: Number of (b)points on node 0 =              1675440
PhiOnMesh: nlist on node 0 =              1646036

stepf: Fermi-Dirac step function

siesta: Program's energy decomposition (eV):
siesta: Ebs     =      -593.133544
siesta: Eions   =      3585.165840
siesta: Ena     =       381.828247
siesta: Ekin    =      3369.116771
siesta: Enl     =     -3297.481303
siesta: Eso     =        -0.003409
siesta: Edftu   =         0.000000
siesta: DEna    =       153.569849
siesta: DUscf   =        81.684482
siesta: DUext   =         0.000000
siesta: Exc     =     -1204.066106
siesta: eta*DQ  =         0.000000
siesta: Emadel  =         0.000000
siesta: Emeta   =         0.000000
siesta: Emolmec =         0.000000
siesta: Ekinion =         0.000000
siesta: Eharris =     -4021.124381
siesta: Etot    =     -4100.517309
siesta: FreeEng =     -4100.518345

        iscf     Eharris(eV)        E_KS(eV)     FreeEng(eV)     dDmax    Ef(eV) dHmax(eV)
   scf:    1    -4021.124381    -4100.517309    -4100.518345  0.965675 -4.903600 22.211662
     spin moment: S , {S} =    2.00583   0.00000  -0.00000   2.00583
timer: Routine,Calls,Time,% = IterSCF        1      17.935  25.88
   scf:    2    -4145.894926    -4135.591042    -4135.592115  0.455998 -4.150119 12.189459
     spin moment: S , {S} =    1.99471  -0.00000   0.00000   1.99471
   scf:    3    -4099.215804    -4131.166022    -4131.191118  0.429728 -4.310615 13.584147
     spin moment: S , {S} =    2.30690   0.00000   0.00000   2.30690
   scf:    4    -4150.427246    -4144.941573    -4144.941573  0.326817 -3.830768  6.783385
     spin moment: S , {S} =    0.00010   0.00000   0.00000   0.00010
   scf:    5    -4146.365308    -4145.765188    -4145.765188  0.040222 -3.570287  4.254945
     spin moment: S , {S} =    0.00006   0.00000   0.00000   0.00006
   scf:    6    -4146.502563    -4146.141430    -4146.141430  0.023654 -3.402237  2.220093
     spin moment: S , {S} =    0.00003  -0.00000  -0.00000   0.00003
   scf:    7    -4146.504974    -4146.319771    -4146.319771  0.021979 -3.603671  0.929904
     spin moment: S , {S} =    0.00001   0.00000   0.00000   0.00001
   scf:    8    -4146.435455    -4146.375950    -4146.375950  0.012135 -3.531473  0.560387
     spin moment: S , {S} =    0.00000  -0.00000   0.00000   0.00000
   scf:    9    -4146.416769    -4146.395665    -4146.395665  0.007148 -3.645626  0.438490
     spin moment: S , {S} =    0.00000   0.00000   0.00000   0.00000
   scf:   10    -4146.450438    -4146.415206    -4146.415206  0.023806 -3.685459  0.262173
     spin moment: S , {S} =    0.00000   0.00000  -0.00000  -0.00000
   scf:   11    -4146.419699    -4146.417512    -4146.417512  0.005647 -3.672997  0.077261
     spin moment: S , {S} =    0.00000   0.00000  -0.00000  -0.00000
   scf:   12    -4146.419387    -4146.418459    -4146.418459  0.001508 -3.666458  0.034389
     spin moment: S , {S} =    0.00000  -0.00000  -0.00000  -0.00000
   scf:   13    -4146.419066    -4146.418759    -4146.418759  0.001099 -3.663811  0.022108
     spin moment: S , {S} =    0.00000  -0.00000  -0.00000  -0.00000
   scf:   14    -4146.419076    -4146.418911    -4146.418911  0.000687 -3.662339  0.013025
     spin moment: S , {S} =    0.00000   0.00000  -0.00000  -0.00000
   scf:   15    -4146.419055    -4146.418978    -4146.418978  0.000811 -3.661697  0.007724
     spin moment: S , {S} =    0.00000  -0.00000  -0.00000  -0.00000
   scf:   16    -4146.419043    -4146.419008    -4146.419008  0.000648 -3.662022  0.005192
     spin moment: S , {S} =    0.00000  -0.00000  -0.00000  -0.00000
   scf:   17    -4146.419030    -4146.419018    -4146.419018  0.000413 -3.661967  0.004004
     spin moment: S , {S} =    0.00000  -0.00000  -0.00000   0.00000
   scf:   18    -4146.419026    -4146.419022    -4146.419022  0.000255 -3.661968  0.002703
     spin moment: S , {S} =    0.00000  -0.00000  -0.00000   0.00000
   scf:   19    -4146.419027    -4146.419024    -4146.419024  0.000225 -3.661943  0.001716
     spin moment: S , {S} =    0.00000  -0.00000  -0.00000   0.00000
   scf:   20    -4146.419025    -4146.419025    -4146.419025  0.000107 -3.661961  0.001267
     spin moment: S , {S} =    0.00000  -0.00000  -0.00000   0.00000
   scf:   21    -4146.419026    -4146.419025    -4146.419025  0.000138 -3.661987  0.000796
     spin moment: S , {S} =    0.00000  -0.00000  -0.00000   0.00000
   scf:   22    -4146.419026    -4146.419026    -4146.419026  0.000117 -3.662035  0.000301
     spin moment: S , {S} =    0.00000  -0.00000  -0.00000   0.00000
   scf:   23    -4146.419026    -4146.419026    -4146.419026  0.000050 -3.662044  0.000134
     spin moment: S , {S} =    0.00000  -0.00000  -0.00000   0.00000
   scf:   24    -4146.419026    -4146.419026    -4146.419026  0.000014 -3.662035  0.000084
     spin moment: S , {S} =    0.00000  -0.00000  -0.00000   0.00000
mix: Pulay -- resetting history
   scf:   25    -4146.419026    -4146.419026    -4146.419026  0.000013 -3.662024  0.000054
     spin moment: S , {S} =    0.00000  -0.00000  -0.00000   0.00000
   scf:   26    -4146.419026    -4146.419026    -4146.419026  0.000005 -3.662014  0.000031
     spin moment: S , {S} =    0.00000  -0.00000  -0.00000   0.00000
   scf:   27    -4146.419026    -4146.419026    -4146.419026  0.000005 -3.662013  0.000020
     spin moment: S , {S} =    0.00000  -0.00000  -0.00000   0.00000
   scf:   28    -4146.419026    -4146.419026    -4146.419026  0.000002 -3.662012  0.000013
     spin moment: S , {S} =    0.00000  -0.00000  -0.00000  -0.00000
   scf:   29    -4146.419026    -4146.419026    -4146.419026  0.000001 -3.662011  0.000008
     spin moment: S , {S} =    0.00000  -0.00000  -0.00000  -0.00000
   scf:   30    -4146.419026    -4146.419026    -4146.419026  0.000001 -3.662010  0.000003
     spin moment: S , {S} =    0.00000  -0.00000  -0.00000  -0.00000
   scf:   31    -4146.419026    -4146.419026    -4146.419026  0.000000 -3.662010  0.000002
     spin moment: S , {S} =    0.00000  -0.00000  -0.00000  -0.00000
   scf:   32    -4146.419026    -4146.419026    -4146.419026  0.000000 -3.662010  0.000001
     spin moment: S , {S} =    0.00000  -0.00000  -0.00000  -0.00000
   scf:   33    -4146.419026    -4146.419026    -4146.419026  0.000000 -3.662010  0.000001
     spin moment: S , {S} =    0.00000  -0.00000  -0.00000  -0.00000

SCF Convergence by DM+H criterion
max |DM_out - DM_in|         :     0.0000001711
max |H_out - H_in|      (eV) :     0.0000007955
SCF cycle converged after 33 iterations

Using DM_out to compute the final energy and forces
No. of atoms with KB's overlaping orbs in proc 0. Max # of overlaps:      27     150

siesta: E_KS(eV) =            -4146.4190

siesta: E_KS - E_eggbox =     -4146.4190
     spin moment: S , {S} =    0.00000  -0.00000  -0.00000  -0.00000

siesta: Atomic forces (eV/Ang):
     1   -0.012291    0.135426   -0.000000
     2   -0.495123    0.298315   -0.000000
     3    0.400257   -0.035893   -0.000000
     4   -0.079611    0.157742    0.000000
     5   -0.199156   -0.203417    0.000000
     6    0.032281    0.040771   -0.000000
     7    1.148910    0.954985    0.000000
     8    0.803446   -2.256058    0.000000
     9   -1.211919    1.827067    0.000000
    10    0.124688   -0.265094    0.000000
    11   -0.963171   -0.298052    0.000000
    12    1.160834   -0.241298    0.000000
    13    2.158776    3.420590   -0.000000
    14   -0.014920   -0.032347   -0.000000
    15    0.109319    0.031172    0.000000
    16    0.012197   -0.018849    0.000000
    17   -0.002128    0.046840   -0.000000
    18   -0.039862    0.042752   -0.000000
    19    0.250037    0.026761    0.000000
    20   -1.318427   -0.162162   -0.000000
    21    1.208100   -3.833410   -0.000000
    22    0.316751    0.742936    0.000000
    23    0.215874   -0.574815   -0.000000
    24   -0.319265   -0.903515   -0.000000
    25   -0.487054    1.524457    0.000000
    26    0.818827   -1.171143   -0.000000
    27   -0.142686    0.096017    0.000000
    28    0.043388    0.679214    0.000000
    29   -0.297552   -0.390803    0.000000
----------------------------------------
   Tot    3.220521   -0.361813    0.000000
----------------------------------------
   Max    3.833410
   Res    0.813391    sqrt( Sum f_i^2 / 3N )
----------------------------------------
   Max    3.833410    constrained

Stress tensor Voigt[x,y,z,yz,xz,xy] (kbar):        0.54        0.22       -0.04        0.00       -0.00       -0.50
(Free)E + p*V (eV/cell)    -4148.4430
Target enthalpy (eV/cell)    -4146.4190

siesta: Stress tensor (static) (eV/Ang**3):
         0.000335   -0.000311   -0.000000
        -0.000311    0.000139    0.000000
        -0.000000    0.000000   -0.000024

siesta: Pressure (static):         -0.24021318  kBar

siesta: Stress tensor (total) (eV/Ang**3):
         0.000335   -0.000311   -0.000000
        -0.000311    0.000139    0.000000
        -0.000000    0.000000   -0.000024

siesta: Pressure (total):         -0.24021318  kBar

siesta: Temp_ion =       0.000 K

siesta: Eigenvalues (eV):
ik =     1
  -21.7614  -21.7614  -21.7064  -21.7064  -21.4676  -21.4676  -21.4288  -21.4288  -21.0926  -21.0926
  -20.9852  -20.9852  -20.6868  -20.6868  -19.6688  -19.6688  -19.3161  -19.3161  -19.2170  -19.2170
  -14.6867  -14.6867  -13.7481  -13.7481  -13.2544  -13.2544  -13.0209  -13.0209  -12.9284  -12.9284
  -12.7854  -12.7854  -12.6944  -12.6944  -12.3263  -12.3263  -12.3206  -12.3206  -11.9636  -11.9636
  -11.2706  -11.2706  -10.7396  -10.7396  -10.6182  -10.6182  -10.5866  -10.5866  -10.0181  -10.0181
   -9.4928   -9.4928   -9.1197   -9.1197   -8.7082   -8.7082   -8.6077   -8.6077   -8.5602   -8.5602
   -8.4856   -8.4856   -8.3405   -8.3405   -8.0374   -8.0374   -7.7488   -7.7488   -7.5636   -7.5636
   -7.4817   -7.4817   -7.1678   -7.1678   -7.1527   -7.1527   -6.7310   -6.7310   -6.6833   -6.6833
   -6.4243   -6.4243   -6.3699   -6.3699   -6.0429   -6.0429   -5.9756   -5.9756   -5.9681   -5.9681
   -5.7122   -5.7122   -5.4855   -5.4855   -5.3990   -5.3990   -4.1628   -4.1628   -3.1615   -3.1615
   -2.2324   -2.2324   -2.1738   -2.1738   -2.1461   -2.1461   -1.7801   -1.7801   -1.7602   -1.7602
   -1.7207   -1.7207   -1.7081   -1.7081   -1.5221   -1.5221   -1.4076   -1.4076   -0.9124   -0.9124
   -0.7902   -0.7902   -0.6576   -0.6576   -0.2663   -0.2663   -0.1035   -0.1035    0.1347    0.1347
    0.5187    0.5187    0.5535    0.5535    0.6935    0.6935    0.7766    0.7766    0.9316    0.9316
    1.0589    1.0589    1.3657    1.3657    1.4204    1.4204    1.4980    1.4980    1.5303    1.5303
    1.8639    1.8639    1.9188    1.9188    2.0034    2.0034    2.4596    2.4596    2.8661    2.8661
    2.8769    2.8769    2.8875    2.8875    3.0993    3.0993    3.2529    3.2529    3.4248    3.4248
    3.5285    3.5285    3.8873    3.8873    3.9641    3.9641    4.1651    4.1651    4.4082    4.4082
    4.4999    4.4999    4.5042    4.5042    4.6507    4.6507    4.7393    4.7393    4.9500    4.9500
    4.9876    4.9876    5.1331    5.1331    5.3791    5.3791    5.5709    5.5709    5.8045    5.8045
    5.8520    5.8520    5.9035    5.9035    6.0179    6.0179    6.1157    6.1157    6.1260    6.1260
    6.2546    6.2546    6.5000    6.5000    6.6902    6.6902    6.8304    6.8304    6.9036    6.9036
    7.1131    7.1131    7.3112    7.3112    7.5624    7.5624    7.6663    7.6663    7.8282    7.8282
    7.9323    7.9323    8.0432    8.0432    8.1666    8.1667    8.3656    8.3656    8.4059    8.4059
    8.6606    8.6606    8.8541    8.8541    8.9899    8.9899    9.0044    9.0044    9.2437    9.2437
    9.3302    9.3302    9.3569    9.3569    9.7906    9.7906    9.9146    9.9146    9.9801    9.9801
   10.1820   10.1820   10.2409   10.2409   10.5813   10.5813   10.8828   10.8828   10.9842   10.9842
   11.1062   11.1062   11.1265   11.1265   11.2266   11.2266   11.7639   11.7639   11.8707   11.8707
   11.8882   11.8882   12.0245   12.0245   12.2471   12.2471   12.5226   12.5226   12.7820   12.7820
   12.7962   12.7962   12.9281   12.9281   13.4365   13.4365   13.5475   13.5475   13.7875   13.7875
   13.8675   13.8675   14.1776   14.1776   14.4071   14.4071   14.7992   14.7992   14.8811   14.8811
   14.9392   14.9392   15.4195   15.4195   16.1366   16.1366   16.5864   16.5864   16.7722   16.7722
   17.0544   17.0544   17.4128   17.4128   17.6826   17.6826   18.3131   18.3131   18.5487   18.5487
   18.7360   18.7360   19.2620   19.2620   19.4588   19.4588   20.0298   20.0298   20.3439   20.3439
   21.0584   21.0584   21.3129   21.3129   22.0666   22.0666   22.2918   22.2918   22.4951   22.4951
   22.9759   22.9759   23.3754   23.3754   23.8443   23.8443   23.9143   23.9143   24.0228   24.0228
   24.9629   24.9629   25.4653   25.4653   26.0315   26.0315   26.8302   26.8302   27.6628   27.6628
   28.5963   28.5963   29.1109   29.1109   29.2500   29.2500   29.5531   29.5531   29.7840   29.7840
   30.0848   30.0848   30.2226   30.2226   30.3409   30.3409   30.8370   30.8370   31.0212   31.0212
   31.1415   31.1415   31.2621   31.2621   31.6579   31.6579   31.7023   31.7023   32.1954   32.1954
   32.7695   32.7695   33.9550   33.9550   34.6888   34.6888   34.7220   34.7220   35.0321   35.0321
   35.0840   35.0840   35.1153   35.1153   35.6448   35.6448   35.7458   35.7458   35.8847   35.8847
   36.8432   36.8432   36.9779   36.9779   37.1581   37.1581   37.4162   37.4162   37.7788   37.7788
   38.2564   38.2564   38.5829   38.5829   39.3847   39.3847   39.5018   39.5018   39.9471   39.9471
   40.4853   40.4853   40.6346   40.6346   40.6590   40.6590   40.9440   40.9440   41.0210   41.0210
   41.2434   41.2434   41.3806   41.3806   42.5838   42.5838   42.9465   42.9465   43.0296   43.0296
   43.4591   43.4591   43.8135   43.8135   44.0546   44.0546   44.1325   44.1325   44.4082   44.4082
   44.7798   44.7798   44.7874   44.7874   45.2622   45.2622   45.5938   45.5938   46.0630   46.0630
   46.5228   46.5228   47.1576   47.1576   47.4602   47.4602   48.8664   48.8664   49.3107   49.3107
   49.5784   49.5784   50.4473   50.4473   50.5277   50.5277   51.0379   51.0379   51.1958   51.1958
   51.6740   51.6740   51.7382   51.7382   52.8002   52.8002   53.0694   53.0694   54.2384   54.2384
   54.3823   54.3823   54.6756   54.6756   55.0226   55.0226   55.7722   55.7722   55.9072   55.9072
   55.9224   55.9224   56.2650   56.2650   56.4603   56.4603   58.3309   58.3309   58.4894   58.4894
   58.8279   58.8279   60.2783   60.2783   60.3395   60.3395   60.8827   60.8827   61.2210   61.2210
   61.8918   61.8918   62.1132   62.1132   62.3046   62.3046   64.8552   64.8552   66.6104   66.6104
   66.9216   66.9216   67.3517   67.3517   68.1444   68.1444   68.6928   68.6928   70.9888   70.9888
   73.9234   73.9234   80.4399   80.4399   91.2427   91.2427   92.1165   92.1165   93.3608   93.3608
   98.4058   98.4058   98.8513   98.8513   99.6333   99.6333  103.1980  103.1980  103.7797  103.7797
  110.2272  110.2272  111.7693  111.7693  124.1667  124.1667  126.3099  126.3099  129.3532  129.3532
  135.2971  135.2971  138.4328  138.4328
siesta: Fermi energy =      -3.662010 eV

siesta: Program's energy decomposition (eV):
siesta: Ebs     =     -1123.427978
siesta: Eions   =      3585.165840
siesta: Ena     =       381.828247
siesta: Ekin    =      2902.641454
siesta: Enl     =     -2787.332427
siesta: Eso     =        -0.004275
siesta: Edftu   =         0.000000
siesta: DEna    =        46.914013
siesta: DUscf   =        14.307308
siesta: DUext   =         0.000000
siesta: Exc     =     -1119.607505
siesta: eta*DQ  =         0.000000
siesta: Emadel  =         0.000000
siesta: Emeta   =         0.000000
siesta: Emolmec =         0.000000
siesta: Ekinion =         0.000000
siesta: Eharris =     -4146.419026
siesta: Etot    =     -4146.419026
siesta: FreeEng =     -4146.419026

siesta: Final energy (eV):
siesta:  Band Struct. =   -1123.427978
siesta:       Kinetic =    2902.641454
siesta:       Hartree =   13843.985463
siesta:       Edftu   =       0.000000
siesta:       Eso     =      -0.004275
siesta:    Ext. field =       0.000000
siesta:   Exch.-corr. =   -1119.607505
siesta:  Ion-electron =  -30260.667987
siesta:       Ion-ion =   10487.233824
siesta:       Ekinion =       0.000000
siesta:         Total =   -4146.419026
siesta:         Fermi =      -3.662010

siesta: Atomic forces (eV/Ang):
siesta:      1   -0.012291    0.135426   -0.000000
siesta:      2   -0.495123    0.298315   -0.000000
siesta:      3    0.400257   -0.035893   -0.000000
siesta:      4   -0.079611    0.157742    0.000000
siesta:      5   -0.199156   -0.203417    0.000000
siesta:      6    0.032281    0.040771   -0.000000
siesta:      7    1.148910    0.954985    0.000000
siesta:      8    0.803446   -2.256058    0.000000
siesta:      9   -1.211919    1.827067    0.000000
siesta:     10    0.124688   -0.265094    0.000000
siesta:     11   -0.963171   -0.298052    0.000000
siesta:     12    1.160834   -0.241298    0.000000
siesta:     13    2.158776    3.420590   -0.000000
siesta:     14   -0.014920   -0.032347   -0.000000
siesta:     15    0.109319    0.031172    0.000000
siesta:     16    0.012197   -0.018849    0.000000
siesta:     17   -0.002128    0.046840   -0.000000
siesta:     18   -0.039862    0.042752   -0.000000
siesta:     19    0.250037    0.026761    0.000000
siesta:     20   -1.318427   -0.162162   -0.000000
siesta:     21    1.208100   -3.833410   -0.000000
siesta:     22    0.316751    0.742936    0.000000
siesta:     23    0.215874   -0.574815   -0.000000
siesta:     24   -0.319265   -0.903515   -0.000000
siesta:     25   -0.487054    1.524457    0.000000
siesta:     26    0.818827   -1.171143   -0.000000
siesta:     27   -0.142686    0.096017    0.000000
siesta:     28    0.043388    0.679214    0.000000
siesta:     29   -0.297552   -0.390803    0.000000
siesta: ----------------------------------------
siesta:    Tot    3.220521   -0.361813    0.000000

siesta: Stress tensor (static) (eV/Ang**3):
siesta:     0.000335   -0.000311   -0.000000
siesta:    -0.000311    0.000139    0.000000
siesta:    -0.000000    0.000000   -0.000024

siesta: Cell volume =      13500.000000 Ang**3

siesta: Pressure (static):
siesta:                Solid            Molecule  Units
siesta:          -0.00000163         -0.00000779  Ry/Bohr**3
siesta:          -0.00014993         -0.00071562  eV/Ang**3
siesta:          -0.24021318         -1.14655914  kBar
(Free)E+ p_basis*V_orbitals  =       -4126.568608
(Free)Eharris+ p_basis*V_orbitals  =       -4126.568608
     spin moment: S , {S} =    0.00000  -0.00000  -0.00000  -0.00000

siesta: Electric dipole (a.u.)  =    0.008292    1.484633    0.000000
siesta: Electric dipole (Debye) =    0.021076    3.773563    0.000000

cite: Please see "GC.bib" for an exhaustive BiBTeX file.
cite: Please clearly indicate Siesta version in published work: v4.1.5-1-g384057250
cite: This calculation has made use of the following articles
cite: which are encouraged to be cited in a published work.
        Primary SIESTA paper
          DOI: www.doi.org/10.1088/0953-8984/14/11/302
        Spin-orbit coupling (on-site approximation)
          DOI: www.doi.org/10.1088/0953-8984/19/19/489001


WARNING: alloc-realloc-dealloc name mismatch
         Name: atomlist isa
         Size:              -116. Bytes
         Node:     0
         Subsequent mismatches will not be reported
>> End of run:   1-FEB-2024  22:43:12
Job completed
