Siesta Version  : v4.1.5-1-g384057250
Architecture    : gcc
Compiler version: GNU Fortran (Ubuntu 11.4.0-1ubuntu1~22.04) 11.4.0
Compiler flags  : mpifort -O2 -fPIC -ftree-vectorize -fallow-argument-mismatch
PP flags        : -DFC_HAVE_ABORT -DMPI -DSIESTA__FLOOK -DSIESTA__METIS -DSIESTA__MUMPS -DCDF -DNCDF -DNCDF_4 -DNCDF_PARALLEL -DSIESTA__MRRR -DSIESTA__ELPA
Libraries       : libncdf.a libfdict.a  -lflookall -ldl -lnetcdff -lnetcdf -lhdf5_hl -lhdf5 -lhdf5_fortran -lz -lscalapack-openmpi -lopenblas -lmetis -lzmumps -lcmumps -ldmumps -lmumps_common -lpord -lsmumps -lesmumps -lscotch -lscotcherr -fopenmp -lelpa
PARALLEL version
NetCDF support
NetCDF-4 support
NetCDF-4 MPI-IO support
METIS ordering support
Lua support

* Running on 8 nodes in parallel
>> Start of run:   1-FEB-2024  20:49:50

                           ***********************       
                           *  WELCOME TO SIESTA  *       
                           ***********************       

reinit: Reading from standard input
reinit: Dumped input in INPUT_TMP.61293
************************** Dump of input data file ****************************
# mpirun -np 4 siesta-4.1.5 < AT.fdf > AT.out &
SystemLabel      AT
NumberOfAtoms    30
NumberOfSpecies  4
%block ChemicalSpeciesLabel
    1    1  H
    2    7  N
    3   14  Si
    4    8  O
%endblock ChemicalSpeciesLabel
############################################
# This overrides Defaults.fdf configuration
############################################
MD.TypeOfRun                Verlet # CG, Verlet
MD.Steps                    0
MaxSCFIterations            200
SCF.MustConverge            F
AtomicCoordinatesFormat NotScaledCartesianAng
%block AtomicCoordinatesAndAtomicSpecies
    2.28494382 -5.19529124 0.0  1  1  H
    1.37433094 -4.6647107 0.0  2  2  N
    -0.21830245 -5.49458215 0.0  3  3  Si
    -0.17484108 -6.98516892 0.0  1  4  H
    -1.66171682 -4.58600741 0.0  2  5  N
    -1.09026419 -2.87456374 0.0  3  6  Si
    -1.53038332 -0.70765692 0.0  3  7  Si
    -3.14415959 -0.09186471 0.0  2  8  N
    -3.40268075 0.95848335 0.0  1  9  H
    -3.95073599 -0.76720972 0.0  1  10  H
    -0.17836637 0.41349951 0.0  2  11  N
    1.49520211 -0.0473996 0.0  3  12  Si
    2.45603905 1.10727302 0.0  1  13  H
    2.30451743 -1.58574382 0.0  2  14  N
    1.10725559 -2.84610319 0.0  3  15  Si
    0.054689875664690635 11.244599312234968 0.0  1  16  H
    -0.7540208043353094 10.552393432234966 0.0  2  17  N
    -2.4106106443353092 11.265513532234966 0.0  3  18  Si
    -2.313745474335309 12.776238742234966 0.0  1  19  H
    -4.136766994335309 9.922465402234966 0.0  3  20  Si
    -6.49122124433531 9.914478472234967 0.0  3  21  Si
    -7.05363936433531 10.648968122234965 -1.20183078  1  22  H
    -6.79103499433531 8.435387342234966 -0.08618332  1  23  H
    -7.0537518243353095 10.479310932234966 1.28814761  1  24  H
    -3.2073763543353095 7.851894172234966 0.0  3  25  Si
    -4.1568447143353096 6.563358042234967 0.0  4  26  O
    -1.4164314843353094 7.678158702234967 0.0  2  27  N
    -1.0854401243353093 6.645801722234967 0.0  1  28  H
    -0.1079732643353094 8.872705122234965 0.0  3  29  Si
    1.4579636656646904 8.605458272234966 0.0  4  30  O
%endblock AtomicCoordinatesAndAtomicSpecies
#############
# Unit Cell
#############
LatticeConstant 1.0 Ang
%block LatticeVectors
    30.00000    0.000000    0.000000
    0.000000    45.00000    0.000000
    0.000000    0.000000    10.00000
%endblock LatticeVectors
%include ../../../../Defaults.fdf
************************** End of input data file *****************************

reinit: -----------------------------------------------------------------------
reinit: System Name: 
reinit: -----------------------------------------------------------------------
reinit: System Label: AT
reinit: -----------------------------------------------------------------------

initatom: Reading input for the pseudopotentials and atomic orbitals ----------
Species number:   1 Atomic number:    1 Label: H
Species number:   2 Atomic number:    7 Label: N
Species number:   3 Atomic number:   14 Label: Si
Species number:   4 Atomic number:    8 Label: O

Ground state valence configuration:   1s01
Reading pseudopotential information in formatted form from H.psf

Pseudopotential generated from a relativistic atomic calculation

Valence configuration for pseudopotential generation:
1s( 1.00) rc: 0.01
2p( 0.00) rc: 0.60
3d( 0.00) rc: 1.99
4f( 0.00) rc: 2.49
Ground state valence configuration:   2s02  2p03
Reading pseudopotential information in formatted form from N.psf

Pseudopotential generated from a relativistic atomic calculation

Valence configuration for pseudopotential generation:
2s( 2.00) rc: 0.94
2p( 3.00) rc: 0.59
3d( 0.00) rc: 3.46
4f( 0.00) rc: 2.47
Ground state valence configuration:   3s02  3p02
Reading pseudopotential information in formatted form from Si.psf

Pseudopotential generated from a relativistic atomic calculation

Valence configuration for pseudopotential generation:
3s( 2.00) rc: 1.67
3p( 2.00) rc: 2.04
3d( 0.00) rc: 2.89
4f( 0.00) rc: 2.49
Ground state valence configuration:   2s02  2p04
Reading pseudopotential information in formatted form from O.psf

Pseudopotential generated from a relativistic atomic calculation

Valence configuration for pseudopotential generation:
2s( 2.00) rc: 0.45
2p( 4.00) rc: 0.92
3d( 0.00) rc: 2.24
4f( 0.00) rc: 0.25
For H, standard SIESTA heuristics set lmxkb to 2
 (one more than the basis l, including polarization orbitals).
Use PS.lmax or PS.KBprojectors blocks to override.
For N, standard SIESTA heuristics set lmxkb to 3
 (one more than the basis l, including polarization orbitals).
Use PS.lmax or PS.KBprojectors blocks to override.
For Si, standard SIESTA heuristics set lmxkb to 3
 (one more than the basis l, including polarization orbitals).
Use PS.lmax or PS.KBprojectors blocks to override.
For O, standard SIESTA heuristics set lmxkb to 3
 (one more than the basis l, including polarization orbitals).
Use PS.lmax or PS.KBprojectors blocks to override.

<basis_specs>
===============================================================================
H                    Z=   1    Mass=  1.0100        Charge= 0.17977+309
Lmxo=0 Lmxkb= 2    BasisType=split      Semic=F
L=0  Nsemic=0  Cnfigmx=1
          i=1  nzeta=2  polorb=1  (1s)
            splnorm:   0.62000    
               vcte:    0.0000    
               rinn:    0.0000    
               qcoe:    0.0000    
               qyuk:    0.0000    
               qwid:   0.10000E-01
                rcs:    0.0000      0.0000    
            lambdas:    1.0000      1.0000    
-------------------------------------------------------------------------------
L=0  Nkbl=1  erefs: 0.17977+309
L=1  Nkbl=1  erefs: 0.17977+309
L=2  Nkbl=1  erefs: 0.17977+309
===============================================================================
</basis_specs>

atom: Called for H                     (Z =   1)

read_vps: Pseudopotential generation method:
read_vps: ATM4.2.7  Troullier-Martins                       
Valence charge for ps generation:    1.00000

xc_check: Exchange-correlation functional:
xc_check: GGA Perdew, Burke & Ernzerhof 1996
V l=0 = -2*Zval/r beyond r=  0.0098
V l=1 = -2*Zval/r beyond r=  0.5817
V l=2 = -2*Zval/r beyond r=  1.9372
All V_l potentials equal beyond r=  1.9372
This should be close to max(r_c) in ps generation
All pots = -2*Zval/r beyond r=  1.9372

VLOCAL1: 99.0% of the norm of Vloc inside     11.567 Ry
VLOCAL1: 99.9% of the norm of Vloc inside     26.362 Ry
atom: Maximum radius for 4*pi*r*r*local-pseudopot. charge    2.25106
atom: Maximum radius for r*vlocal+2*Zval:    1.91306
GHOST: No ghost state for L =  0
GHOST: No ghost state for L =  1
GHOST: No ghost state for L =  2

KBgen: Kleinman-Bylander projectors: 
   l= 0   rc=  2.036604   el= -0.477180   Ekb= -6.081590   kbcos= -0.277285
   l= 1   rc=  2.195416   el=  0.001076   Ekb= -0.926943   kbcos= -0.034643
   l= 2   rc=  2.251056   el=  0.002010   Ekb= -0.130941   kbcos= -0.009788

KBgen: Total number of Kleinman-Bylander projectors:    9
atom: -------------------------------------------------------------------------

atom: SANKEY-TYPE ORBITALS:
atom: Selected multiple-zeta basis: split     

SPLIT: Orbitals with angular momentum L= 0

SPLIT: Basis orbitals for state 1s

SPLIT: PAO cut-off radius determined from an
SPLIT: energy shift=  0.002000 Ry

   izeta = 1
                 lambda =    1.000000
                     rc =    6.518340
                 energy =   -0.475305
                kinetic =    0.912139
    potential(screened) =   -1.387444
       potential(ionic) =   -1.907295

   izeta = 2
                 rmatch =    2.141150
              splitnorm =    0.620000
                 energy =    0.566467
                kinetic =    3.772856
    potential(screened) =   -3.206389
       potential(ionic) =   -3.759093

POLgen: Perturbative polarization orbital with L=  1

POLgen: Polarization orbital for state 1s

   izeta = 1
                     rc =    6.518340
                 energy =    0.533861
                kinetic =    1.121086
    potential(screened) =   -0.587225
       potential(ionic) =   -1.053027
atom: Total number of Sankey-type orbitals:  5

atm_pop: Valence configuration (for local Pseudopot. screening):
 1s( 1.00)                                                            
Vna: chval, zval:    1.00000   1.00000

Vna:  Cut-off radius for the neutral-atom potential:   6.518340

atom: _________________________________________________________________________

<basis_specs>
===============================================================================
N                    Z=   7    Mass=  14.010        Charge= 0.17977+309
Lmxo=1 Lmxkb= 3    BasisType=split      Semic=F
L=0  Nsemic=0  Cnfigmx=2
          i=1  nzeta=2  polorb=0  (2s)
            splnorm:   0.28000    
               vcte:    0.0000    
               rinn:    0.0000    
               qcoe:    0.0000    
               qyuk:    0.0000    
               qwid:   0.10000E-01
                rcs:    0.0000      0.0000    
            lambdas:    1.0000      1.0000    
L=1  Nsemic=0  Cnfigmx=2
          i=1  nzeta=2  polorb=1  (2p)
            splnorm:   0.28000    
               vcte:    0.0000    
               rinn:    0.0000    
               qcoe:    0.0000    
               qyuk:    0.0000    
               qwid:   0.10000E-01
                rcs:    0.0000      0.0000    
            lambdas:    1.0000      1.0000    
-------------------------------------------------------------------------------
L=0  Nkbl=1  erefs: 0.17977+309
L=1  Nkbl=1  erefs: 0.17977+309
L=2  Nkbl=1  erefs: 0.17977+309
L=3  Nkbl=1  erefs: 0.17977+309
===============================================================================
</basis_specs>

atom: Called for N                     (Z =   7)

read_vps: Pseudopotential generation method:
read_vps: ATM4.2.7  Troullier-Martins                       
Valence charge for ps generation:    5.00000

xc_check: Exchange-correlation functional:
xc_check: GGA Perdew, Burke & Ernzerhof 1996
V l=0 = -2*Zval/r beyond r=  1.2889
V l=1 = -2*Zval/r beyond r=  1.2889
V l=2 = -2*Zval/r beyond r=  3.4178
V l=3 = -2*Zval/r beyond r=  2.4084
All V_l potentials equal beyond r=  3.3753
This should be close to max(r_c) in ps generation
All pots = -2*Zval/r beyond r=  3.4178

VLOCAL1: 99.0% of the norm of Vloc inside      3.810 Ry
VLOCAL1: 99.9% of the norm of Vloc inside      8.683 Ry
atom: Maximum radius for 4*pi*r*r*local-pseudopot. charge    4.02088
atom: Maximum radius for r*vlocal+2*Zval:    3.54838
GHOST: No ghost state for L =  0
GHOST: No ghost state for L =  1
GHOST: No ghost state for L =  2
GHOST: No ghost state for L =  3

KBgen: Kleinman-Bylander projectors: 
   l= 0   rc=  3.417763   el= -1.365098   Ekb= -4.433130   kbcos= -0.707855
   l= 1   rc=  3.375302   el= -0.521201   Ekb=-13.264039   kbcos= -0.535594
   l= 2   rc=  3.872880   el=  0.001991   Ekb= -0.641094   kbcos= -0.062456
   l= 3   rc=  3.970931   el=  0.003093   Ekb= -0.474517   kbcos= -0.018236

KBgen: Total number of Kleinman-Bylander projectors:   16
atom: -------------------------------------------------------------------------

atom: SANKEY-TYPE ORBITALS:
atom: Selected multiple-zeta basis: split     

SPLIT: Orbitals with angular momentum L= 0

SPLIT: Basis orbitals for state 2s

SPLIT: PAO cut-off radius determined from an
SPLIT: energy shift=  0.002000 Ry

   izeta = 1
                 lambda =    1.000000
                     rc =    4.730425
                 energy =   -1.363399
                kinetic =    1.245246
    potential(screened) =   -2.608645
       potential(ionic) =   -8.121105

   izeta = 2
                 rmatch =    2.531849
              splitnorm =    0.280000
                 energy =   -0.959908
                kinetic =    2.409435
    potential(screened) =   -3.369343
       potential(ionic) =   -9.427975

SPLIT: Orbitals with angular momentum L= 1

SPLIT: Basis orbitals for state 2p

SPLIT: PAO cut-off radius determined from an
SPLIT: energy shift=  0.002000 Ry

   izeta = 1
                 lambda =    1.000000
                     rc =    5.924108
                 energy =   -0.519262
                kinetic =    3.672940
    potential(screened) =   -4.192202
       potential(ionic) =   -9.518354

   izeta = 2
                 rmatch =    2.531849
              splitnorm =    0.280000
                 energy =   -0.104258
                kinetic =    6.807538
    potential(screened) =   -6.911796
       potential(ionic) =  -13.149920

POLgen: Perturbative polarization orbital with L=  2

POLgen: Polarization orbital for state 2p

   izeta = 1
                     rc =    5.924108
                 energy =    1.427508
                kinetic =    2.872379
    potential(screened) =   -1.444871
       potential(ionic) =   -5.563644
atom: Total number of Sankey-type orbitals: 13

atm_pop: Valence configuration (for local Pseudopot. screening):
 2s( 2.00)                                                            
 2p( 3.00)                                                            
Vna: chval, zval:    5.00000   5.00000

Vna:  Cut-off radius for the neutral-atom potential:   5.924108

atom: _________________________________________________________________________

<basis_specs>
===============================================================================
Si                   Z=  14    Mass=  28.090        Charge= 0.17977+309
Lmxo=1 Lmxkb= 3    BasisType=split      Semic=F
L=0  Nsemic=0  Cnfigmx=3
          i=1  nzeta=2  polorb=0  (3s)
            splnorm:   0.28000    
               vcte:    0.0000    
               rinn:    0.0000    
               qcoe:    0.0000    
               qyuk:    0.0000    
               qwid:   0.10000E-01
                rcs:    0.0000      0.0000    
            lambdas:    1.0000      1.0000    
L=1  Nsemic=0  Cnfigmx=3
          i=1  nzeta=2  polorb=1  (3p)
            splnorm:   0.28000    
               vcte:    0.0000    
               rinn:    0.0000    
               qcoe:    0.0000    
               qyuk:    0.0000    
               qwid:   0.10000E-01
                rcs:    0.0000      0.0000    
            lambdas:    1.0000      1.0000    
-------------------------------------------------------------------------------
L=0  Nkbl=1  erefs: 0.17977+309
L=1  Nkbl=1  erefs: 0.17977+309
L=2  Nkbl=1  erefs: 0.17977+309
L=3  Nkbl=1  erefs: 0.17977+309
===============================================================================
</basis_specs>

atom: Called for Si                    (Z =  14)

read_vps: Pseudopotential generation method:
read_vps: ATM4.2.7  Troullier-Martins                       
Valence charge for ps generation:    4.00000

xc_check: Exchange-correlation functional:
xc_check: GGA Perdew, Burke & Ernzerhof 1996
V l=0 = -2*Zval/r beyond r=  2.7826
V l=1 = -2*Zval/r beyond r=  2.7826
V l=2 = -2*Zval/r beyond r=  2.9253
V l=3 = -2*Zval/r beyond r=  2.7826
All V_l potentials equal beyond r=  2.8530
This should be close to max(r_c) in ps generation
All pots = -2*Zval/r beyond r=  2.9253

VLOCAL1: 99.0% of the norm of Vloc inside      5.333 Ry
VLOCAL1: 99.9% of the norm of Vloc inside     12.154 Ry
atom: Maximum radius for 4*pi*r*r*local-pseudopot. charge    3.39869
atom: Maximum radius for r*vlocal+2*Zval:    2.96205
GHOST: No ghost state for L =  0
GHOST: No ghost state for L =  1
GHOST: No ghost state for L =  2
GHOST: No ghost state for L =  3

KBgen: Kleinman-Bylander projectors: 
   l= 0   rc=  3.075247   el= -0.794092   Ekb=  5.879390   kbcos=  0.167461
   l= 1   rc=  3.153101   el= -0.300068   Ekb=  2.642817   kbcos=  0.058301
   l= 2   rc=  3.273594   el=  0.001958   Ekb= -1.185135   kbcos= -0.104411
   l= 3   rc=  3.232927   el=  0.003046   Ekb= -0.497174   kbcos= -0.015889

KBgen: Total number of Kleinman-Bylander projectors:   16
atom: -------------------------------------------------------------------------

atom: SANKEY-TYPE ORBITALS:
atom: Selected multiple-zeta basis: split     

SPLIT: Orbitals with angular momentum L= 0

SPLIT: Basis orbitals for state 3s

SPLIT: PAO cut-off radius determined from an
SPLIT: energy shift=  0.002000 Ry

   izeta = 1
                 lambda =    1.000000
                     rc =    6.429618
                 energy =   -0.792283
                kinetic =    0.525293
    potential(screened) =   -1.317576
       potential(ionic) =   -3.744923

   izeta = 2
                 rmatch =    3.998416
              splitnorm =    0.280000
                 energy =   -0.583081
                kinetic =    1.069570
    potential(screened) =   -1.652651
       potential(ionic) =   -4.235185

SPLIT: Orbitals with angular momentum L= 1

SPLIT: Basis orbitals for state 3p

SPLIT: PAO cut-off radius determined from an
SPLIT: energy shift=  0.002000 Ry

   izeta = 1
                 lambda =    1.000000
                     rc =    8.464845
                 energy =   -0.298236
                kinetic =    0.785360
    potential(screened) =   -1.083596
       potential(ionic) =   -3.273779

   izeta = 2
                 rmatch =    4.587816
              splitnorm =    0.280000
                 energy =   -0.131871
                kinetic =    1.403687
    potential(screened) =   -1.535557
       potential(ionic) =   -4.015310

POLgen: Perturbative polarization orbital with L=  2

POLgen: Polarization orbital for state 3p

   izeta = 1
                     rc =    8.464845
                 energy =    0.321949
                kinetic =    1.055677
    potential(screened) =   -0.733728
       potential(ionic) =   -2.672950
atom: Total number of Sankey-type orbitals: 13

atm_pop: Valence configuration (for local Pseudopot. screening):
 3s( 2.00)                                                            
 3p( 2.00)                                                            
Vna: chval, zval:    4.00000   4.00000

Vna:  Cut-off radius for the neutral-atom potential:   8.464845

atom: _________________________________________________________________________

<basis_specs>
===============================================================================
O                    Z=   8    Mass=  16.000        Charge= 0.17977+309
Lmxo=1 Lmxkb= 3    BasisType=split      Semic=F
L=0  Nsemic=0  Cnfigmx=2
          i=1  nzeta=2  polorb=0  (2s)
            splnorm:   0.28000    
               vcte:    0.0000    
               rinn:    0.0000    
               qcoe:    0.0000    
               qyuk:    0.0000    
               qwid:   0.10000E-01
                rcs:    0.0000      0.0000    
            lambdas:    1.0000      1.0000    
L=1  Nsemic=0  Cnfigmx=2
          i=1  nzeta=2  polorb=1  (2p)
            splnorm:   0.28000    
               vcte:    0.0000    
               rinn:    0.0000    
               qcoe:    0.0000    
               qyuk:    0.0000    
               qwid:   0.10000E-01
                rcs:    0.0000      0.0000    
            lambdas:    1.0000      1.0000    
-------------------------------------------------------------------------------
L=0  Nkbl=1  erefs: 0.17977+309
L=1  Nkbl=1  erefs: 0.17977+309
L=2  Nkbl=1  erefs: 0.17977+309
L=3  Nkbl=1  erefs: 0.17977+309
===============================================================================
</basis_specs>

atom: Called for O                     (Z =   8)

read_vps: Pseudopotential generation method:
read_vps: ATM4.2.7  Troullier-Martins                       
Valence charge for ps generation:    6.00000

xc_check: Exchange-correlation functional:
xc_check: GGA Perdew, Burke & Ernzerhof 1996
V l=0 = -2*Zval/r beyond r=  1.1000
V l=1 = -2*Zval/r beyond r=  1.1000
V l=2 = -2*Zval/r beyond r=  2.2154
V l=3 = -2*Zval/r beyond r=  1.1000
All V_l potentials equal beyond r=  2.2154
This should be close to max(r_c) in ps generation
All pots = -2*Zval/r beyond r=  2.2154

VLOCAL1: 99.0% of the norm of Vloc inside      8.845 Ry
VLOCAL1: 99.9% of the norm of Vloc inside     20.157 Ry
atom: Maximum radius for 4*pi*r*r*local-pseudopot. charge    2.67231
atom: Maximum radius for r*vlocal+2*Zval:    2.32897
GHOST: No ghost state for L =  0
GHOST: No ghost state for L =  1
GHOST: No ghost state for L =  2
GHOST: No ghost state for L =  3

KBgen: Kleinman-Bylander projectors: 
   l= 0   rc=  2.243238   el= -1.759686   Ekb=**********   kbcos= -0.171774
   l= 1   rc=  2.328968   el= -0.663873   Ekb=-14.506792   kbcos= -0.519897
   l= 2   rc=  2.573941   el=  0.002031   Ekb= -1.137373   kbcos= -0.019581
   l= 3   rc=  2.606321   el=  0.003153   Ekb= -1.013546   kbcos= -0.003122

KBgen: Total number of Kleinman-Bylander projectors:   16
atom: -------------------------------------------------------------------------

atom: SANKEY-TYPE ORBITALS:
atom: Selected multiple-zeta basis: split     

SPLIT: Orbitals with angular momentum L= 0

SPLIT: Basis orbitals for state 2s

SPLIT: PAO cut-off radius determined from an
SPLIT: energy shift=  0.002000 Ry

   izeta = 1
                 lambda =    1.000000
                     rc =    4.243912
                 energy =   -1.758270
                kinetic =    3.286084
    potential(screened) =   -5.044353
       potential(ionic) =  -12.921184

   izeta = 2
                 rmatch =    2.187845
              splitnorm =    0.280000
                 energy =   -0.885018
                kinetic =    8.134434
    potential(screened) =   -9.019452
       potential(ionic) =  -17.710645

SPLIT: Orbitals with angular momentum L= 1

SPLIT: Basis orbitals for state 2p

SPLIT: PAO cut-off radius determined from an
SPLIT: energy shift=  0.002000 Ry

   izeta = 1
                 lambda =    1.000000
                     rc =    5.314825
                 energy =   -0.661986
                kinetic =    4.917472
    potential(screened) =   -5.579458
       potential(ionic) =  -13.236259

   izeta = 2
                 rmatch =    2.160663
              splitnorm =    0.280000
                 energy =   -0.068760
                kinetic =    9.183374
    potential(screened) =   -9.252135
       potential(ionic) =  -18.274251

POLgen: Perturbative polarization orbital with L=  2

POLgen: Polarization orbital for state 2p

   izeta = 1
                     rc =    5.314825
                 energy =    1.970580
                kinetic =    3.886128
    potential(screened) =   -1.915547
       potential(ionic) =   -7.749584
atom: Total number of Sankey-type orbitals: 13

atm_pop: Valence configuration (for local Pseudopot. screening):
 2s( 2.00)                                                            
 2p( 4.00)                                                            
Vna: chval, zval:    6.00000   6.00000

Vna:  Cut-off radius for the neutral-atom potential:   5.314825

atom: _________________________________________________________________________

prinput: Basis input ----------------------------------------------------------

PAO.BasisType split     

%block ChemicalSpeciesLabel
    1    1 H                       # Species index, atomic number, species label
    2    7 N                       # Species index, atomic number, species label
    3   14 Si                      # Species index, atomic number, species label
    4    8 O                       # Species index, atomic number, species label
%endblock ChemicalSpeciesLabel

%block PAO.Basis                 # Define Basis set
H                     1                    # Species label, number of l-shells
 n=1   0   2 P   1                   # n, l, Nzeta, Polarization, NzetaPol
   6.518      2.141   
   1.000      1.000   
N                     2                    # Species label, number of l-shells
 n=2   0   2                         # n, l, Nzeta 
   4.730      2.532   
   1.000      1.000   
 n=2   1   2 P   1                   # n, l, Nzeta, Polarization, NzetaPol
   5.924      2.532   
   1.000      1.000   
Si                    2                    # Species label, number of l-shells
 n=3   0   2                         # n, l, Nzeta 
   6.430      3.998   
   1.000      1.000   
 n=3   1   2 P   1                   # n, l, Nzeta, Polarization, NzetaPol
   8.465      4.588   
   1.000      1.000   
O                     2                    # Species label, number of l-shells
 n=2   0   2                         # n, l, Nzeta 
   4.244      2.188   
   1.000      1.000   
 n=2   1   2 P   1                   # n, l, Nzeta, Polarization, NzetaPol
   5.315      2.161   
   1.000      1.000   
%endblock PAO.Basis

prinput: ----------------------------------------------------------------------

Dumping basis to NetCDF file H.ion.nc
Dumping basis to NetCDF file N.ion.nc
Dumping basis to NetCDF file Si.ion.nc
Dumping basis to NetCDF file O.ion.nc
coor:   Atomic-coordinates input format  =     Cartesian coordinates
coor:                                          (in Angstroms)

siesta: Atomic coordinates (Bohr) and species
siesta:      4.31792  -9.81768   0.00000  1        1
siesta:      2.59711  -8.81503   0.00000  2        2
siesta:     -0.41253 -10.38326   0.00000  3        3
siesta:     -0.33040 -13.20006   0.00000  1        4
siesta:     -3.14019  -8.66630   0.00000  2        5
siesta:     -2.06030  -5.43214   0.00000  3        6
siesta:     -2.89201  -1.33728   0.00000  3        7
siesta:     -5.94160  -0.17360   0.00000  2        8
siesta:     -6.43014   1.81127   0.00000  1        9
siesta:     -7.46581  -1.44982   0.00000  1       10
siesta:     -0.33706   0.78140   0.00000  2       11
siesta:      2.82552  -0.08957   0.00000  3       12
siesta:      4.64124   2.09244   0.00000  1       13
siesta:      4.35491  -2.99662   0.00000  2       14
siesta:      2.09241  -5.37836   0.00000  3       15
siesta:      0.10335  21.24922   0.00000  1       16
siesta:     -1.42489  19.94114   0.00000  2       17
siesta:     -4.55540  21.28874   0.00000  3       18
siesta:     -4.37235  24.14360   0.00000  1       19
siesta:     -7.81736  18.75075   0.00000  3       20
siesta:    -12.26664  18.73566   0.00000  3       21
siesta:    -13.32945  20.12364  -2.27113  1       22
siesta:    -12.83320  15.94058  -0.16286  1       23
siesta:    -13.32966  19.80304   2.43425  1       24
siesta:     -6.06107  14.83794   0.00000  3       25
siesta:     -7.85530  12.40295   0.00000  4       26
siesta:     -2.67667  14.50962   0.00000  2       27
siesta:     -2.05119  12.55875   0.00000  1       28
siesta:     -0.20404  16.76699   0.00000  3       29
siesta:      2.75515  16.26197   0.00000  4       30

siesta: System type = molecule  

initatomlists: Number of atoms, orbitals, and projectors:     30   302   403

siesta: ******************** Simulation parameters ****************************
siesta:
siesta: The following are some of the parameters of the simulation.
siesta: A complete list of the parameters used, including default values,
siesta: can be found in file out.fdf
siesta:
redata: Spin configuration                          = spin-orbit
redata: Number of spin components                   = 8
redata: Time-Reversal Symmetry                      = F
redata: Spin spiral                                 = F
############################################################
This spin-orbit implementation uses a local approximation.
From 4.2 and onwards the full non-local approximation is implemented
You are strongly advised to use >=4.2 versions!
############################################################
redata: Long output                                 =   F
redata: Number of Atomic Species                    =        4
redata: Charge density info will appear in .RHO file
redata: Write Mulliken Pop.                         = NO
redata: Matel table size (NRTAB)                    =     1024
redata: Mesh Cutoff                                 =   340.0000 Ry
redata: Net charge of the system                    =     0.0000 |e|
redata: Min. number of SCF Iter                     =        1
redata: Max. number of SCF Iter                     =      200
redata: SCF mix quantity                            = Hamiltonian
redata: Mix DM or H after convergence               =   F
redata: Recompute H after scf cycle                 =   F
redata: Mix DM in first SCF step                    =   T
redata: Write Pulay info on disk                    =   F
redata: New DM Occupancy tolerance                  = 0.000000000001
redata: No kicks to SCF
redata: DM Mixing Weight for Kicks                  =     0.5000
redata: Require Harris convergence for SCF          =   F
redata: Harris energy tolerance for SCF             =     0.000100 eV
redata: Require DM convergence for SCF              =   T
redata: DM tolerance for SCF                        =     0.000008
redata: Require EDM convergence for SCF             =   F
redata: EDM tolerance for SCF                       =     0.001000 eV
redata: Require H convergence for SCF               =   T
redata: Hamiltonian tolerance for SCF               =     0.000001 eV
redata: Require (free) Energy convergence for SCF   =   F
redata: (free) Energy tolerance for SCF             =     0.000100 eV
redata: Using Saved Data (generic)                  =   F
redata: Use continuation files for DM               =   T
redata: Neglect nonoverlap interactions             =   F
redata: Method of Calculation                       = Diagonalization
redata: Electronic Temperature                      =   299.9978 K
redata: Fix the spin of the system                  =   F
redata: Dynamics option                             = Verlet MD run
redata: Initial MD time step                        =        1
redata:   Final MD time step                        =        1
redata: Length of MD time step                      =     0.5000 fs
redata: Initial Temperature of MD run               =     0.0000 K
redata: Perform a MD quench                         =   F
mix.SCF: Pulay mixing                            = Pulay
mix.SCF:    Variant                              = stable
mix.SCF:    History steps                        = 6
mix.SCF:    Linear mixing weight                 =     0.250000
mix.SCF:    Mixing weight                        =     0.250000
mix.SCF:    SVD condition                        = 0.1000E-07
mix.SCF:    Restart steps                        = 24
mix.SCF:    Restart save steps                   = 3
mix.SCF: Spin-component mixing                   all
redata: Save all siesta data in one NC              =   F
redata: ***********************************************************************

%block SCF.Mixers
  Pulay
%endblock SCF.Mixers

%block SCF.Mixer.Pulay
  # Mixing method
  method pulay
  variant stable

  # Mixing options
  weight 0.2500
  weight.linear 0.2500
  history 6
  restart 24
  restart.save 3
%endblock SCF.Mixer.Pulay

Size of DM history Fstack: 3
Total number of electrons:    98.000000
Total ionic charge:    98.000000

* ProcessorY, Blocksize:    2  24


* Orbital distribution balance (max,min):    48    24


Time-reversal symmetry not used.

siesta: k-grid: Number of k-points =     1
siesta: k-grid: Cutoff (effective) =     5.000 Ang
siesta: k-grid: Supercell and displacements
siesta: k-grid:    1   0   0      0.000
siesta: k-grid:    0   1   0      0.000
siesta: k-grid:    0   0   1      0.000

diag: Algorithm                                     = ELPA-1stage
diag: Parallel over k                               =   F
diag: Use parallel 2D distribution                  =   T
diag: Parallel block-size                           = 24
diag: Parallel distribution                         =     2 x     4
diag: Used triangular part                          = Lower
diag: Absolute tolerance                            =  0.100E-15
diag: Orthogonalization factor                      =  0.100E-05
diag: Memory factor                                 =  1.0000


ts: **************************************************************
ts: Save H and S matrices                           =    F
ts: Save DM and EDM matrices                        =    F
ts: Only save the overlap matrix S                  =    F
ts: **************************************************************

************************ Begin: TS CHECKS AND WARNINGS ************************
************************ End: TS CHECKS AND WARNINGS **************************


                     ====================================
                        Begin MD step =      1
                     ====================================

outcoor: Atomic coordinates (Ang):                          
    2.28494382   -5.19529124    0.00000000   1       1  H
    1.37433094   -4.66471070    0.00000000   2       2  N
   -0.21830245   -5.49458215    0.00000000   3       3  Si
   -0.17484108   -6.98516892    0.00000000   1       4  H
   -1.66171682   -4.58600741    0.00000000   2       5  N
   -1.09026419   -2.87456374    0.00000000   3       6  Si
   -1.53038332   -0.70765692    0.00000000   3       7  Si
   -3.14415959   -0.09186471    0.00000000   2       8  N
   -3.40268075    0.95848335    0.00000000   1       9  H
   -3.95073599   -0.76720972    0.00000000   1      10  H
   -0.17836637    0.41349951    0.00000000   2      11  N
    1.49520211   -0.04739960    0.00000000   3      12  Si
    2.45603905    1.10727302    0.00000000   1      13  H
    2.30451743   -1.58574382    0.00000000   2      14  N
    1.10725559   -2.84610319    0.00000000   3      15  Si
    0.05468988   11.24459931    0.00000000   1      16  H
   -0.75402080   10.55239343    0.00000000   2      17  N
   -2.41061064   11.26551353    0.00000000   3      18  Si
   -2.31374547   12.77623874    0.00000000   1      19  H
   -4.13676699    9.92246540    0.00000000   3      20  Si
   -6.49122124    9.91447847    0.00000000   3      21  Si
   -7.05363936   10.64896812   -1.20183078   1      22  H
   -6.79103499    8.43538734   -0.08618332   1      23  H
   -7.05375182   10.47931093    1.28814761   1      24  H
   -3.20737635    7.85189417    0.00000000   3      25  Si
   -4.15684471    6.56335804    0.00000000   4      26  O
   -1.41643148    7.67815870    0.00000000   2      27  N
   -1.08544012    6.64580172    0.00000000   1      28  H
   -0.10797326    8.87270512    0.00000000   3      29  Si
    1.45796367    8.60545827    0.00000000   4      30  O

outcell: Unit cell vectors (Ang):
       30.000000    0.000000    0.000000
        0.000000   45.000000    0.000000
        0.000000    0.000000   10.000000

outcell: Cell vector modules (Ang)   :   30.000000   45.000000   10.000000
outcell: Cell angles (23,13,12) (deg):     90.0000     90.0000     90.0000
outcell: Cell volume (Ang**3)        :  13500.0000
<dSpData1D:S at geom step 1
  <sparsity:sparsity for geom step 1
    nrows_g=302 nrows=48 sparsity=.0767 nnzs=6994, refcount: 8>
  <dData1D:(new from dSpData1D) n=6994, refcount: 1>
refcount: 1>
new_DM -- step:     1
Initializing Density Matrix...

Attempting to read DM from file... Failed...
DM filled with atomic data:
<dSpData2D:DM initialized from atoms
  <sparsity:sparsity for geom step 1
    nrows_g=302 nrows=48 sparsity=.0767 nnzs=6994, refcount: 9>
  <dData2D:DM n=6994 m=8, refcount: 1>
refcount: 1>
     spin moment: S , {S} =   56.00000   0.00000   0.00000  56.00000
No. of atoms with KB's overlaping orbs in proc 0. Max # of overlaps:      27     134

Initializing spin-orbit part of the Hamiltonian
  Adding spin-orbit effects for H 
  Adding spin-orbit effects for N 
  Adding spin-orbit effects for Si
  Adding spin-orbit effects for O 


New grid distribution:   1
           1       1:  180    1:  125    1:   15
           2       1:  180    1:  125   16:   30
           3       1:  180    1:  125   31:   45
           4       1:  180    1:  125   46:   60
           5       1:  180  126:  250    1:   15
           6       1:  180  126:  250   16:   30
           7       1:  180  126:  250   31:   45
           8       1:  180  126:  250   46:   60

InitMesh: MESH =   360 x   500 x   120 =    21600000
InitMesh: (bp) =   180 x   250 x    60 =     2700000
InitMesh: Mesh cutoff (required, used) =   340.000   341.206 Ry
ExtMesh (bp) on 0 =   288 x   225 x   123 =     7970400
New grid distribution:   2
           1       1:  158    1:   47    1:   60
           2       1:  151  233:  250    1:   60
           3       1:  158   48:   64    1:   60
           4     159:  180   48:   64    1:   60
           5       1:  151   65:  232    1:   60
           6     152:  180   65:  231    1:   60
           7     159:  180    1:   47    1:   60
           8     152:  180  232:  250    1:   60
New grid distribution:   3
           1       1:  143    1:   41    1:   60
           2       1:  146  220:  250    1:   60
           3       1:  143   42:   63    1:   60
           4     144:  180   38:   63    1:   60
           5       1:  146   64:  219    1:   60
           6     147:  180   64:  216    1:   60
           7     144:  180    1:   37    1:   60
           8     147:  180  217:  250    1:   60
Setting up quadratic distribution...
ExtMesh (bp) on 0 =   266 x   147 x   168 =     6569136
PhiOnMesh: Number of (b)points on node 0 =               445560
PhiOnMesh: nlist on node 0 =              1759902

stepf: Fermi-Dirac step function

siesta: Program's energy decomposition (eV):
siesta: Ebs     =      -626.619805
siesta: Eions   =      3553.971015
siesta: Ena     =       374.984508
siesta: Ekin    =      3171.224921
siesta: Enl     =     -2984.612181
siesta: Eso     =        -0.003883
siesta: Edftu   =         0.000000
siesta: DEna    =       129.719676
siesta: DUscf   =        75.700956
siesta: DUext   =         0.000000
siesta: Exc     =     -1168.637368
siesta: eta*DQ  =         0.000000
siesta: Emadel  =         0.000000
siesta: Emeta   =         0.000000
siesta: Emolmec =         0.000000
siesta: Ekinion =         0.000000
siesta: Eharris =     -3884.467599
siesta: Etot    =     -3955.594387
siesta: FreeEng =     -3955.597727

        iscf     Eharris(eV)        E_KS(eV)     FreeEng(eV)     dDmax    Ef(eV) dHmax(eV)
   scf:    1    -3884.467599    -3955.594387    -3955.597727  0.970586 -4.935586 21.671966
     spin moment: S , {S} =    2.02376  -0.00000  -0.00000   2.02376
timer: Routine,Calls,Time,% = IterSCF        1      16.716  30.32
   scf:    2    -3995.043812    -3988.325086    -3988.325093  0.465890 -4.253226 11.988148
     spin moment: S , {S} =    2.00009   0.00000  -0.00000   2.00009
   scf:    3    -3955.904053    -3984.958492    -3984.989425  0.422311 -4.208843 12.602102
     spin moment: S , {S} =    1.99743  -0.00000  -0.00000   1.99743
   scf:    4    -4002.392426    -3997.232350    -3997.232350  0.213781 -3.865370  6.196191
     spin moment: S , {S} =    0.00010  -0.00000   0.00000   0.00010
   scf:    5    -3998.646617    -3998.012377    -3998.012377  0.038211 -3.745139  4.005325
     spin moment: S , {S} =    0.00006  -0.00000   0.00000   0.00006
   scf:    6    -3998.813930    -3998.412488    -3998.412488  0.026924 -3.727455  1.898119
     spin moment: S , {S} =    0.00003  -0.00000   0.00000   0.00003
   scf:    7    -3998.797951    -3998.599499    -3998.599499  0.022417 -3.778057  0.782527
     spin moment: S , {S} =    0.00001  -0.00000   0.00000   0.00001
   scf:    8    -3998.731027    -3998.663036    -3998.663036  0.012472 -3.822175  0.523283
     spin moment: S , {S} =    0.00000  -0.00000   0.00000   0.00000
   scf:    9    -3998.713900    -3998.687323    -3998.687323  0.007238 -3.835451  0.416157
     spin moment: S , {S} =    0.00000  -0.00000   0.00000   0.00000
   scf:   10    -3998.749087    -3998.707166    -3998.707166  0.025520 -3.868995  0.232702
     spin moment: S , {S} =    0.00000  -0.00000  -0.00000  -0.00000
   scf:   11    -3998.713503    -3998.710518    -3998.710518  0.004267 -3.852811  0.086686
     spin moment: S , {S} =    0.00000  -0.00000  -0.00000  -0.00000
   scf:   12    -3998.711806    -3998.711196    -3998.711197  0.001156 -3.849418  0.050641
     spin moment: S , {S} =    0.00000   0.00000  -0.00000  -0.00000
   scf:   13    -3998.712283    -3998.711729    -3998.711730  0.001131 -3.847104  0.027525
     spin moment: S , {S} =    0.00000   0.00000  -0.00000   0.00000
   scf:   14    -3998.712229    -3998.711969    -3998.711970  0.000889 -3.845991  0.017193
     spin moment: S , {S} =    0.00000   0.00000  -0.00000   0.00000
   scf:   15    -3998.712185    -3998.712071    -3998.712072  0.000609 -3.845614  0.009945
     spin moment: S , {S} =    0.00000   0.00000  -0.00000  -0.00000
   scf:   16    -3998.712159    -3998.712111    -3998.712112  0.000471 -3.845562  0.004032
     spin moment: S , {S} =    0.00000   0.00000  -0.00000   0.00000
   scf:   17    -3998.712125    -3998.712117    -3998.712118  0.000156 -3.845733  0.002060
     spin moment: S , {S} =    0.00000   0.00000   0.00000   0.00000
   scf:   18    -3998.712124    -3998.712121    -3998.712122  0.000126 -3.845860  0.001186
     spin moment: S , {S} =    0.00000   0.00000   0.00000   0.00000
   scf:   19    -3998.712123    -3998.712122    -3998.712123  0.000073 -3.845899  0.000823
     spin moment: S , {S} =    0.00000   0.00000   0.00000   0.00000
   scf:   20    -3998.712122    -3998.712122    -3998.712123  0.000034 -3.845923  0.000543
     spin moment: S , {S} =    0.00000   0.00000   0.00000   0.00000
   scf:   21    -3998.712122    -3998.712122    -3998.712123  0.000029 -3.845935  0.000394
     spin moment: S , {S} =    0.00000   0.00000   0.00000   0.00000
   scf:   22    -3998.712122    -3998.712122    -3998.712123  0.000034 -3.845953  0.000191
     spin moment: S , {S} =    0.00000   0.00000   0.00000   0.00000
   scf:   23    -3998.712122    -3998.712122    -3998.712123  0.000017 -3.845956  0.000150
     spin moment: S , {S} =    0.00000   0.00000   0.00000   0.00000
   scf:   24    -3998.712122    -3998.712122    -3998.712123  0.000015 -3.845955  0.000081
     spin moment: S , {S} =    0.00000   0.00000   0.00000   0.00000
mix: Pulay -- resetting history
   scf:   25    -3998.712122    -3998.712122    -3998.712123  0.000012 -3.845951  0.000041
     spin moment: S , {S} =    0.00000   0.00000   0.00000   0.00000
   scf:   26    -3998.712122    -3998.712122    -3998.712123  0.000004 -3.845949  0.000026
     spin moment: S , {S} =    0.00000   0.00000   0.00000   0.00000
   scf:   27    -3998.712122    -3998.712122    -3998.712123  0.000003 -3.845948  0.000016
     spin moment: S , {S} =    0.00000   0.00000   0.00000   0.00000
   scf:   28    -3998.712122    -3998.712122    -3998.712123  0.000003 -3.845949  0.000007
     spin moment: S , {S} =    0.00000  -0.00000   0.00000   0.00000
   scf:   29    -3998.712122    -3998.712122    -3998.712123  0.000001 -3.845949  0.000006
     spin moment: S , {S} =    0.00000  -0.00000   0.00000   0.00000
   scf:   30    -3998.712122    -3998.712122    -3998.712123  0.000001 -3.845949  0.000003
     spin moment: S , {S} =    0.00000   0.00000   0.00000   0.00000
   scf:   31    -3998.712122    -3998.712122    -3998.712123  0.000000 -3.845948  0.000003
     spin moment: S , {S} =    0.00000  -0.00000   0.00000   0.00000
   scf:   32    -3998.712122    -3998.712122    -3998.712123  0.000000 -3.845949  0.000002
     spin moment: S , {S} =    0.00000  -0.00000   0.00000   0.00000
   scf:   33    -3998.712122    -3998.712122    -3998.712123  0.000000 -3.845950  0.000001
     spin moment: S , {S} =    0.00000  -0.00000   0.00000   0.00000
   scf:   34    -3998.712122    -3998.712122    -3998.712123  0.000000 -3.845950  0.000000
     spin moment: S , {S} =    0.00000  -0.00000   0.00000   0.00000

SCF Convergence by DM+H criterion
max |DM_out - DM_in|         :     0.0000001005
max |H_out - H_in|      (eV) :     0.0000004557
SCF cycle converged after 34 iterations

Using DM_out to compute the final energy and forces
No. of atoms with KB's overlaping orbs in proc 0. Max # of overlaps:      27     134

siesta: E_KS(eV) =            -3998.7121

siesta: E_KS - E_eggbox =     -3998.7121
     spin moment: S , {S} =    0.00000  -0.00000   0.00000   0.00000

siesta: Atomic forces (eV/Ang):
     1    0.143125   -0.027349   -0.000000
     2   -0.035322    0.043698    0.000000
     3   -0.031043   -0.017865   -0.000000
     4    0.068490   -0.134419   -0.000000
     5    0.054215    0.005202   -0.000000
     6   -0.193207    0.018646    0.000000
     7    1.072935   -0.041553   -0.000000
     8   -0.655536    1.416835    0.000000
     9    0.169780   -1.013286   -0.000000
    10   -0.111215    0.135033    0.000000
    11   -0.192610   -0.375834    0.000000
    12   -0.281088    0.048931   -0.000000
    13   -0.123111   -0.051818    0.000000
    14    0.031734   -0.118107   -0.000000
    15    0.111024    0.096396   -0.000000
    16   -0.032988   -0.045099   -0.000950
    17    0.043608   -0.072732   -0.000794
    18   -0.151332    0.039223    0.005209
    19   -0.028575   -0.093077   -0.001426
    20    0.124696    0.078654   -0.001070
    21    0.057081   -0.026409   -0.007162
    22    0.053099   -0.018900    0.117880
    23    0.023399    0.090328   -0.013055
    24    0.049977    0.039234   -0.091166
    25   -0.646147   -0.408183    0.001045
    26   -0.919211    1.824737    0.000493
    27    0.360376   -0.429089   -0.000555
    28   -0.152550    0.849571   -0.000073
    29    0.139710    0.167411   -0.000223
    30    0.079973    3.288812    0.000253
----------------------------------------
   Tot   -0.970712    5.268992    0.008406
----------------------------------------
   Max    3.288812
   Res    0.493015    sqrt( Sum f_i^2 / 3N )
----------------------------------------
   Max    3.288812    constrained

Stress tensor Voigt[x,y,z,yz,xz,xy] (kbar):        0.13        0.29       -0.01       -0.01        0.00        0.12
(Free)E + p*V (eV/cell)    -3999.8504
Target enthalpy (eV/cell)    -3998.7121

siesta: Stress tensor (static) (eV/Ang**3):
         0.000081    0.000075    0.000000
         0.000075    0.000178   -0.000004
         0.000000   -0.000004   -0.000006

siesta: Pressure (static):         -0.13508807  kBar

siesta: Stress tensor (total) (eV/Ang**3):
         0.000081    0.000075    0.000000
         0.000075    0.000178   -0.000004
         0.000000   -0.000004   -0.000006

siesta: Pressure (total):         -0.13508807  kBar

siesta: Temp_ion =       0.000 K

siesta: Eigenvalues (eV):
ik =     1
  -22.8326  -22.8326  -22.3368  -22.3368  -21.7175  -21.7175  -21.2727  -21.2727  -21.0238  -21.0238
  -20.9445  -20.9445  -19.4001  -19.4001  -19.2366  -19.2366  -18.6133  -18.6133  -15.0116  -15.0116
  -14.0996  -14.0996  -13.6506  -13.6506  -13.5627  -13.5627  -13.0665  -13.0665  -12.8919  -12.8919
  -12.5372  -12.5372  -12.1646  -12.1646  -11.9003  -11.9003  -11.6135  -11.6135  -11.4797  -11.4797
  -10.9895  -10.9895  -10.6072  -10.6072  -10.2050  -10.2050   -9.5332   -9.5332   -9.3163   -9.3163
   -9.1595   -9.1595   -9.0861   -9.0861   -9.0140   -9.0140   -8.7963   -8.7963   -8.5877   -8.5877
   -8.3832   -8.3832   -8.2387   -8.2387   -8.1348   -8.1348   -7.9958   -7.9958   -7.9219   -7.9219
   -7.7036   -7.7036   -7.3976   -7.3976   -7.3038   -7.3038   -7.2554   -7.2554   -6.8438   -6.8438
   -6.8434   -6.8434   -6.7094   -6.7094   -6.4109   -6.4109   -6.2554   -6.2554   -6.1694   -6.1694
   -5.8079   -5.8079   -5.6916   -5.6916   -5.5463   -5.5463   -4.2162   -4.2162   -3.4757   -3.4757
   -2.6886   -2.6886   -2.1915   -2.1915   -2.1737   -2.1737   -2.1086   -2.1086   -1.9772   -1.9772
   -1.9450   -1.9450   -1.7116   -1.7116   -1.6173   -1.6173   -1.5899   -1.5899   -1.4031   -1.4031
   -1.1444   -1.1444   -0.5744   -0.5744   -0.3121   -0.3121   -0.2025   -0.2025   -0.1720   -0.1720
   -0.0079   -0.0079    0.0623    0.0623    0.2596    0.2596    0.5354    0.5354    0.5741    0.5741
    0.6379    0.6379    0.7582    0.7582    1.2187    1.2187    1.2762    1.2762    1.3041    1.3041
    1.4592    1.4592    1.5794    1.5794    1.9210    1.9210    1.9668    1.9668    2.1801    2.1801
    2.4393    2.4393    2.7624    2.7624    2.8047    2.8047    2.8187    2.8187    2.8496    2.8496
    3.0810    3.0810    3.1177    3.1177    3.1514    3.1514    3.2619    3.2619    3.3238    3.3238
    3.6837    3.6837    3.9251    3.9251    4.2138    4.2138    4.2195    4.2195    4.2465    4.2465
    4.3789    4.3789    4.6910    4.6910    4.6958    4.6958    4.8128    4.8128    5.0764    5.0764
    5.0783    5.0783    5.2222    5.2222    5.5666    5.5666    5.7156    5.7156    5.7561    5.7561
    5.8965    5.8965    6.0698    6.0698    6.1665    6.1665    6.2281    6.2281    6.3280    6.3280
    6.6036    6.6036    6.6242    6.6242    6.8314    6.8314    7.0524    7.0524    7.2226    7.2226
    7.2660    7.2660    7.4865    7.4865    7.6431    7.6431    7.8581    7.8581    7.9865    7.9865
    7.9979    7.9979    8.1770    8.1770    8.3720    8.3720    8.3833    8.3833    8.6983    8.6983
    8.9412    8.9412    8.9862    8.9862    9.0238    9.0238    9.2963    9.2963    9.6210    9.6210
    9.6703    9.6703    9.8072    9.8072    9.8444    9.8444    9.9319    9.9319    9.9485    9.9485
   10.1792   10.1792   10.4687   10.4687   10.6588   10.6588   10.9529   10.9529   10.9900   10.9900
   11.3054   11.3054   11.4312   11.4312   11.6341   11.6341   11.6818   11.6818   11.7046   11.7046
   11.9363   11.9363   12.3165   12.3165   12.3443   12.3443   12.4147   12.4147   12.6361   12.6361
   12.9424   12.9424   12.9546   12.9546   13.0554   13.0554   13.2855   13.2855   13.4008   13.4008
   13.4760   13.4760   13.7445   13.7445   14.5085   14.5085   14.6632   14.6632   14.7498   14.7498
   14.8199   14.8199   14.9506   14.9506   15.1544   15.1544   16.1105   16.1105   16.5630   16.5630
   16.8071   16.8071   16.9245   16.9245   17.0283   17.0283   17.1903   17.1903   17.4533   17.4533
   18.2418   18.2418   18.2600   18.2600   18.5841   18.5841   18.7650   18.7650   18.8502   18.8502
   18.8982   18.8982   19.5484   19.5484   19.8910   19.8910   20.0265   20.0265   20.2557   20.2557
   20.7323   20.7323   21.1145   21.1145   21.1980   21.1980   21.7028   21.7028   22.2864   22.2864
   22.3257   22.3257   22.8944   22.8944   22.9929   22.9929   23.1999   23.1999   23.8426   23.8426
   24.5945   24.5945   24.8323   24.8323   24.8563   24.8563   25.8092   25.8092   25.9417   25.9417
   26.1512   26.1512   26.5619   26.5619   26.6107   26.6107   27.7762   27.7762   28.0570   28.0570
   28.4301   28.4301   28.5054   28.5054   29.2405   29.2405   29.5176   29.5176   30.4837   30.4837
   30.8102   30.8102   30.8591   30.8591   30.9551   30.9551   31.4016   31.4016   31.6512   31.6512
   31.7808   31.7808   32.0431   32.0431   32.1839   32.1839   33.4009   33.4009   33.5010   33.5010
   33.7546   33.7546   34.0926   34.0926   34.5105   34.5105   34.9084   34.9084   34.9348   34.9348
   35.5116   35.5116   36.0257   36.0257   36.1697   36.1697   37.1959   37.1959   37.5709   37.5709
   37.5922   37.5922   37.8306   37.8306   38.1553   38.1553   38.4641   38.4641   38.4963   38.4963
   39.1488   39.1488   40.2690   40.2690   40.3031   40.3031   40.7771   40.7771   41.2208   41.2208
   41.7343   41.7343   41.8972   41.8972   41.9423   41.9423   43.3325   43.3325   43.4961   43.4961
   43.9341   43.9341   44.5967   44.5967   44.9002   44.9002   44.9397   44.9397   45.1969   45.1969
   45.6286   45.6286   45.8044   45.8044   46.0035   46.0035   46.6302   46.6302   47.0480   47.0480
   47.1277   47.1277   47.4532   47.4532   48.6531   48.6531   48.8278   48.8278   49.3912   49.3912
   49.7278   49.7278   50.2433   50.2433   50.3255   50.3255   50.3509   50.3509   50.4752   50.4752
   51.7646   51.7646   52.6804   52.6804   52.7642   52.7642   53.9843   53.9843   54.3863   54.3863
   54.8720   54.8720   54.9120   54.9120   56.0935   56.0935   56.1280   56.1280   56.2413   56.2413
   56.9525   56.9525   57.7818   57.7818   58.0164   58.0164   58.4168   58.4168   59.6996   59.6996
   60.0731   60.0731   61.2480   61.2480   61.7511   61.7511   62.8740   62.8740   63.3767   63.3767
   65.3070   65.3070   65.4705   65.4705   67.0899   67.0899   67.3540   67.3540   68.4623   68.4623
   68.4652   68.4652   70.6034   70.6034   72.0246   72.0246   76.5593   76.5593   88.6876   88.6876
   91.9069   91.9069   93.0919   93.0919   95.1189   95.1189   96.5873   96.5873  100.2040  100.2040
  100.7628  100.7628  102.6069  102.6069  114.3382  114.3382  118.3769  118.3769  123.3029  123.3029
  132.4931  132.4931  138.8241  138.8241
siesta: Fermi energy =      -3.845950 eV

siesta: Program's energy decomposition (eV):
siesta: Ebs     =     -1110.959514
siesta: Eions   =      3553.971015
siesta: Ena     =       374.984508
siesta: Ekin    =      2743.030197
siesta: Enl     =     -2522.689621
siesta: Eso     =        -0.004664
siesta: Edftu   =         0.000000
siesta: DEna    =        36.859544
siesta: DUscf   =        13.898282
siesta: DUext   =         0.000000
siesta: Exc     =     -1090.819353
siesta: eta*DQ  =         0.000000
siesta: Emadel  =         0.000000
siesta: Emeta   =         0.000000
siesta: Emolmec =         0.000000
siesta: Ekinion =         0.000000
siesta: Eharris =     -3998.712122
siesta: Etot    =     -3998.712122
siesta: FreeEng =     -3998.712123

siesta: Final energy (eV):
siesta:  Band Struct. =   -1110.959514
siesta:       Kinetic =    2743.030197
siesta:       Hartree =   12069.664653
siesta:       Edftu   =       0.000000
siesta:       Eso     =      -0.004664
siesta:    Ext. field =       0.000000
siesta:   Exch.-corr. =   -1090.819353
siesta:  Ion-electron =  -26577.637912
siesta:       Ion-ion =    8857.054956
siesta:       Ekinion =       0.000000
siesta:         Total =   -3998.712122
siesta:         Fermi =      -3.845950

siesta: Atomic forces (eV/Ang):
siesta:      1    0.143125   -0.027349   -0.000000
siesta:      2   -0.035322    0.043698    0.000000
siesta:      3   -0.031043   -0.017865   -0.000000
siesta:      4    0.068490   -0.134419   -0.000000
siesta:      5    0.054215    0.005202   -0.000000
siesta:      6   -0.193207    0.018646    0.000000
siesta:      7    1.072935   -0.041553   -0.000000
siesta:      8   -0.655536    1.416835    0.000000
siesta:      9    0.169780   -1.013286   -0.000000
siesta:     10   -0.111215    0.135033    0.000000
siesta:     11   -0.192610   -0.375834    0.000000
siesta:     12   -0.281088    0.048931   -0.000000
siesta:     13   -0.123111   -0.051818    0.000000
siesta:     14    0.031734   -0.118107   -0.000000
siesta:     15    0.111024    0.096396   -0.000000
siesta:     16   -0.032988   -0.045099   -0.000950
siesta:     17    0.043608   -0.072732   -0.000794
siesta:     18   -0.151332    0.039223    0.005209
siesta:     19   -0.028575   -0.093077   -0.001426
siesta:     20    0.124696    0.078654   -0.001070
siesta:     21    0.057081   -0.026409   -0.007162
siesta:     22    0.053099   -0.018900    0.117880
siesta:     23    0.023399    0.090328   -0.013055
siesta:     24    0.049977    0.039234   -0.091166
siesta:     25   -0.646147   -0.408183    0.001045
siesta:     26   -0.919211    1.824737    0.000493
siesta:     27    0.360376   -0.429089   -0.000555
siesta:     28   -0.152550    0.849571   -0.000073
siesta:     29    0.139710    0.167411   -0.000223
siesta:     30    0.079973    3.288812    0.000253
siesta: ----------------------------------------
siesta:    Tot   -0.970712    5.268992    0.008406

siesta: Stress tensor (static) (eV/Ang**3):
siesta:     0.000081    0.000075    0.000000
siesta:     0.000075    0.000178   -0.000004
siesta:     0.000000   -0.000004   -0.000006

siesta: Cell volume =      13500.000000 Ang**3

siesta: Pressure (static):
siesta:                Solid            Molecule  Units
siesta:          -0.00000092         -0.00000721  Ry/Bohr**3
siesta:          -0.00008431         -0.00066213  eV/Ang**3
siesta:          -0.13508807         -1.06086802  kBar
(Free)E+ p_basis*V_orbitals  =       -3977.584038
(Free)Eharris+ p_basis*V_orbitals  =       -3977.584038
     spin moment: S , {S} =    0.00000  -0.00000   0.00000   0.00000

siesta: Electric dipole (a.u.)  =   -1.167519    1.566764   -0.001836
siesta: Electric dipole (Debye) =   -2.967538    3.982318   -0.004667

cite: Please see "AT.bib" for an exhaustive BiBTeX file.
cite: Please clearly indicate Siesta version in published work: v4.1.5-1-g384057250
cite: This calculation has made use of the following articles
cite: which are encouraged to be cited in a published work.
        Primary SIESTA paper
          DOI: www.doi.org/10.1088/0953-8984/14/11/302
        Spin-orbit coupling (on-site approximation)
          DOI: www.doi.org/10.1088/0953-8984/19/19/489001


WARNING: alloc-realloc-dealloc name mismatch
         Name: atomlist isa
         Size:              -120. Bytes
         Node:     0
         Subsequent mismatches will not be reported
>> End of run:   1-FEB-2024  20:56:17
Job completed
