Siesta Version  : v4.1.5-1-g384057250
Architecture    : gcc
Compiler version: GNU Fortran (Ubuntu 11.3.0-1ubuntu1~22.04) 11.3.0
Compiler flags  : mpifort -O2 -fPIC -ftree-vectorize -fallow-argument-mismatch
PP flags        : -DFC_HAVE_ABORT -DMPI -DSIESTA__FLOOK -DSIESTA__METIS -DSIESTA__MUMPS -DCDF -DNCDF -DNCDF_4 -DNCDF_PARALLEL -DSIESTA__MRRR -DSIESTA__ELPA
Libraries       : libncdf.a libfdict.a  -lflookall -ldl -lnetcdff -lnetcdf -lhdf5_hl -lhdf5 -lhdf5_fortran -lz -lscalapack-openmpi -lopenblas -lmetis -lzmumps -lcmumps -ldmumps -lmumps_common -lpord -lsmumps -lesmumps -lscotch -lscotcherr -fopenmp -lelpa
PARALLEL version
NetCDF support
NetCDF-4 support
NetCDF-4 MPI-IO support
METIS ordering support
Lua support

* Running on 4 nodes in parallel
>> Start of run:  28-JUN-2023  16:51:54

                           ***********************       
                           *  WELCOME TO SIESTA  *       
                           ***********************       

reinit: Reading from standard input
reinit: Dumped input in INPUT_TMP.55357
************************** Dump of input data file ****************************
SystemLabel      GC
NumberOfAtoms    29
NumberOfSpecies  4
%block ChemicalSpeciesLabel
    1    8  O
    2    7  N
    3   14  Si
    4    1  H
%endblock ChemicalSpeciesLabel
# Single point calculation
MD.TypeOfRun                CG
MD.Steps                    0
SCF.MustConverge            F # In case it does not. There can be 2 very close atoms
AtomicCoordinatesFormat NotScaledCartesianAng
%block AtomicCoordinatesAndAtomicSpecies
1.043624880    3.939228610    0.000000000       1
-3.040641290   1.071078170    0.000000000       2
2.054601450    1.213582070    0.000000000       2
0.999014100    -1.732643800   0.000000000       2
-2.132351640   -1.812968220   0.000000000       2
3.860190550    -1.112298180   0.000000000       2
-1.236183220   1.152964460    0.000000000       3
-0.532924260   -0.939006270   0.000000000       3
0.635660470    2.374516770    0.000000000       3
2.245170240    -0.549967100   0.000000000       3
-3.449816660   -0.583665030   0.000000000       3
2.963714090    1.790992630    0.000000000       4
-4.845591350   -1.123549660   0.000000000       4
4.007020910    -2.152308560   0.000000000       4
4.772194380    -0.502318160   0.000000000       4
-2.265399090   -2.864605110   0.000000000       4
9.095572557    7.741097997    0.000000000       3
11.000456527   8.947736937    0.000000000       3
10.504702387   4.974763027    0.000000000       3
12.582172677   7.443980187    0.000000000       3
9.155195227    6.023670427    0.000000000       2
7.556437497    8.494775307    0.000000000       2
12.156997647   5.704600247    0.000000000       2
11.191801327   10.439890687   0.000000000       4
14.066540657   7.662711007    0.000000000       4
7.445092217    9.543970417    0.000000000       4
6.623879787    7.869861127    0.000000000       4
10.494475557   3.366651907    0.000000000       1
12.932423527   4.977908687    0.000000000       4
%endblock AtomicCoordinatesAndAtomicSpecies
%include ../../../Defaults.fdf
************************** End of input data file *****************************

reinit: -----------------------------------------------------------------------
reinit: System Name: 
reinit: -----------------------------------------------------------------------
reinit: System Label: GC
reinit: -----------------------------------------------------------------------

initatom: Reading input for the pseudopotentials and atomic orbitals ----------
Species number:   1 Atomic number:    8 Label: O
Species number:   2 Atomic number:    7 Label: N
Species number:   3 Atomic number:   14 Label: Si
Species number:   4 Atomic number:    1 Label: H

Ground state valence configuration:   2s02  2p04
Reading pseudopotential information in formatted form from O.psf

Pseudopotential generated from a relativistic atomic calculation

Valence configuration for pseudopotential generation:
2s( 2.00) rc: 0.45
2p( 4.00) rc: 0.92
3d( 0.00) rc: 2.24
4f( 0.00) rc: 0.25
Ground state valence configuration:   2s02  2p03
Reading pseudopotential information in formatted form from N.psf

Pseudopotential generated from a relativistic atomic calculation

Valence configuration for pseudopotential generation:
2s( 2.00) rc: 0.94
2p( 3.00) rc: 0.59
3d( 0.00) rc: 3.46
4f( 0.00) rc: 2.47
Ground state valence configuration:   3s02  3p02
Reading pseudopotential information in formatted form from Si.psf

Pseudopotential generated from a relativistic atomic calculation

Valence configuration for pseudopotential generation:
3s( 2.00) rc: 1.67
3p( 2.00) rc: 2.04
3d( 0.00) rc: 2.89
4f( 0.00) rc: 2.49
Ground state valence configuration:   1s01
Reading pseudopotential information in formatted form from H.psf

Pseudopotential generated from a relativistic atomic calculation

Valence configuration for pseudopotential generation:
1s( 1.00) rc: 0.01
2p( 0.00) rc: 0.60
3d( 0.00) rc: 1.99
4f( 0.00) rc: 2.49
For O, standard SIESTA heuristics set lmxkb to 3
 (one more than the basis l, including polarization orbitals).
Use PS.lmax or PS.KBprojectors blocks to override.
For N, standard SIESTA heuristics set lmxkb to 3
 (one more than the basis l, including polarization orbitals).
Use PS.lmax or PS.KBprojectors blocks to override.
For Si, standard SIESTA heuristics set lmxkb to 3
 (one more than the basis l, including polarization orbitals).
Use PS.lmax or PS.KBprojectors blocks to override.
For H, standard SIESTA heuristics set lmxkb to 2
 (one more than the basis l, including polarization orbitals).
Use PS.lmax or PS.KBprojectors blocks to override.

<basis_specs>
===============================================================================
O                    Z=   8    Mass=  16.000        Charge= 0.17977+309
Lmxo=1 Lmxkb= 3    BasisType=split      Semic=F
L=0  Nsemic=0  Cnfigmx=2
          i=1  nzeta=2  polorb=0  (2s)
            splnorm:   0.28000    
               vcte:    0.0000    
               rinn:    0.0000    
               qcoe:    0.0000    
               qyuk:    0.0000    
               qwid:   0.10000E-01
                rcs:    0.0000      0.0000    
            lambdas:    1.0000      1.0000    
L=1  Nsemic=0  Cnfigmx=2
          i=1  nzeta=2  polorb=1  (2p)
            splnorm:   0.28000    
               vcte:    0.0000    
               rinn:    0.0000    
               qcoe:    0.0000    
               qyuk:    0.0000    
               qwid:   0.10000E-01
                rcs:    0.0000      0.0000    
            lambdas:    1.0000      1.0000    
-------------------------------------------------------------------------------
L=0  Nkbl=1  erefs: 0.17977+309
L=1  Nkbl=1  erefs: 0.17977+309
L=2  Nkbl=1  erefs: 0.17977+309
L=3  Nkbl=1  erefs: 0.17977+309
===============================================================================
</basis_specs>

atom: Called for O                     (Z =   8)

read_vps: Pseudopotential generation method:
read_vps: ATM4.2.7  Troullier-Martins                       
Valence charge for ps generation:    6.00000

xc_check: Exchange-correlation functional:
xc_check: GGA Perdew, Burke & Ernzerhof 1996
V l=0 = -2*Zval/r beyond r=  1.1000
V l=1 = -2*Zval/r beyond r=  1.1000
V l=2 = -2*Zval/r beyond r=  2.2154
V l=3 = -2*Zval/r beyond r=  1.1000
All V_l potentials equal beyond r=  2.2154
This should be close to max(r_c) in ps generation
All pots = -2*Zval/r beyond r=  2.2154

VLOCAL1: 99.0% of the norm of Vloc inside      8.845 Ry
VLOCAL1: 99.9% of the norm of Vloc inside     20.157 Ry
atom: Maximum radius for 4*pi*r*r*local-pseudopot. charge    2.67231
atom: Maximum radius for r*vlocal+2*Zval:    2.32897
GHOST: No ghost state for L =  0
GHOST: No ghost state for L =  1
GHOST: No ghost state for L =  2
GHOST: No ghost state for L =  3

KBgen: Kleinman-Bylander projectors: 
   l= 0   rc=  2.243238   el= -1.759686   Ekb=**********   kbcos= -0.171774
   l= 1   rc=  2.328968   el= -0.663873   Ekb=-14.506792   kbcos= -0.519897
   l= 2   rc=  2.573941   el=  0.002031   Ekb= -1.137373   kbcos= -0.019581
   l= 3   rc=  2.606321   el=  0.003153   Ekb= -1.013546   kbcos= -0.003122

KBgen: Total number of Kleinman-Bylander projectors:   16
atom: -------------------------------------------------------------------------

atom: SANKEY-TYPE ORBITALS:
atom: Selected multiple-zeta basis: split     

SPLIT: Orbitals with angular momentum L= 0

SPLIT: Basis orbitals for state 2s

SPLIT: PAO cut-off radius determined from an
SPLIT: energy shift=  0.002000 Ry

   izeta = 1
                 lambda =    1.000000
                     rc =    4.243912
                 energy =   -1.758270
                kinetic =    3.286084
    potential(screened) =   -5.044353
       potential(ionic) =  -12.921184

   izeta = 2
                 rmatch =    2.187845
              splitnorm =    0.280000
                 energy =   -0.885018
                kinetic =    8.134434
    potential(screened) =   -9.019452
       potential(ionic) =  -17.710645

SPLIT: Orbitals with angular momentum L= 1

SPLIT: Basis orbitals for state 2p

SPLIT: PAO cut-off radius determined from an
SPLIT: energy shift=  0.002000 Ry

   izeta = 1
                 lambda =    1.000000
                     rc =    5.314825
                 energy =   -0.661986
                kinetic =    4.917472
    potential(screened) =   -5.579458
       potential(ionic) =  -13.236259

   izeta = 2
                 rmatch =    2.160663
              splitnorm =    0.280000
                 energy =   -0.068760
                kinetic =    9.183374
    potential(screened) =   -9.252135
       potential(ionic) =  -18.274251

POLgen: Perturbative polarization orbital with L=  2

POLgen: Polarization orbital for state 2p

   izeta = 1
                     rc =    5.314825
                 energy =    1.970580
                kinetic =    3.886128
    potential(screened) =   -1.915547
       potential(ionic) =   -7.749584
atom: Total number of Sankey-type orbitals: 13

atm_pop: Valence configuration (for local Pseudopot. screening):
 2s( 2.00)                                                            
 2p( 4.00)                                                            
Vna: chval, zval:    6.00000   6.00000

Vna:  Cut-off radius for the neutral-atom potential:   5.314825

atom: _________________________________________________________________________

<basis_specs>
===============================================================================
N                    Z=   7    Mass=  14.010        Charge= 0.17977+309
Lmxo=1 Lmxkb= 3    BasisType=split      Semic=F
L=0  Nsemic=0  Cnfigmx=2
          i=1  nzeta=2  polorb=0  (2s)
            splnorm:   0.28000    
               vcte:    0.0000    
               rinn:    0.0000    
               qcoe:    0.0000    
               qyuk:    0.0000    
               qwid:   0.10000E-01
                rcs:    0.0000      0.0000    
            lambdas:    1.0000      1.0000    
L=1  Nsemic=0  Cnfigmx=2
          i=1  nzeta=2  polorb=1  (2p)
            splnorm:   0.28000    
               vcte:    0.0000    
               rinn:    0.0000    
               qcoe:    0.0000    
               qyuk:    0.0000    
               qwid:   0.10000E-01
                rcs:    0.0000      0.0000    
            lambdas:    1.0000      1.0000    
-------------------------------------------------------------------------------
L=0  Nkbl=1  erefs: 0.17977+309
L=1  Nkbl=1  erefs: 0.17977+309
L=2  Nkbl=1  erefs: 0.17977+309
L=3  Nkbl=1  erefs: 0.17977+309
===============================================================================
</basis_specs>

atom: Called for N                     (Z =   7)

read_vps: Pseudopotential generation method:
read_vps: ATM4.2.7  Troullier-Martins                       
Valence charge for ps generation:    5.00000

xc_check: Exchange-correlation functional:
xc_check: GGA Perdew, Burke & Ernzerhof 1996
V l=0 = -2*Zval/r beyond r=  1.2889
V l=1 = -2*Zval/r beyond r=  1.2889
V l=2 = -2*Zval/r beyond r=  3.4178
V l=3 = -2*Zval/r beyond r=  2.4084
All V_l potentials equal beyond r=  3.3753
This should be close to max(r_c) in ps generation
All pots = -2*Zval/r beyond r=  3.4178

VLOCAL1: 99.0% of the norm of Vloc inside      3.810 Ry
VLOCAL1: 99.9% of the norm of Vloc inside      8.683 Ry
atom: Maximum radius for 4*pi*r*r*local-pseudopot. charge    4.02088
atom: Maximum radius for r*vlocal+2*Zval:    3.54838
GHOST: No ghost state for L =  0
GHOST: No ghost state for L =  1
GHOST: No ghost state for L =  2
GHOST: No ghost state for L =  3

KBgen: Kleinman-Bylander projectors: 
   l= 0   rc=  3.417763   el= -1.365098   Ekb= -4.433130   kbcos= -0.707855
   l= 1   rc=  3.375302   el= -0.521201   Ekb=-13.264039   kbcos= -0.535594
   l= 2   rc=  3.872880   el=  0.001991   Ekb= -0.641094   kbcos= -0.062456
   l= 3   rc=  3.970931   el=  0.003093   Ekb= -0.474517   kbcos= -0.018236

KBgen: Total number of Kleinman-Bylander projectors:   16
atom: -------------------------------------------------------------------------

atom: SANKEY-TYPE ORBITALS:
atom: Selected multiple-zeta basis: split     

SPLIT: Orbitals with angular momentum L= 0

SPLIT: Basis orbitals for state 2s

SPLIT: PAO cut-off radius determined from an
SPLIT: energy shift=  0.002000 Ry

   izeta = 1
                 lambda =    1.000000
                     rc =    4.730425
                 energy =   -1.363399
                kinetic =    1.245246
    potential(screened) =   -2.608645
       potential(ionic) =   -8.121105

   izeta = 2
                 rmatch =    2.531849
              splitnorm =    0.280000
                 energy =   -0.959908
                kinetic =    2.409435
    potential(screened) =   -3.369343
       potential(ionic) =   -9.427975

SPLIT: Orbitals with angular momentum L= 1

SPLIT: Basis orbitals for state 2p

SPLIT: PAO cut-off radius determined from an
SPLIT: energy shift=  0.002000 Ry

   izeta = 1
                 lambda =    1.000000
                     rc =    5.924108
                 energy =   -0.519262
                kinetic =    3.672940
    potential(screened) =   -4.192202
       potential(ionic) =   -9.518354

   izeta = 2
                 rmatch =    2.531849
              splitnorm =    0.280000
                 energy =   -0.104258
                kinetic =    6.807538
    potential(screened) =   -6.911796
       potential(ionic) =  -13.149920

POLgen: Perturbative polarization orbital with L=  2

POLgen: Polarization orbital for state 2p

   izeta = 1
                     rc =    5.924108
                 energy =    1.427508
                kinetic =    2.872379
    potential(screened) =   -1.444871
       potential(ionic) =   -5.563644
atom: Total number of Sankey-type orbitals: 13

atm_pop: Valence configuration (for local Pseudopot. screening):
 2s( 2.00)                                                            
 2p( 3.00)                                                            
Vna: chval, zval:    5.00000   5.00000

Vna:  Cut-off radius for the neutral-atom potential:   5.924108

atom: _________________________________________________________________________

<basis_specs>
===============================================================================
Si                   Z=  14    Mass=  28.090        Charge= 0.17977+309
Lmxo=1 Lmxkb= 3    BasisType=split      Semic=F
L=0  Nsemic=0  Cnfigmx=3
          i=1  nzeta=2  polorb=0  (3s)
            splnorm:   0.28000    
               vcte:    0.0000    
               rinn:    0.0000    
               qcoe:    0.0000    
               qyuk:    0.0000    
               qwid:   0.10000E-01
                rcs:    0.0000      0.0000    
            lambdas:    1.0000      1.0000    
L=1  Nsemic=0  Cnfigmx=3
          i=1  nzeta=2  polorb=1  (3p)
            splnorm:   0.28000    
               vcte:    0.0000    
               rinn:    0.0000    
               qcoe:    0.0000    
               qyuk:    0.0000    
               qwid:   0.10000E-01
                rcs:    0.0000      0.0000    
            lambdas:    1.0000      1.0000    
-------------------------------------------------------------------------------
L=0  Nkbl=1  erefs: 0.17977+309
L=1  Nkbl=1  erefs: 0.17977+309
L=2  Nkbl=1  erefs: 0.17977+309
L=3  Nkbl=1  erefs: 0.17977+309
===============================================================================
</basis_specs>

atom: Called for Si                    (Z =  14)

read_vps: Pseudopotential generation method:
read_vps: ATM4.2.7  Troullier-Martins                       
Valence charge for ps generation:    4.00000

xc_check: Exchange-correlation functional:
xc_check: GGA Perdew, Burke & Ernzerhof 1996
V l=0 = -2*Zval/r beyond r=  2.7826
V l=1 = -2*Zval/r beyond r=  2.7826
V l=2 = -2*Zval/r beyond r=  2.9253
V l=3 = -2*Zval/r beyond r=  2.7826
All V_l potentials equal beyond r=  2.8530
This should be close to max(r_c) in ps generation
All pots = -2*Zval/r beyond r=  2.9253

VLOCAL1: 99.0% of the norm of Vloc inside      5.333 Ry
VLOCAL1: 99.9% of the norm of Vloc inside     12.154 Ry
atom: Maximum radius for 4*pi*r*r*local-pseudopot. charge    3.39869
atom: Maximum radius for r*vlocal+2*Zval:    2.96205
GHOST: No ghost state for L =  0
GHOST: No ghost state for L =  1
GHOST: No ghost state for L =  2
GHOST: No ghost state for L =  3

KBgen: Kleinman-Bylander projectors: 
   l= 0   rc=  3.075247   el= -0.794092   Ekb=  5.879390   kbcos=  0.167461
   l= 1   rc=  3.153101   el= -0.300068   Ekb=  2.642817   kbcos=  0.058301
   l= 2   rc=  3.273594   el=  0.001958   Ekb= -1.185135   kbcos= -0.104411
   l= 3   rc=  3.232927   el=  0.003046   Ekb= -0.497174   kbcos= -0.015889

KBgen: Total number of Kleinman-Bylander projectors:   16
atom: -------------------------------------------------------------------------

atom: SANKEY-TYPE ORBITALS:
atom: Selected multiple-zeta basis: split     

SPLIT: Orbitals with angular momentum L= 0

SPLIT: Basis orbitals for state 3s

SPLIT: PAO cut-off radius determined from an
SPLIT: energy shift=  0.002000 Ry

   izeta = 1
                 lambda =    1.000000
                     rc =    6.429618
                 energy =   -0.792283
                kinetic =    0.525293
    potential(screened) =   -1.317576
       potential(ionic) =   -3.744923

   izeta = 2
                 rmatch =    3.998416
              splitnorm =    0.280000
                 energy =   -0.583081
                kinetic =    1.069570
    potential(screened) =   -1.652651
       potential(ionic) =   -4.235185

SPLIT: Orbitals with angular momentum L= 1

SPLIT: Basis orbitals for state 3p

SPLIT: PAO cut-off radius determined from an
SPLIT: energy shift=  0.002000 Ry

   izeta = 1
                 lambda =    1.000000
                     rc =    8.464845
                 energy =   -0.298236
                kinetic =    0.785360
    potential(screened) =   -1.083596
       potential(ionic) =   -3.273779

   izeta = 2
                 rmatch =    4.587816
              splitnorm =    0.280000
                 energy =   -0.131871
                kinetic =    1.403687
    potential(screened) =   -1.535557
       potential(ionic) =   -4.015310

POLgen: Perturbative polarization orbital with L=  2

POLgen: Polarization orbital for state 3p

   izeta = 1
                     rc =    8.464845
                 energy =    0.321949
                kinetic =    1.055677
    potential(screened) =   -0.733728
       potential(ionic) =   -2.672950
atom: Total number of Sankey-type orbitals: 13

atm_pop: Valence configuration (for local Pseudopot. screening):
 3s( 2.00)                                                            
 3p( 2.00)                                                            
Vna: chval, zval:    4.00000   4.00000

Vna:  Cut-off radius for the neutral-atom potential:   8.464845

atom: _________________________________________________________________________

<basis_specs>
===============================================================================
H                    Z=   1    Mass=  1.0100        Charge= 0.17977+309
Lmxo=0 Lmxkb= 2    BasisType=split      Semic=F
L=0  Nsemic=0  Cnfigmx=1
          i=1  nzeta=2  polorb=1  (1s)
            splnorm:   0.62000    
               vcte:    0.0000    
               rinn:    0.0000    
               qcoe:    0.0000    
               qyuk:    0.0000    
               qwid:   0.10000E-01
                rcs:    0.0000      0.0000    
            lambdas:    1.0000      1.0000    
-------------------------------------------------------------------------------
L=0  Nkbl=1  erefs: 0.17977+309
L=1  Nkbl=1  erefs: 0.17977+309
L=2  Nkbl=1  erefs: 0.17977+309
===============================================================================
</basis_specs>

atom: Called for H                     (Z =   1)

read_vps: Pseudopotential generation method:
read_vps: ATM4.2.7  Troullier-Martins                       
Valence charge for ps generation:    1.00000

xc_check: Exchange-correlation functional:
xc_check: GGA Perdew, Burke & Ernzerhof 1996
V l=0 = -2*Zval/r beyond r=  0.0098
V l=1 = -2*Zval/r beyond r=  0.5817
V l=2 = -2*Zval/r beyond r=  1.9372
All V_l potentials equal beyond r=  1.9372
This should be close to max(r_c) in ps generation
All pots = -2*Zval/r beyond r=  1.9372

VLOCAL1: 99.0% of the norm of Vloc inside     11.567 Ry
VLOCAL1: 99.9% of the norm of Vloc inside     26.362 Ry
atom: Maximum radius for 4*pi*r*r*local-pseudopot. charge    2.25106
atom: Maximum radius for r*vlocal+2*Zval:    1.91306
GHOST: No ghost state for L =  0
GHOST: No ghost state for L =  1
GHOST: No ghost state for L =  2

KBgen: Kleinman-Bylander projectors: 
   l= 0   rc=  2.036604   el= -0.477180   Ekb= -6.081590   kbcos= -0.277285
   l= 1   rc=  2.195416   el=  0.001076   Ekb= -0.926943   kbcos= -0.034643
   l= 2   rc=  2.251056   el=  0.002010   Ekb= -0.130941   kbcos= -0.009788

KBgen: Total number of Kleinman-Bylander projectors:    9
atom: -------------------------------------------------------------------------

atom: SANKEY-TYPE ORBITALS:
atom: Selected multiple-zeta basis: split     

SPLIT: Orbitals with angular momentum L= 0

SPLIT: Basis orbitals for state 1s

SPLIT: PAO cut-off radius determined from an
SPLIT: energy shift=  0.002000 Ry

   izeta = 1
                 lambda =    1.000000
                     rc =    6.518340
                 energy =   -0.475305
                kinetic =    0.912139
    potential(screened) =   -1.387444
       potential(ionic) =   -1.907295

   izeta = 2
                 rmatch =    2.141150
              splitnorm =    0.620000
                 energy =    0.566467
                kinetic =    3.772856
    potential(screened) =   -3.206389
       potential(ionic) =   -3.759093

POLgen: Perturbative polarization orbital with L=  1

POLgen: Polarization orbital for state 1s

   izeta = 1
                     rc =    6.518340
                 energy =    0.533861
                kinetic =    1.121086
    potential(screened) =   -0.587225
       potential(ionic) =   -1.053027
atom: Total number of Sankey-type orbitals:  5

atm_pop: Valence configuration (for local Pseudopot. screening):
 1s( 1.00)                                                            
Vna: chval, zval:    1.00000   1.00000

Vna:  Cut-off radius for the neutral-atom potential:   6.518340

atom: _________________________________________________________________________

prinput: Basis input ----------------------------------------------------------

PAO.BasisType split     

%block ChemicalSpeciesLabel
    1    8 O                       # Species index, atomic number, species label
    2    7 N                       # Species index, atomic number, species label
    3   14 Si                      # Species index, atomic number, species label
    4    1 H                       # Species index, atomic number, species label
%endblock ChemicalSpeciesLabel

%block PAO.Basis                 # Define Basis set
O                     2                    # Species label, number of l-shells
 n=2   0   2                         # n, l, Nzeta 
   4.244      2.188   
   1.000      1.000   
 n=2   1   2 P   1                   # n, l, Nzeta, Polarization, NzetaPol
   5.315      2.161   
   1.000      1.000   
N                     2                    # Species label, number of l-shells
 n=2   0   2                         # n, l, Nzeta 
   4.730      2.532   
   1.000      1.000   
 n=2   1   2 P   1                   # n, l, Nzeta, Polarization, NzetaPol
   5.924      2.532   
   1.000      1.000   
Si                    2                    # Species label, number of l-shells
 n=3   0   2                         # n, l, Nzeta 
   6.430      3.998   
   1.000      1.000   
 n=3   1   2 P   1                   # n, l, Nzeta, Polarization, NzetaPol
   8.465      4.588   
   1.000      1.000   
H                     1                    # Species label, number of l-shells
 n=1   0   2 P   1                   # n, l, Nzeta, Polarization, NzetaPol
   6.518      2.141   
   1.000      1.000   
%endblock PAO.Basis

prinput: ----------------------------------------------------------------------

Dumping basis to NetCDF file O.ion.nc
Dumping basis to NetCDF file N.ion.nc
Dumping basis to NetCDF file Si.ion.nc
Dumping basis to NetCDF file H.ion.nc
coor:   Atomic-coordinates input format  =     Cartesian coordinates
coor:                                          (in Angstroms)

siesta: Atomic coordinates (Bohr) and species
siesta:      1.97217   7.44407   0.00000  1        1
siesta:     -5.74598   2.02405   0.00000  2        2
siesta:      3.88264   2.29334   0.00000  2        3
siesta:      1.88786  -3.27422   0.00000  2        4
siesta:     -4.02956  -3.42601   0.00000  2        5
siesta:      7.29471  -2.10194   0.00000  2        6
siesta:     -2.33605   2.17879   0.00000  3        7
siesta:     -1.00708  -1.77447   0.00000  3        8
siesta:      1.20122   4.48719   0.00000  3        9
siesta:      4.24276  -1.03929   0.00000  3       10
siesta:     -6.51921  -1.10297   0.00000  3       11
siesta:      5.60061   3.38449   0.00000  4       12
siesta:     -9.15684  -2.12320   0.00000  4       13
siesta:      7.57218  -4.06728   0.00000  4       14
siesta:      9.01814  -0.94924   0.00000  4       15
siesta:     -4.28099  -5.41332   0.00000  4       16
siesta:     17.18815  14.62856   0.00000  3       17
siesta:     20.78786  16.90878   0.00000  3       18
siesta:     19.85102   9.40094   0.00000  3       19
siesta:     23.77687  14.06709   0.00000  3       20
siesta:     17.30082  11.38309   0.00000  2       21
siesta:     14.27960  16.05281   0.00000  2       22
siesta:     22.97341  10.78014   0.00000  2       23
siesta:     21.14945  19.72854   0.00000  4       24
siesta:     26.58192  14.48043   0.00000  4       25
siesta:     14.06919  18.03550   0.00000  4       26
siesta:     12.51732  14.87189   0.00000  4       27
siesta:     19.83169   6.36205   0.00000  1       28
siesta:     24.43875   9.40689   0.00000  4       29

siesta: Automatic unit cell vectors (Ang):
siesta:   28.391928    0.000000    0.000000
siesta:    0.000000   22.223528    0.000000
siesta:    0.000000    0.000000    9.854683

siesta: System type = molecule  

initatomlists: Number of atoms, orbitals, and projectors:     29   297   394

siesta: ******************** Simulation parameters ****************************
siesta:
siesta: The following are some of the parameters of the simulation.
siesta: A complete list of the parameters used, including default values,
siesta: can be found in file out.fdf
siesta:
redata: Spin configuration                          = spin-orbit
redata: Number of spin components                   = 8
redata: Time-Reversal Symmetry                      = F
redata: Spin spiral                                 = F
############################################################
This spin-orbit implementation uses a local approximation.
From 4.2 and onwards the full non-local approximation is implemented
You are strongly advised to use >=4.2 versions!
############################################################
redata: Long output                                 =   F
redata: Number of Atomic Species                    =        4
redata: Charge density info will appear in .RHO file
redata: Write Mulliken Pop.                         = Atomic and Orbital charges
redata: Matel table size (NRTAB)                    =     1024
redata: Mesh Cutoff                                 =   340.0000 Ry
redata: Net charge of the system                    =     0.0000 |e|
redata: Min. number of SCF Iter                     =        1
redata: Max. number of SCF Iter                     =      200
redata: SCF mix quantity                            = Hamiltonian
redata: Mix DM or H after convergence               =   F
redata: Recompute H after scf cycle                 =   F
redata: Mix DM in first SCF step                    =   T
redata: Write Pulay info on disk                    =   F
redata: New DM Occupancy tolerance                  = 0.000000000001
redata: No kicks to SCF
redata: DM Mixing Weight for Kicks                  =     0.5000
redata: Require Harris convergence for SCF          =   F
redata: Harris energy tolerance for SCF             =     0.000100 eV
redata: Require DM convergence for SCF              =   T
redata: DM tolerance for SCF                        =     0.000008
redata: Require EDM convergence for SCF             =   F
redata: EDM tolerance for SCF                       =     0.001000 eV
redata: Require H convergence for SCF               =   T
redata: Hamiltonian tolerance for SCF               =     0.000001 eV
redata: Require (free) Energy convergence for SCF   =   F
redata: (free) Energy tolerance for SCF             =     0.000100 eV
redata: Using Saved Data (generic)                  =   F
redata: Use continuation files for DM               =   F
redata: Neglect nonoverlap interactions             =   F
redata: Method of Calculation                       = Diagonalization
redata: Electronic Temperature                      =   299.9978 K
redata: Fix the spin of the system                  =   F
redata: Dynamics option                             = Single-point calculation
mix.SCF: Pulay mixing                            = Pulay
mix.SCF:    Variant                              = stable
mix.SCF:    History steps                        = 6
mix.SCF:    Linear mixing weight                 =     0.250000
mix.SCF:    Mixing weight                        =     0.250000
mix.SCF:    SVD condition                        = 0.1000E-07
mix.SCF:    Restart steps                        = 24
mix.SCF:    Restart save steps                   = 3
mix.SCF: Spin-component mixing                   all
redata: Save all siesta data in one NC              =   F
redata: ***********************************************************************

%block SCF.Mixers
  Pulay
%endblock SCF.Mixers

%block SCF.Mixer.Pulay
  # Mixing method
  method pulay
  variant stable

  # Mixing options
  weight 0.2500
  weight.linear 0.2500
  history 6
  restart 24
  restart.save 3
%endblock SCF.Mixer.Pulay

DM_history_depth set to one: no extrapolation allowed by default for geometry relaxation
Size of DM history Fstack: 1
Total number of electrons:    98.000000
Total ionic charge:    98.000000

* ProcessorY, Blocksize:    2  24


* Orbital distribution balance (max,min):    81    72


Time-reversal symmetry not used.

siesta: k-grid: Number of k-points =     1
siesta: k-grid: Cutoff (effective) =     4.927 Ang
siesta: k-grid: Supercell and displacements
siesta: k-grid:    1   0   0      0.000
siesta: k-grid:    0   1   0      0.000
siesta: k-grid:    0   0   1      0.000

diag: Algorithm                                     = ELPA-1stage
diag: Parallel over k                               =   F
diag: Use parallel 2D distribution                  =   T
diag: Parallel block-size                           = 24
diag: Parallel distribution                         =     2 x     2
diag: Used triangular part                          = Lower
diag: Absolute tolerance                            =  0.100E-15
diag: Orthogonalization factor                      =  0.100E-05
diag: Memory factor                                 =  1.0000


ts: **************************************************************
ts: Save H and S matrices                           =    F
ts: Save DM and EDM matrices                        =    F
ts: Only save the overlap matrix S                  =    F
ts: **************************************************************

************************ Begin: TS CHECKS AND WARNINGS ************************
************************ End: TS CHECKS AND WARNINGS **************************


                     ====================================
                        Single-point calculation
                     ====================================

outcoor: Atomic coordinates (Ang):                          
    1.04362488    3.93922861    0.00000000   1       1  O
   -3.04064129    1.07107817    0.00000000   2       2  N
    2.05460145    1.21358207    0.00000000   2       3  N
    0.99901410   -1.73264380    0.00000000   2       4  N
   -2.13235164   -1.81296822    0.00000000   2       5  N
    3.86019055   -1.11229818    0.00000000   2       6  N
   -1.23618322    1.15296446    0.00000000   3       7  Si
   -0.53292426   -0.93900627    0.00000000   3       8  Si
    0.63566047    2.37451677    0.00000000   3       9  Si
    2.24517024   -0.54996710    0.00000000   3      10  Si
   -3.44981666   -0.58366503    0.00000000   3      11  Si
    2.96371409    1.79099263    0.00000000   4      12  H
   -4.84559135   -1.12354966    0.00000000   4      13  H
    4.00702091   -2.15230856    0.00000000   4      14  H
    4.77219438   -0.50231816    0.00000000   4      15  H
   -2.26539909   -2.86460511    0.00000000   4      16  H
    9.09557256    7.74109800    0.00000000   3      17  Si
   11.00045653    8.94773694    0.00000000   3      18  Si
   10.50470239    4.97476303    0.00000000   3      19  Si
   12.58217268    7.44398019    0.00000000   3      20  Si
    9.15519523    6.02367043    0.00000000   2      21  N
    7.55643750    8.49477531    0.00000000   2      22  N
   12.15699765    5.70460025    0.00000000   2      23  N
   11.19180133   10.43989069    0.00000000   4      24  H
   14.06654066    7.66271101    0.00000000   4      25  H
    7.44509222    9.54397042    0.00000000   4      26  H
    6.62387979    7.86986113    0.00000000   4      27  H
   10.49447556    3.36665191    0.00000000   1      28  O
   12.93242353    4.97790869    0.00000000   4      29  H

outcell: Unit cell vectors (Ang):
       28.391928    0.000000    0.000000
        0.000000   22.223528    0.000000
        0.000000    0.000000    9.854683

outcell: Cell vector modules (Ang)   :   28.391928   22.223528    9.854683
outcell: Cell angles (23,13,12) (deg):     90.0000     90.0000     90.0000
outcell: Cell volume (Ang**3)        :   6217.9978
<dSpData1D:S at geom step 0
  <sparsity:sparsity for geom step 0
    nrows_g=297 nrows=81 sparsity=.1364 nnzs=12029, refcount: 8>
  <dData1D:(new from dSpData1D) n=12029, refcount: 1>
refcount: 1>
new_DM -- step:     1
Initializing Density Matrix...
DM filled with atomic data:
<dSpData2D:DM initialized from atoms
  <sparsity:sparsity for geom step 0
    nrows_g=297 nrows=81 sparsity=.1364 nnzs=12029, refcount: 9>
  <dData2D:DM n=12029 m=8, refcount: 1>
refcount: 1>
     spin moment: S , {S} =   56.00000   0.00000   0.00000  56.00000
No. of atoms with KB's overlaping orbs in proc 0. Max # of overlaps:      29     142

Initializing spin-orbit part of the Hamiltonian
  Adding spin-orbit effects for O 
  Adding spin-orbit effects for N 
  Adding spin-orbit effects for Si
  Adding spin-orbit effects for H 


New grid distribution:   1
           1       1:  160    1:   63    1:   30
           2       1:  160    1:   63   31:   60
           3       1:  160   64:  125    1:   30
           4       1:  160   64:  125   31:   60

InitMesh: MESH =   320 x   250 x   120 =     9600000
InitMesh: (bp) =   160 x   125 x    60 =     1200000
InitMesh: Mesh cutoff (required, used) =   340.000   349.748 Ry
ExtMesh (bp) on 0 =   264 x   167 x   142 =     6260496
New grid distribution:   2
           1      60:  160    1:   39    1:   60
           2       1:   59    1:   40    1:   60
           3      60:  160   40:  125    1:   60
           4       1:   59   41:  125    1:   60
New grid distribution:   3
           1      61:  160    1:   43    1:   60
           2       1:   60    1:   42    1:   60
           3      61:  160   44:  125    1:   60
           4       1:   60   43:  125    1:   60
Setting up quadratic distribution...
ExtMesh (bp) on 0 =   205 x   143 x   172 =     5042180
PhiOnMesh: Number of (b)points on node 0 =               236340
PhiOnMesh: nlist on node 0 =              2425725

stepf: Fermi-Dirac step function

siesta: Program's energy decomposition (eV):
siesta: Ebs     =      -627.795751
siesta: Eions   =      3585.165840
siesta: Ena     =       382.019161
siesta: Ekin    =      3369.580755
siesta: Enl     =     -3298.148605
siesta: Eso     =        -0.003411
siesta: Edftu   =         0.000000
siesta: DEna    =       153.676467
siesta: DUscf   =        82.055680
siesta: DUext   =         0.000000
siesta: Exc     =     -1204.134749
siesta: eta*DQ  =         0.000000
siesta: Emadel  =         0.000000
siesta: Emeta   =         0.000000
siesta: Emolmec =         0.000000
siesta: Ekinion =         0.000000
siesta: Eharris =     -4019.802984
siesta: Etot    =     -4100.120542
siesta: FreeEng =     -4100.121964

        iscf     Eharris(eV)        E_KS(eV)     FreeEng(eV)     dDmax    Ef(eV) dHmax(eV)
   scf:    1    -4019.802984    -4100.120542    -4100.121964  0.964950 -4.904569 21.867007
     spin moment: S , {S} =    2.00726   0.00000   0.00000   2.00726
timer: Routine,Calls,Time,% = IterSCF        1      12.243  17.75
   scf:    2    -4146.252186    -4135.434410    -4135.436449  0.447989 -4.237968 11.766069
     spin moment: S , {S} =    1.98734   0.00000   0.00000   1.98734
   scf:    3    -4100.518486    -4131.315632    -4131.341221  0.419256 -4.341366 12.870501
     spin moment: S , {S} =    2.35438   0.00000   0.00000   2.35438
   scf:    4    -4149.998872    -4144.775081    -4144.775081  0.318860 -3.910072  7.196505
     spin moment: S , {S} =    0.00010  -0.00000   0.00000   0.00010
   scf:    5    -4146.188543    -4145.593210    -4145.593210  0.037812 -3.708879  4.699328
     spin moment: S , {S} =    0.00006   0.00000  -0.00000   0.00006
   scf:    6    -4146.354430    -4145.981700    -4145.981700  0.024436 -3.690928  2.373745
     spin moment: S , {S} =    0.00003   0.00000  -0.00000   0.00003
   scf:    7    -4146.348378    -4146.161077    -4146.161077  0.022546 -3.592758  0.881856
     spin moment: S , {S} =    0.00001   0.00000  -0.00000   0.00001
   scf:    8    -4146.276075    -4146.216754    -4146.216754  0.011996 -3.837923  0.524988
     spin moment: S , {S} =    0.00000   0.00000   0.00000   0.00000
   scf:    9    -4146.256864    -4146.236091    -4146.236091  0.006863 -3.792685  0.413224
     spin moment: S , {S} =    0.00000   0.00000   0.00000   0.00000
   scf:   10    -4146.289906    -4146.255291    -4146.255291  0.023523 -3.806561  0.259393
     spin moment: S , {S} =    0.00000   0.00000  -0.00000  -0.00000
   scf:   11    -4146.259590    -4146.257491    -4146.257491  0.005742 -3.792104  0.074783
     spin moment: S , {S} =    0.00000   0.00000   0.00000  -0.00000
   scf:   12    -4146.259127    -4146.258326    -4146.258326  0.001187 -3.782426  0.034593
     spin moment: S , {S} =    0.00000   0.00000   0.00000  -0.00000
   scf:   13    -4146.258988    -4146.258654    -4146.258654  0.001092 -3.783701  0.022592
     spin moment: S , {S} =    0.00000   0.00000   0.00000  -0.00000
   scf:   14    -4146.258987    -4146.258814    -4146.258814  0.000699 -3.780947  0.013650
     spin moment: S , {S} =    0.00000   0.00000   0.00000  -0.00000
   scf:   15    -4146.258963    -4146.258884    -4146.258884  0.000717 -3.782230  0.008146
     spin moment: S , {S} =    0.00000   0.00000   0.00000  -0.00000
   scf:   16    -4146.258955    -4146.258916    -4146.258916  0.000620 -3.781376  0.004846
     spin moment: S , {S} =    0.00000   0.00000  -0.00000  -0.00000
   scf:   17    -4146.258934    -4146.258924    -4146.258924  0.000343 -3.781247  0.003564
     spin moment: S , {S} =    0.00000   0.00000  -0.00000   0.00000
   scf:   18    -4146.258931    -4146.258928    -4146.258928  0.000208 -3.781411  0.002439
     spin moment: S , {S} =    0.00000  -0.00000  -0.00000   0.00000
   scf:   19    -4146.258932    -4146.258930    -4146.258930  0.000198 -3.781607  0.001626
     spin moment: S , {S} =    0.00000  -0.00000  -0.00000   0.00000
   scf:   20    -4146.258931    -4146.258930    -4146.258930  0.000091 -3.781648  0.001193
     spin moment: S , {S} =    0.00000  -0.00000  -0.00000   0.00000
   scf:   21    -4146.258931    -4146.258931    -4146.258931  0.000127 -3.781653  0.000750
     spin moment: S , {S} =    0.00000   0.00000  -0.00000   0.00000
   scf:   22    -4146.258931    -4146.258931    -4146.258931  0.000092 -3.781625  0.000345
     spin moment: S , {S} =    0.00000   0.00000  -0.00000   0.00000
   scf:   23    -4146.258931    -4146.258931    -4146.258931  0.000055 -3.781616  0.000174
     spin moment: S , {S} =    0.00000  -0.00000  -0.00000   0.00000
   scf:   24    -4146.258931    -4146.258931    -4146.258931  0.000021 -3.781616  0.000092
     spin moment: S , {S} =    0.00000  -0.00000  -0.00000   0.00000
mix: Pulay -- resetting history
   scf:   25    -4146.258931    -4146.258931    -4146.258931  0.000014 -3.781617  0.000060
     spin moment: S , {S} =    0.00000  -0.00000  -0.00000   0.00000
   scf:   26    -4146.258931    -4146.258931    -4146.258931  0.000005 -3.781618  0.000035
     spin moment: S , {S} =    0.00000  -0.00000  -0.00000   0.00000
   scf:   27    -4146.258931    -4146.258931    -4146.258931  0.000005 -3.781617  0.000021
     spin moment: S , {S} =    0.00000  -0.00000  -0.00000   0.00000
   scf:   28    -4146.258931    -4146.258931    -4146.258931  0.000002 -3.781616  0.000012
     spin moment: S , {S} =    0.00000  -0.00000  -0.00000   0.00000
   scf:   29    -4146.258931    -4146.258931    -4146.258931  0.000001 -3.781616  0.000008
     spin moment: S , {S} =    0.00000  -0.00000  -0.00000   0.00000
   scf:   30    -4146.258931    -4146.258931    -4146.258931  0.000001 -3.781616  0.000004
     spin moment: S , {S} =    0.00000  -0.00000  -0.00000   0.00000
   scf:   31    -4146.258931    -4146.258931    -4146.258931  0.000000 -3.781616  0.000003
     spin moment: S , {S} =    0.00000  -0.00000  -0.00000   0.00000
   scf:   32    -4146.258931    -4146.258931    -4146.258931  0.000000 -3.781616  0.000002
     spin moment: S , {S} =    0.00000   0.00000  -0.00000   0.00000
   scf:   33    -4146.258931    -4146.258931    -4146.258931  0.000000 -3.781616  0.000001
     spin moment: S , {S} =    0.00000  -0.00000  -0.00000   0.00000
   scf:   34    -4146.258931    -4146.258931    -4146.258931  0.000000 -3.781616  0.000001
     spin moment: S , {S} =    0.00000  -0.00000  -0.00000   0.00000

SCF Convergence by DM+H criterion
max |DM_out - DM_in|         :     0.0000001295
max |H_out - H_in|      (eV) :     0.0000007631
SCF cycle converged after 34 iterations

Using DM_out to compute the final energy and forces
No. of atoms with KB's overlaping orbs in proc 0. Max # of overlaps:      29     142

siesta: E_KS(eV) =            -4146.2589

siesta: E_KS - E_eggbox =     -4146.2589
     spin moment: S , {S} =    0.00000  -0.00000  -0.00000   0.00000

siesta: Atomic forces (eV/Ang):
     1    3.554275   -3.711821   -0.000000
     2   -0.007672    0.035149    0.000000
     3    0.829744   -0.445948   -0.000000
     4    0.813520   -0.022655   -0.000000
     5    0.053989   -0.107374   -0.000000
     6    1.858617    0.646148    0.000000
     7    0.038431   -0.269951    0.000000
     8   -0.462213    0.315751   -0.000000
     9   -0.229769    1.347661   -0.000000
    10   -1.153958    0.383553   -0.000000
    11   -0.028057   -0.018641    0.000000
    12   -0.412499   -0.230616    0.000000
    13    0.005674   -0.023649   -0.000000
    14    0.149690   -0.002619   -0.000000
    15   -1.326469   -0.955780    0.000000
    16   -0.073779    0.158611    0.000000
    17    1.116874   -1.185341   -0.000000
    18   -0.235047    0.212631   -0.000000
    19   -0.187428   -1.365824    0.000000
    20   -0.009692   -0.462956   -0.000000
    21   -0.342132    1.128733    0.000000
    22   -2.262682   -0.866534    0.000000
    23    0.289369    0.638440    0.000000
    24    0.077640   -0.057403    0.000000
    25    0.088739    0.002812    0.000000
    26   -0.242136   -0.235761    0.000000
    27    1.719059    1.390226   -0.000000
    28   -2.624684    3.495417   -0.000000
    29    0.039245    0.098080    0.000000
----------------------------------------
   Tot    1.036650   -0.109662   -0.000000
----------------------------------------
   Max    3.711821
   Res    0.930287    sqrt( Sum f_i^2 / 3N )
----------------------------------------
   Max    3.711821    constrained

Stress tensor Voigt[x,y,z,yz,xz,xy] (kbar):       -0.01        1.28       -0.08       -0.00        0.00        1.18
(Free)E + p*V (eV/cell)    -4147.7900
Target enthalpy (eV/cell)    -4146.2589

mulliken: Atomic and Orbital Populations:

Species: O                   

Atom      Orb        Charge      Spin       Svec
----------------------------------------------------------------
    1  1 2s         1.75253   0.00000      0.000   0.000  -0.000
    1  2 2s         0.06323   0.00000     -0.000  -0.000   0.000
    1  3 2py        1.42154   0.00000      0.000  -0.000  -0.000
    1  4 2pz        1.54076   0.00000      0.000  -0.000  -0.000
    1  5 2px        1.62262   0.00000      0.000   0.000   0.000
    1  6 2py        0.04103   0.00000     -0.000   0.000   0.000
    1  7 2pz       -0.00497   0.00000     -0.000   0.000  -0.000
    1  8 2px        0.00702   0.00000     -0.000   0.000   0.000
    1  9 3Pdxy      0.00715   0.00000      0.000   0.000   0.000
    1 10 3Pdyz      0.00917   0.00000     -0.000   0.000   0.000
    1 11 3Pdz2      0.00161   0.00000      0.000   0.000  -0.000
    1 12 3Pdxz      0.00039   0.00000     -0.000  -0.000   0.000
    1 13 3Pdx2-y2   0.00698   0.00000      0.000   0.000   0.000
    1     Total     6.46906   0.00000      0.000   0.000  -0.000

   28  1 2s         1.74741   0.00000     -0.000  -0.000  -0.000
   28  2 2s         0.06660   0.00000      0.000   0.000   0.000
   28  3 2py        1.40356   0.00000      0.000  -0.000   0.000
   28  4 2pz        1.53934   0.00000     -0.000  -0.000  -0.000
   28  5 2px        1.64366   0.00000      0.000   0.000   0.000
   28  6 2py        0.04351   0.00000      0.000   0.000   0.000
   28  7 2pz       -0.00337   0.00000      0.000   0.000   0.000
   28  8 2px        0.01203   0.00000     -0.000   0.000   0.000
   28  9 3Pdxy      0.00651   0.00000     -0.000  -0.000  -0.000
   28 10 3Pdyz      0.00985   0.00000      0.000   0.000   0.000
   28 11 3Pdz2      0.00127   0.00000      0.000   0.000   0.000
   28 12 3Pdxz     -0.00018   0.00000     -0.000  -0.000  -0.000
   28 13 3Pdx2-y2   0.00775   0.00000     -0.000  -0.000   0.000
   28     Total     6.47794   0.00000      0.000  -0.000   0.000

----------------------------------------------------------------
Total              12.94701   0.00000      0.000  -0.000  -0.000


Species: N                   

Atom      Orb        Charge      Spin       Svec
----------------------------------------------------------------
    2  1 2s         1.55186   0.00000      0.000   0.000  -0.000
    2  2 2s         0.08401   0.00000     -0.000  -0.000   0.000
    2  3 2py        1.04305   0.00000     -0.000   0.000  -0.000
    2  4 2pz        1.22412   0.00000     -0.000  -0.000  -0.000
    2  5 2px        0.98881   0.00000      0.000  -0.000  -0.000
    2  6 2py        0.18878   0.00000      0.000   0.000   0.000
    2  7 2pz        0.05550   0.00000      0.000  -0.000   0.000
    2  8 2px        0.19606   0.00000      0.000   0.000   0.000
    2  9 3Pdxy      0.00841   0.00000      0.000  -0.000  -0.000
    2 10 3Pdyz      0.01100   0.00000     -0.000  -0.000   0.000
    2 11 3Pdz2      0.00196   0.00000     -0.000  -0.000   0.000
    2 12 3Pdxz      0.00757   0.00000      0.000   0.000   0.000
    2 13 3Pdx2-y2   0.00910   0.00000     -0.000  -0.000  -0.000
    2     Total     5.37022   0.00000      0.000  -0.000  -0.000

    3  1 2s         1.40138   0.00000     -0.000  -0.000  -0.000
    3  2 2s         0.11607   0.00000      0.000   0.000   0.000
    3  3 2py        0.94127   0.00000      0.000   0.000  -0.000
    3  4 2pz        1.54310   0.00000      0.000   0.000  -0.000
    3  5 2px        1.08107   0.00000     -0.000   0.000  -0.000
    3  6 2py        0.24857   0.00000     -0.000   0.000   0.000
    3  7 2pz        0.00753   0.00000     -0.000   0.000   0.000
    3  8 2px        0.17882   0.00000      0.000  -0.000  -0.000
    3  9 3Pdxy      0.00403   0.00000     -0.000   0.000   0.000
    3 10 3Pdyz      0.00421   0.00000     -0.000  -0.000  -0.000
    3 11 3Pdz2      0.00075   0.00000     -0.000   0.000   0.000
    3 12 3Pdxz      0.00280   0.00000      0.000  -0.000  -0.000
    3 13 3Pdx2-y2   0.00287   0.00000     -0.000  -0.000   0.000
    3     Total     5.53247   0.00000      0.000   0.000  -0.000

    4  1 2s         1.45961   0.00000      0.000  -0.000  -0.000
    4  2 2s         0.11898   0.00000     -0.000   0.000   0.000
    4  3 2py        1.13137   0.00000      0.000  -0.000  -0.000
    4  4 2pz        1.29432   0.00000      0.000   0.000  -0.000
    4  5 2px        0.82585   0.00000     -0.000   0.000  -0.000
    4  6 2py        0.14940   0.00000     -0.000   0.000   0.000
    4  7 2pz        0.05372   0.00000     -0.000  -0.000   0.000
    4  8 2px        0.29231   0.00000      0.000  -0.000   0.000
    4  9 3Pdxy      0.00869   0.00000      0.000  -0.000  -0.000
    4 10 3Pdyz      0.01045   0.00000      0.000   0.000   0.000
    4 11 3Pdz2      0.00126   0.00000      0.000  -0.000   0.000
    4 12 3Pdxz      0.00501   0.00000      0.000   0.000   0.000
    4 13 3Pdx2-y2   0.00797   0.00000     -0.000   0.000   0.000
    4     Total     5.35896   0.00000      0.000  -0.000  -0.000

    5  1 2s         1.37630   0.00000     -0.000  -0.000  -0.000
    5  2 2s         0.12789   0.00000      0.000   0.000   0.000
    5  3 2py        1.02644   0.00000     -0.000   0.000  -0.000
    5  4 2pz        1.50097   0.00000      0.000  -0.000  -0.000
    5  5 2px        1.05994   0.00000      0.000  -0.000  -0.000
    5  6 2py        0.20357   0.00000      0.000  -0.000   0.000
    5  7 2pz        0.01335   0.00000     -0.000  -0.000   0.000
    5  8 2px        0.20096   0.00000     -0.000  -0.000   0.000
    5  9 3Pdxy      0.00393   0.00000     -0.000   0.000   0.000
    5 10 3Pdyz      0.00241   0.00000      0.000   0.000   0.000
    5 11 3Pdz2      0.00142   0.00000      0.000  -0.000   0.000
    5 12 3Pdxz      0.00686   0.00000      0.000  -0.000   0.000
    5 13 3Pdx2-y2   0.00559   0.00000     -0.000   0.000   0.000
    5     Total     5.52962   0.00000      0.000  -0.000  -0.000

    6  1 2s         1.26958   0.00000     -0.000   0.000  -0.000
    6  2 2s         0.17907   0.00000      0.000   0.000   0.000
    6  3 2py        1.07571   0.00000      0.000   0.000  -0.000
    6  4 2pz        1.57616   0.00000     -0.000   0.000  -0.000
    6  5 2px        0.95460   0.00000     -0.000   0.000  -0.000
    6  6 2py        0.18823   0.00000      0.000  -0.000   0.000
    6  7 2pz        0.02977   0.00000      0.000  -0.000   0.000
    6  8 2px        0.25569   0.00000     -0.000   0.000  -0.000
    6  9 3Pdxy      0.00252   0.00000      0.000  -0.000   0.000
    6 10 3Pdyz      0.00017   0.00000      0.000   0.000  -0.000
    6 11 3Pdz2      0.00178   0.00000      0.000   0.000   0.000
    6 12 3Pdxz      0.00324   0.00000      0.000  -0.000   0.000
    6 13 3Pdx2-y2   0.00394   0.00000     -0.000  -0.000   0.000
    6     Total     5.54045   0.00000     -0.000   0.000  -0.000

   21  1 2s         1.42506   0.00000      0.000  -0.000   0.000
   21  2 2s         0.12773   0.00000     -0.000   0.000  -0.000
   21  3 2py        0.87062   0.00000      0.000  -0.000  -0.000
   21  4 2pz        1.29369   0.00000      0.000   0.000  -0.000
   21  5 2px        1.15597   0.00000     -0.000   0.000  -0.000
   21  6 2py        0.27581   0.00000     -0.000   0.000   0.000
   21  7 2pz        0.04910   0.00000     -0.000  -0.000   0.000
   21  8 2px        0.16345   0.00000      0.000   0.000  -0.000
   21  9 3Pdxy      0.00654   0.00000     -0.000  -0.000   0.000
   21 10 3Pdyz      0.00513   0.00000     -0.000   0.000  -0.000
   21 11 3Pdz2      0.00017   0.00000     -0.000   0.000  -0.000
   21 12 3Pdxz      0.00574   0.00000     -0.000  -0.000  -0.000
   21 13 3Pdx2-y2   0.00561   0.00000      0.000   0.000   0.000
   21     Total     5.38463   0.00000      0.000  -0.000  -0.000

   22  1 2s         1.29453   0.00000      0.000  -0.000  -0.000
   22  2 2s         0.16757   0.00000     -0.000   0.000   0.000
   22  3 2py        1.05577   0.00000     -0.000   0.000   0.000
   22  4 2pz        1.56005   0.00000     -0.000  -0.000   0.000
   22  5 2px        0.98151   0.00000     -0.000   0.000   0.000
   22  6 2py        0.19661   0.00000      0.000   0.000  -0.000
   22  7 2pz        0.02812   0.00000      0.000   0.000   0.000
   22  8 2px        0.23510   0.00000     -0.000   0.000  -0.000
   22  9 3Pdxy      0.00335   0.00000     -0.000   0.000  -0.000
   22 10 3Pdyz      0.00035   0.00000      0.000  -0.000   0.000
   22 11 3Pdz2      0.00258   0.00000      0.000   0.000  -0.000
   22 12 3Pdxz      0.00313   0.00000      0.000   0.000   0.000
   22 13 3Pdx2-y2   0.00478   0.00000     -0.000   0.000  -0.000
   22     Total     5.53345   0.00000     -0.000  -0.000   0.000

   23  1 2s         1.39761   0.00000      0.000   0.000  -0.000
   23  2 2s         0.11771   0.00000     -0.000  -0.000  -0.000
   23  3 2py        1.00649   0.00000      0.000   0.000   0.000
   23  4 2pz        1.52375   0.00000      0.000   0.000  -0.000
   23  5 2px        1.06583   0.00000      0.000   0.000  -0.000
   23  6 2py        0.21170   0.00000     -0.000   0.000  -0.000
   23  7 2pz        0.00495   0.00000      0.000   0.000  -0.000
   23  8 2px        0.19789   0.00000     -0.000   0.000   0.000
   23  9 3Pdxy      0.00531   0.00000      0.000  -0.000  -0.000
   23 10 3Pdyz      0.00445   0.00000      0.000   0.000  -0.000
   23 11 3Pdz2      0.00057   0.00000     -0.000  -0.000  -0.000
   23 12 3Pdxz      0.00243   0.00000     -0.000  -0.000  -0.000
   23 13 3Pdx2-y2   0.00138   0.00000      0.000   0.000   0.000
   23     Total     5.54008   0.00000      0.000   0.000  -0.000

----------------------------------------------------------------
Total              56.73688   0.00000      0.000   0.000  -0.000


Species: Si                  

Atom      Orb        Charge      Spin       Svec
----------------------------------------------------------------
    7  1 3s         0.66747   0.00000     -0.000  -0.000   0.000
    7  2 3s         0.36523   0.00000      0.000   0.000   0.000
    7  3 3py        0.48731   0.00000     -0.000   0.000  -0.000
    7  4 3pz        0.68834   0.00000     -0.000   0.000  -0.000
    7  5 3px        0.12466   0.00000     -0.000  -0.000   0.000
    7  6 3py        0.26484   0.00000      0.000  -0.000   0.000
    7  7 3pz        0.25952   0.00000      0.000   0.000   0.000
    7  8 3px        0.43871   0.00000      0.000   0.000   0.000
    7  9 3Pdxy      0.24585   0.00000     -0.000   0.000   0.000
    7 10 3Pdyz      0.02945   0.00000     -0.000  -0.000   0.000
    7 11 3Pdz2      0.01175   0.00000      0.000  -0.000   0.000
    7 12 3Pdxz      0.14582   0.00000      0.000  -0.000  -0.000
    7 13 3Pdx2-y2   0.11295   0.00000      0.000  -0.000   0.000
    7     Total     3.84189   0.00000     -0.000  -0.000   0.000

    8  1 3s         0.65706   0.00000      0.000  -0.000  -0.000
    8  2 3s         0.36842   0.00000     -0.000  -0.000   0.000
    8  3 3py        0.38771   0.00000     -0.000   0.000   0.000
    8  4 3pz        0.52750   0.00000     -0.000  -0.000   0.000
    8  5 3px       -0.03114   0.00000      0.000  -0.000  -0.000
    8  6 3py        0.30898   0.00000      0.000  -0.000   0.000
    8  7 3pz        0.20168   0.00000      0.000   0.000   0.000
    8  8 3px        0.51459   0.00000     -0.000   0.000  -0.000
    8  9 3Pdxy      0.24568   0.00000      0.000   0.000   0.000
    8 10 3Pdyz      0.11217   0.00000     -0.000  -0.000  -0.000
    8 11 3Pdz2      0.01459   0.00000     -0.000   0.000   0.000
    8 12 3Pdxz      0.15295   0.00000      0.000   0.000   0.000
    8 13 3Pdx2-y2   0.20011   0.00000      0.000  -0.000   0.000
    8     Total     3.66028   0.00000      0.000  -0.000   0.000

    9  1 3s         0.60437   0.00000     -0.000  -0.000   0.000
    9  2 3s         0.36658   0.00000      0.000   0.000  -0.000
    9  3 3py        0.07559   0.00000     -0.000  -0.000  -0.000
    9  4 3pz        0.48429   0.00000      0.000   0.000  -0.000
    9  5 3px        0.37716   0.00000     -0.000  -0.000  -0.000
    9  6 3py        0.44722   0.00000     -0.000   0.000  -0.000
    9  7 3pz        0.18815   0.00000     -0.000   0.000  -0.000
    9  8 3px        0.27409   0.00000      0.000   0.000   0.000
    9  9 3Pdxy      0.31211   0.00000      0.000   0.000   0.000
    9 10 3Pdyz      0.18945   0.00000      0.000   0.000  -0.000
    9 11 3Pdz2      0.01644   0.00000      0.000   0.000  -0.000
    9 12 3Pdxz      0.09647   0.00000      0.000   0.000  -0.000
    9 13 3Pdx2-y2   0.17148   0.00000      0.000  -0.000   0.000
    9     Total     3.60340   0.00000      0.000   0.000  -0.000

   10  1 3s         0.48390   0.00000      0.000  -0.000   0.000
   10  2 3s         0.37716   0.00000     -0.000   0.000   0.000
   10  3 3py        0.24247   0.00000     -0.000  -0.000   0.000
   10  4 3pz        0.41038   0.00000     -0.000  -0.000   0.000
   10  5 3px        0.10133   0.00000     -0.000   0.000   0.000
   10  6 3py        0.32766   0.00000     -0.000   0.000  -0.000
   10  7 3pz        0.22206   0.00000      0.000   0.000   0.000
   10  8 3px        0.42801   0.00000     -0.000  -0.000   0.000
   10  9 3Pdxy      0.16953   0.00000      0.000   0.000  -0.000
   10 10 3Pdyz      0.14085   0.00000      0.000  -0.000   0.000
   10 11 3Pdz2      0.01048   0.00000     -0.000   0.000   0.000
   10 12 3Pdxz      0.17438   0.00000      0.000  -0.000   0.000
   10 13 3Pdx2-y2   0.31056   0.00000     -0.000  -0.000   0.000
   10     Total     3.39877   0.00000     -0.000  -0.000   0.000

   11  1 3s         0.55285   0.00000     -0.000   0.000   0.000
   11  2 3s         0.38548   0.00000      0.000  -0.000   0.000
   11  3 3py        0.32126   0.00000      0.000   0.000   0.000
   11  4 3pz        0.53856   0.00000     -0.000   0.000   0.000
   11  5 3px        0.12301   0.00000      0.000  -0.000   0.000
   11  6 3py        0.28705   0.00000      0.000  -0.000   0.000
   11  7 3pz        0.17796   0.00000      0.000   0.000   0.000
   11  8 3px        0.44739   0.00000     -0.000   0.000  -0.000
   11  9 3Pdxy      0.22527   0.00000      0.000   0.000   0.000
   11 10 3Pdyz      0.12605   0.00000      0.000  -0.000   0.000
   11 11 3Pdz2      0.00955   0.00000     -0.000   0.000  -0.000
   11 12 3Pdxz      0.05254   0.00000      0.000  -0.000   0.000
   11 13 3Pdx2-y2   0.20361   0.00000      0.000   0.000   0.000
   11     Total     3.45058   0.00000      0.000   0.000   0.000

   17  1 3s         0.64035   0.00000     -0.000  -0.000   0.000
   17  2 3s         0.36019   0.00000      0.000   0.000  -0.000
   17  3 3py        0.22881   0.00000     -0.000  -0.000   0.000
   17  4 3pz        0.42521   0.00000     -0.000   0.000   0.000
   17  5 3px        0.24504   0.00000      0.000  -0.000   0.000
   17  6 3py        0.38772   0.00000      0.000   0.000  -0.000
   17  7 3pz        0.21072   0.00000      0.000  -0.000   0.000
   17  8 3px        0.36780   0.00000     -0.000   0.000  -0.000
   17  9 3Pdxy      0.30248   0.00000      0.000   0.000   0.000
   17 10 3Pdyz      0.14343   0.00000     -0.000  -0.000   0.000
   17 11 3Pdz2      0.00915   0.00000      0.000   0.000   0.000
   17 12 3Pdxz      0.14320   0.00000      0.000   0.000   0.000
   17 13 3Pdx2-y2   0.16311   0.00000      0.000   0.000  -0.000
   17     Total     3.62722   0.00000      0.000   0.000   0.000

   18  1 3s         0.74457   0.00000     -0.000  -0.000   0.000
   18  2 3s         0.33912   0.00000      0.000   0.000   0.000
   18  3 3py        0.08086   0.00000      0.000   0.000   0.000
   18  4 3pz        0.82494   0.00000      0.000  -0.000   0.000
   18  5 3px        0.55541   0.00000     -0.000   0.000  -0.000
   18  6 3py        0.51701   0.00000     -0.000   0.000  -0.000
   18  7 3pz        0.19726   0.00000      0.000   0.000   0.000
   18  8 3px        0.24975   0.00000      0.000  -0.000   0.000
   18  9 3Pdxy      0.10345   0.00000     -0.000   0.000  -0.000
   18 10 3Pdyz      0.02734   0.00000      0.000   0.000  -0.000
   18 11 3Pdz2      0.00876   0.00000     -0.000   0.000  -0.000
   18 12 3Pdxz      0.03015   0.00000     -0.000   0.000  -0.000
   18 13 3Pdx2-y2   0.11338   0.00000     -0.000   0.000   0.000
   18     Total     3.79202   0.00000     -0.000   0.000   0.000

   19  1 3s         0.45895   0.00000     -0.000  -0.000  -0.000
   19  2 3s         0.36582   0.00000      0.000   0.000   0.000
   19  3 3py        0.08188   0.00000      0.000  -0.000  -0.000
   19  4 3pz        0.42834   0.00000     -0.000  -0.000   0.000
   19  5 3px        0.35397   0.00000     -0.000  -0.000   0.000
   19  6 3py        0.47112   0.00000     -0.000   0.000   0.000
   19  7 3pz        0.18375   0.00000      0.000   0.000  -0.000
   19  8 3px        0.23962   0.00000      0.000   0.000  -0.000
   19  9 3Pdxy      0.34102   0.00000     -0.000  -0.000  -0.000
   19 10 3Pdyz      0.18765   0.00000      0.000  -0.000   0.000
   19 11 3Pdz2      0.01609   0.00000      0.000  -0.000  -0.000
   19 12 3Pdxz      0.08670   0.00000     -0.000  -0.000   0.000
   19 13 3Pdx2-y2   0.23609   0.00000     -0.000  -0.000   0.000
   19     Total     3.45099   0.00000     -0.000  -0.000   0.000

   20  1 3s         0.67302   0.00000     -0.000  -0.000  -0.000
   20  2 3s         0.37824   0.00000      0.000   0.000  -0.000
   20  3 3py        0.33180   0.00000     -0.000   0.000  -0.000
   20  4 3pz        0.58810   0.00000     -0.000   0.000  -0.000
   20  5 3px        0.13750   0.00000      0.000   0.000  -0.000
   20  6 3py        0.29234   0.00000      0.000  -0.000   0.000
   20  7 3pz        0.16407   0.00000      0.000  -0.000  -0.000
   20  8 3px        0.50004   0.00000     -0.000  -0.000   0.000
   20  9 3Pdxy      0.10051   0.00000     -0.000   0.000  -0.000
   20 10 3Pdyz      0.13404   0.00000     -0.000  -0.000  -0.000
   20 11 3Pdz2      0.00735   0.00000     -0.000  -0.000   0.000
   20 12 3Pdxz      0.02702   0.00000      0.000  -0.000   0.000
   20 13 3Pdx2-y2   0.17182   0.00000     -0.000  -0.000  -0.000
   20     Total     3.50585   0.00000     -0.000   0.000  -0.000

----------------------------------------------------------------
Total              89.06788   0.00000      0.000   0.000   0.000


Species: H                   

Atom      Orb        Charge      Spin       Svec
----------------------------------------------------------------
   12  1 1s         0.49912   0.00000     -0.000  -0.000   0.000
   12  2 1s         0.18150   0.00000      0.000   0.000   0.000
   12  3 2Ppy       0.02926   0.00000      0.000   0.000   0.000
   12  4 2Ppz       0.03458   0.00000      0.000  -0.000  -0.000
   12  5 2Ppx       0.02291   0.00000     -0.000  -0.000   0.000
   12     Total     0.76736   0.00000      0.000  -0.000   0.000

   13  1 1s         1.01862   0.00000     -0.000  -0.000  -0.000
   13  2 1s         0.09537   0.00000      0.000   0.000   0.000
   13  3 2Ppy       0.01808   0.00000     -0.000   0.000  -0.000
   13  4 2Ppz       0.02001   0.00000      0.000   0.000   0.000
   13  5 2Ppx       0.03521   0.00000      0.000   0.000  -0.000
   13     Total     1.18730   0.00000     -0.000  -0.000  -0.000

   14  1 1s         0.46061   0.00000      0.000  -0.000   0.000
   14  2 1s         0.19990   0.00000      0.000   0.000   0.000
   14  3 2Ppy       0.01789   0.00000     -0.000  -0.000  -0.000
   14  4 2Ppz       0.04548   0.00000      0.000  -0.000   0.000
   14  5 2Ppx       0.01717   0.00000     -0.000  -0.000   0.000
   14     Total     0.74104   0.00000      0.000  -0.000   0.000

   15  1 1s         0.50293   0.00000     -0.000  -0.000   0.000
   15  2 1s         0.17790   0.00000      0.000   0.000   0.000
   15  3 2Ppy       0.00533   0.00000     -0.000  -0.000  -0.000
   15  4 2Ppz       0.04395   0.00000      0.000  -0.000   0.000
   15  5 2Ppx       0.02807   0.00000      0.000  -0.000   0.000
   15     Total     0.75817   0.00000     -0.000  -0.000   0.000

   16  1 1s         0.51003   0.00000     -0.000  -0.000   0.000
   16  2 1s         0.18719   0.00000      0.000   0.000   0.000
   16  3 2Ppy       0.02979   0.00000     -0.000  -0.000   0.000
   16  4 2Ppz       0.03983   0.00000     -0.000   0.000   0.000
   16  5 2Ppx       0.02359   0.00000      0.000  -0.000   0.000
   16     Total     0.79041   0.00000     -0.000  -0.000   0.000

   24  1 1s         1.06365   0.00000     -0.000  -0.000  -0.000
   24  2 1s         0.07422   0.00000      0.000   0.000   0.000
   24  3 2Ppy       0.03204   0.00000      0.000   0.000   0.000
   24  4 2Ppz       0.03082   0.00000     -0.000  -0.000   0.000
   24  5 2Ppx       0.01729   0.00000      0.000   0.000  -0.000
   24     Total     1.21803   0.00000     -0.000  -0.000  -0.000

   25  1 1s         1.04325   0.00000      0.000  -0.000   0.000
   25  2 1s         0.08645   0.00000     -0.000   0.000  -0.000
   25  3 2Ppy       0.01228   0.00000     -0.000   0.000   0.000
   25  4 2Ppz       0.01842   0.00000     -0.000  -0.000  -0.000
   25  5 2Ppx       0.03572   0.00000      0.000  -0.000   0.000
   25     Total     1.19612   0.00000      0.000  -0.000   0.000

   26  1 1s         0.47627   0.00000     -0.000   0.000  -0.000
   26  2 1s         0.19591   0.00000     -0.000   0.000   0.000
   26  3 2Ppy       0.02097   0.00000     -0.000   0.000  -0.000
   26  4 2Ppz       0.04944   0.00000      0.000   0.000  -0.000
   26  5 2Ppx       0.01618   0.00000      0.000  -0.000  -0.000
   26     Total     0.75876   0.00000     -0.000   0.000  -0.000

   27  1 1s         0.51734   0.00000      0.000   0.000   0.000
   27  2 1s         0.16835   0.00000      0.000  -0.000   0.000
   27  3 2Ppy       0.00683   0.00000      0.000  -0.000  -0.000
   27  4 2Ppz       0.03877   0.00000      0.000  -0.000   0.000
   27  5 2Ppx       0.02855   0.00000      0.000   0.000  -0.000
   27     Total     0.75983   0.00000      0.000  -0.000   0.000

   29  1 1s         0.48392   0.00000     -0.000  -0.000   0.000
   29  2 1s         0.18786   0.00000      0.000   0.000   0.000
   29  3 2Ppy       0.02511   0.00000      0.000   0.000   0.000
   29  4 2Ppz       0.03407   0.00000      0.000   0.000   0.000
   29  5 2Ppx       0.02413   0.00000     -0.000  -0.000   0.000
   29     Total     0.75509   0.00000     -0.000  -0.000   0.000

----------------------------------------------------------------
Total              98.00000   0.00000     -0.000  -0.000   0.000


siesta: Eigenvalues (eV):
ik =     1
  -22.0183  -22.0183  -21.7184  -21.7184  -21.6142  -21.6142  -21.6032  -21.6032  -21.2685  -21.2685
  -20.9426  -20.9426  -20.9056  -20.9056  -19.8912  -19.8912  -19.3924  -19.3923  -19.3534  -19.3534
  -14.7204  -14.7204  -13.9441  -13.9441  -13.3352  -13.3352  -13.2748  -13.2748  -13.1411  -13.1411
  -12.9864  -12.9864  -12.8951  -12.8951  -12.5252  -12.5252  -12.3926  -12.3926  -11.9997  -11.9997
  -11.5362  -11.5362  -10.8123  -10.8123  -10.7791  -10.7791  -10.7630  -10.7630  -10.0581  -10.0581
   -9.5083   -9.5083   -9.2956   -9.2956   -8.8983   -8.8983   -8.7376   -8.7376   -8.7282   -8.7282
   -8.6453   -8.6453   -8.3608   -8.3608   -8.2385   -8.2385   -7.8390   -7.8390   -7.6861   -7.6861
   -7.4569   -7.4569   -7.4158   -7.4158   -7.3161   -7.3161   -6.9640   -6.9640   -6.7029   -6.7029
   -6.5555   -6.5555   -6.4547   -6.4547   -6.1334   -6.1334   -6.1040   -6.1040   -6.0315   -6.0315
   -5.6499   -5.6499   -5.5982   -5.5982   -5.3993   -5.3993   -4.3460   -4.3460   -3.2152   -3.2152
   -2.3480   -2.3480   -2.2899   -2.2899   -2.2748   -2.2748   -1.9399   -1.9399   -1.9005   -1.9005
   -1.8173   -1.8173   -1.7439   -1.7439   -1.6172   -1.6172   -1.5473   -1.5473   -0.9891   -0.9891
   -0.9373   -0.9373   -0.8788   -0.8788   -0.4278   -0.4278   -0.1202   -0.1202   -0.0142   -0.0142
    0.1738    0.1738    0.3949    0.3949    0.4844    0.4844    0.7055    0.7055    0.7277    0.7277
    0.9459    0.9459    1.1459    1.1459    1.3179    1.3179    1.3423    1.3423    1.4702    1.4702
    1.6322    1.6322    1.8125    1.8125    1.9017    1.9017    2.2918    2.2918    2.7082    2.7082
    2.7130    2.7130    2.8407    2.8407    2.9419    2.9419    3.1483    3.1483    3.3321    3.3321
    3.3376    3.3376    3.7284    3.7284    3.8031    3.8031    4.1086    4.1086    4.2365    4.2365
    4.4425    4.4425    4.5306    4.5306    4.5864    4.5864    4.6047    4.6047    4.8065    4.8065
    4.9042    4.9042    4.9766    4.9766    5.1984    5.1984    5.5321    5.5321    5.6159    5.6159
    5.6735    5.6735    5.7907    5.7907    5.8332    5.8332    5.8902    5.8902    5.9545    5.9545
    6.1896    6.1896    6.2945    6.2945    6.6678    6.6678    6.6835    6.6835    6.8424    6.8424
    7.0690    7.0690    7.1619    7.1619    7.3494    7.3494    7.4636    7.4636    7.7102    7.7102
    7.8321    7.8321    8.0310    8.0310    8.1172    8.1172    8.1947    8.1947    8.3010    8.3010
    8.4463    8.4463    8.6485    8.6485    8.7148    8.7148    8.9521    8.9521    9.1849    9.1849
    9.2055    9.2055    9.2217    9.2217    9.7811    9.7811    9.7927    9.7927    9.8464    9.8464
    9.9771    9.9771   10.1886   10.1886   10.4006   10.4006   10.6284   10.6284   10.7763   10.7763
   10.8617   10.8617   11.0496   11.0496   11.2466   11.2466   11.6823   11.6823   11.7715   11.7715
   11.8212   11.8212   11.9214   11.9214   12.1484   12.1484   12.3272   12.3272   12.5105   12.5105
   12.7264   12.7264   12.7723   12.7723   13.3406   13.3406   13.5158   13.5158   13.7240   13.7240
   13.7540   13.7540   14.0753   14.0753   14.1900   14.1900   14.3784   14.3784   14.7887   14.7887
   14.8933   14.8933   15.3572   15.3572   15.9611   15.9611   16.3794   16.3794   16.6929   16.6929
   16.9150   16.9150   17.3917   17.3917   17.6987   17.6987   18.1636   18.1636   18.2929   18.2929
   18.5547   18.5547   19.1317   19.1317   19.2981   19.2981   19.8990   19.8990   20.2690   20.2690
   20.9093   20.9093   21.3298   21.3298   21.7674   21.7674   22.2092   22.2092   22.3865   22.3865
   23.1081   23.1081   23.2405   23.2405   23.7277   23.7277   23.8138   23.8138   23.8296   23.8296
   24.8095   24.8095   25.1782   25.1782   26.0309   26.0309   26.7379   26.7379   27.3489   27.3489
   28.2720   28.2720   29.0441   29.0441   29.1186   29.1186   29.4609   29.4609   29.5704   29.5704
   30.0007   30.0007   30.0716   30.0716   30.2235   30.2235   30.5666   30.5666   30.7440   30.7440
   31.0006   31.0006   31.2068   31.2068   31.5025   31.5025   31.6214   31.6214   32.2023   32.2023
   32.7143   32.7143   33.8091   33.8091   34.4885   34.4885   34.7624   34.7624   34.9957   34.9957
   34.9984   34.9984   35.1991   35.1991   35.3476   35.3476   35.6203   35.6203   35.9474   35.9474
   36.7392   36.7392   36.7449   36.7449   36.9897   36.9897   37.1519   37.1519   37.4597   37.4597
   38.1356   38.1356   38.2419   38.2419   39.3862   39.3862   39.4257   39.4257   39.9029   39.9029
   40.2050   40.2050   40.4980   40.4980   40.6389   40.6389   40.6461   40.6461   40.9465   40.9465
   40.9923   40.9923   41.4497   41.4497   42.4145   42.4145   42.5819   42.5819   43.0388   43.0388
   43.1142   43.1142   43.7874   43.7874   43.8550   43.8550   43.9995   43.9995   44.2450   44.2450
   44.6466   44.6466   44.7317   44.7317   45.0030   45.0030   45.3033   45.3033   46.1174   46.1174
   46.3234   46.3234   46.8072   46.8072   47.1587   47.1587   48.6664   48.6664   48.9456   48.9456
   49.4089   49.4089   50.3477   50.3477   50.4621   50.4621   50.7495   50.7495   50.8868   50.8868
   51.3347   51.3347   51.6238   51.6238   52.6703   52.6703   52.7157   52.7157   54.1650   54.1650
   54.2217   54.2217   54.6070   54.6070   54.6900   54.6900   55.8086   55.8086   55.8344   55.8344
   55.8514   55.8514   56.0163   56.0163   56.5231   56.5231   57.8342   57.8342   58.1811   58.1811
   58.6366   58.6366   60.1005   60.1005   60.4985   60.4985   60.5290   60.5290   61.1248   61.1248
   61.8444   61.8444   61.9448   61.9448   62.1861   62.1861   64.4509   64.4509   66.4815   66.4815
   67.1066   67.1066   67.1714   67.1714   68.2317   68.2317   68.7004   68.7004   70.8128   70.8128
   74.0081   74.0081   79.9954   79.9954   91.0135   91.0135   91.9400   91.9400   93.3340   93.3340
   98.3788   98.3788   98.7397   98.7397   99.6925   99.6925  103.3384  103.3384  103.7362  103.7362
  110.0396  110.0396  111.5907  111.5907  123.6000  123.6000  125.7281  125.7281  129.8965  129.8965
  134.9772  134.9772  138.2091  138.2091
siesta: Fermi energy =      -3.781616 eV

siesta: Program's energy decomposition (eV):
siesta: Ebs     =     -1135.873473
siesta: Eions   =      3585.165840
siesta: Ena     =       382.019161
siesta: Ekin    =      2903.080456
siesta: Enl     =     -2787.843123
siesta: Eso     =        -0.004284
siesta: Edftu   =         0.000000
siesta: DEna    =        46.985562
siesta: DUscf   =        14.360056
siesta: DUext   =         0.000000
siesta: Exc     =     -1119.690919
siesta: eta*DQ  =         0.000000
siesta: Emadel  =         0.000000
siesta: Emeta   =         0.000000
siesta: Emolmec =         0.000000
siesta: Ekinion =         0.000000
siesta: Eharris =     -4146.258931
siesta: Etot    =     -4146.258931
siesta: FreeEng =     -4146.258931

siesta: Final energy (eV):
siesta:  Band Struct. =   -1135.873473
siesta:       Kinetic =    2903.080456
siesta:       Hartree =    8126.192947
siesta:       Edftu   =       0.000000
siesta:       Eso     =      -0.004284
siesta:    Ext. field =       0.000000
siesta:   Exch.-corr. =   -1119.690919
siesta:  Ion-electron =  -18837.850917
siesta:       Ion-ion =    4782.013786
siesta:       Ekinion =       0.000000
siesta:         Total =   -4146.258931
siesta:         Fermi =      -3.781616

siesta: Atomic forces (eV/Ang):
siesta:      1    3.554275   -3.711821   -0.000000
siesta:      2   -0.007672    0.035149    0.000000
siesta:      3    0.829744   -0.445948   -0.000000
siesta:      4    0.813520   -0.022655   -0.000000
siesta:      5    0.053989   -0.107374   -0.000000
siesta:      6    1.858617    0.646148    0.000000
siesta:      7    0.038431   -0.269951    0.000000
siesta:      8   -0.462213    0.315751   -0.000000
siesta:      9   -0.229769    1.347661   -0.000000
siesta:     10   -1.153958    0.383553   -0.000000
siesta:     11   -0.028057   -0.018641    0.000000
siesta:     12   -0.412499   -0.230616    0.000000
siesta:     13    0.005674   -0.023649   -0.000000
siesta:     14    0.149690   -0.002619   -0.000000
siesta:     15   -1.326469   -0.955780    0.000000
siesta:     16   -0.073779    0.158611    0.000000
siesta:     17    1.116874   -1.185341   -0.000000
siesta:     18   -0.235047    0.212631   -0.000000
siesta:     19   -0.187428   -1.365824    0.000000
siesta:     20   -0.009692   -0.462956   -0.000000
siesta:     21   -0.342132    1.128733    0.000000
siesta:     22   -2.262682   -0.866534    0.000000
siesta:     23    0.289369    0.638440    0.000000
siesta:     24    0.077640   -0.057403    0.000000
siesta:     25    0.088739    0.002812    0.000000
siesta:     26   -0.242136   -0.235761    0.000000
siesta:     27    1.719059    1.390226   -0.000000
siesta:     28   -2.624684    3.495417   -0.000000
siesta:     29    0.039245    0.098080    0.000000
siesta: ----------------------------------------
siesta:    Tot    1.036650   -0.109662   -0.000000

siesta: Stress tensor (static) (eV/Ang**3):
siesta:    -0.000006    0.000735   -0.000000
siesta:     0.000735    0.000797   -0.000000
siesta:     0.000000   -0.000000   -0.000053

siesta: Cell volume =       6217.997802 Ang**3

siesta: Pressure (static):
siesta:                Solid            Molecule  Units
siesta:          -0.00000268          0.00001764  Ry/Bohr**3
siesta:          -0.00024624          0.00161950  eV/Ang**3
siesta:          -0.39452177          2.59475008  kBar
(Free)E+ p_basis*V_orbitals  =       -4126.408514
(Free)Eharris+ p_basis*V_orbitals  =       -4126.408514
     spin moment: S , {S} =    0.00000  -0.00000  -0.00000   0.00000

siesta: Electric dipole (a.u.)  =    1.499845   -0.022062   -0.000000
siesta: Electric dipole (Debye) =    3.812227   -0.056076   -0.000000

cite: Please see "GC.bib" for an exhaustive BiBTeX file.
cite: Please clearly indicate Siesta version in published work: v4.1.5-1-g384057250
cite: This calculation has made use of the following articles
cite: which are encouraged to be cited in a published work.
        Primary SIESTA paper
          DOI: www.doi.org/10.1088/0953-8984/14/11/302
        Spin-orbit coupling (on-site approximation)
          DOI: www.doi.org/10.1088/0953-8984/19/19/489001


WARNING: alloc-realloc-dealloc name mismatch
         Name: atomlist isa
         Size:              -116. Bytes
         Node:     0
         Subsequent mismatches will not be reported
>> End of run:  28-JUN-2023  16:56:47
Job completed
