Siesta Version  : v4.1.5-1-g384057250
Architecture    : gcc
Compiler version: GNU Fortran (Ubuntu 11.3.0-1ubuntu1~22.04) 11.3.0
Compiler flags  : mpifort -O2 -fPIC -ftree-vectorize -fallow-argument-mismatch
PP flags        : -DFC_HAVE_ABORT -DMPI -DSIESTA__FLOOK -DSIESTA__METIS -DSIESTA__MUMPS -DCDF -DNCDF -DNCDF_4 -DNCDF_PARALLEL -DSIESTA__MRRR -DSIESTA__ELPA
Libraries       : libncdf.a libfdict.a  -lflookall -ldl -lnetcdff -lnetcdf -lhdf5_hl -lhdf5 -lhdf5_fortran -lz -lscalapack-openmpi -lopenblas -lmetis -lzmumps -lcmumps -ldmumps -lmumps_common -lpord -lsmumps -lesmumps -lscotch -lscotcherr -fopenmp -lelpa
PARALLEL version
NetCDF support
NetCDF-4 support
NetCDF-4 MPI-IO support
METIS ordering support
Lua support

* Running on 4 nodes in parallel
>> Start of run:  28-JUN-2023  20:36:31

                           ***********************       
                           *  WELCOME TO SIESTA  *       
                           ***********************       

reinit: Reading from standard input
reinit: Dumped input in INPUT_TMP.48834
************************** Dump of input data file ****************************
SystemLabel      GC
NumberOfAtoms    29
NumberOfSpecies  4
%block ChemicalSpeciesLabel
    1    8  O
    2    7  N
    3   14  Si
    4    1  H
%endblock ChemicalSpeciesLabel
# Single point calculation
MD.TypeOfRun                CG
MD.Steps                    0
SCF.MustConverge            F # In case it does not. There can be 2 very close atoms
AtomicCoordinatesFormat NotScaledCartesianAng
%block AtomicCoordinatesAndAtomicSpecies
1.043624880    3.939228610    0.000000000       1
-3.040641290   1.071078170    0.000000000       2
2.054601450    1.213582070    0.000000000       2
0.999014100    -1.732643800   0.000000000       2
-2.132351640   -1.812968220   0.000000000       2
3.860190550    -1.112298180   0.000000000       2
-1.236183220   1.152964460    0.000000000       3
-0.532924260   -0.939006270   0.000000000       3
0.635660470    2.374516770    0.000000000       3
2.245170240    -0.549967100   0.000000000       3
-3.449816660   -0.583665030   0.000000000       3
2.963714090    1.790992630    0.000000000       4
-4.845591350   -1.123549660   0.000000000       4
4.007020910    -2.152308560   0.000000000       4
4.772194380    -0.502318160   0.000000000       4
-2.265399090   -2.864605110   0.000000000       4
7.743410010    6.816720087    0.000000000       3
9.648293980    8.023359027    0.000000000       3
9.152539840    4.050385117    0.000000000       3
11.230010130   6.519602277    0.000000000       3
7.803032680    5.099292517    0.000000000       2
6.204274950    7.570397397    0.000000000       2
10.804835100   4.780222337    0.000000000       2
9.839638780    9.515512777    0.000000000       4
12.714378110   6.738333097    0.000000000       4
6.092929670    8.619592507    0.000000000       4
5.271717240    6.945483217    0.000000000       4
9.142313010    2.442273997    0.000000000       1
11.580260980   4.053530777    0.000000000       4
%endblock AtomicCoordinatesAndAtomicSpecies
%include ../../../Defaults.fdf
************************** End of input data file *****************************

reinit: -----------------------------------------------------------------------
reinit: System Name: 
reinit: -----------------------------------------------------------------------
reinit: System Label: GC
reinit: -----------------------------------------------------------------------

initatom: Reading input for the pseudopotentials and atomic orbitals ----------
Species number:   1 Atomic number:    8 Label: O
Species number:   2 Atomic number:    7 Label: N
Species number:   3 Atomic number:   14 Label: Si
Species number:   4 Atomic number:    1 Label: H

Ground state valence configuration:   2s02  2p04
Reading pseudopotential information in formatted form from O.psf

Pseudopotential generated from a relativistic atomic calculation

Valence configuration for pseudopotential generation:
2s( 2.00) rc: 0.45
2p( 4.00) rc: 0.92
3d( 0.00) rc: 2.24
4f( 0.00) rc: 0.25
Ground state valence configuration:   2s02  2p03
Reading pseudopotential information in formatted form from N.psf

Pseudopotential generated from a relativistic atomic calculation

Valence configuration for pseudopotential generation:
2s( 2.00) rc: 0.94
2p( 3.00) rc: 0.59
3d( 0.00) rc: 3.46
4f( 0.00) rc: 2.47
Ground state valence configuration:   3s02  3p02
Reading pseudopotential information in formatted form from Si.psf

Pseudopotential generated from a relativistic atomic calculation

Valence configuration for pseudopotential generation:
3s( 2.00) rc: 1.67
3p( 2.00) rc: 2.04
3d( 0.00) rc: 2.89
4f( 0.00) rc: 2.49
Ground state valence configuration:   1s01
Reading pseudopotential information in formatted form from H.psf

Pseudopotential generated from a relativistic atomic calculation

Valence configuration for pseudopotential generation:
1s( 1.00) rc: 0.01
2p( 0.00) rc: 0.60
3d( 0.00) rc: 1.99
4f( 0.00) rc: 2.49
For O, standard SIESTA heuristics set lmxkb to 3
 (one more than the basis l, including polarization orbitals).
Use PS.lmax or PS.KBprojectors blocks to override.
For N, standard SIESTA heuristics set lmxkb to 3
 (one more than the basis l, including polarization orbitals).
Use PS.lmax or PS.KBprojectors blocks to override.
For Si, standard SIESTA heuristics set lmxkb to 3
 (one more than the basis l, including polarization orbitals).
Use PS.lmax or PS.KBprojectors blocks to override.
For H, standard SIESTA heuristics set lmxkb to 2
 (one more than the basis l, including polarization orbitals).
Use PS.lmax or PS.KBprojectors blocks to override.

<basis_specs>
===============================================================================
O                    Z=   8    Mass=  16.000        Charge= 0.17977+309
Lmxo=1 Lmxkb= 3    BasisType=split      Semic=F
L=0  Nsemic=0  Cnfigmx=2
          i=1  nzeta=2  polorb=0  (2s)
            splnorm:   0.28000    
               vcte:    0.0000    
               rinn:    0.0000    
               qcoe:    0.0000    
               qyuk:    0.0000    
               qwid:   0.10000E-01
                rcs:    0.0000      0.0000    
            lambdas:    1.0000      1.0000    
L=1  Nsemic=0  Cnfigmx=2
          i=1  nzeta=2  polorb=1  (2p)
            splnorm:   0.28000    
               vcte:    0.0000    
               rinn:    0.0000    
               qcoe:    0.0000    
               qyuk:    0.0000    
               qwid:   0.10000E-01
                rcs:    0.0000      0.0000    
            lambdas:    1.0000      1.0000    
-------------------------------------------------------------------------------
L=0  Nkbl=1  erefs: 0.17977+309
L=1  Nkbl=1  erefs: 0.17977+309
L=2  Nkbl=1  erefs: 0.17977+309
L=3  Nkbl=1  erefs: 0.17977+309
===============================================================================
</basis_specs>

atom: Called for O                     (Z =   8)

read_vps: Pseudopotential generation method:
read_vps: ATM4.2.7  Troullier-Martins                       
Valence charge for ps generation:    6.00000

xc_check: Exchange-correlation functional:
xc_check: GGA Perdew, Burke & Ernzerhof 1996
V l=0 = -2*Zval/r beyond r=  1.1000
V l=1 = -2*Zval/r beyond r=  1.1000
V l=2 = -2*Zval/r beyond r=  2.2154
V l=3 = -2*Zval/r beyond r=  1.1000
All V_l potentials equal beyond r=  2.2154
This should be close to max(r_c) in ps generation
All pots = -2*Zval/r beyond r=  2.2154

VLOCAL1: 99.0% of the norm of Vloc inside      8.845 Ry
VLOCAL1: 99.9% of the norm of Vloc inside     20.157 Ry
atom: Maximum radius for 4*pi*r*r*local-pseudopot. charge    2.67231
atom: Maximum radius for r*vlocal+2*Zval:    2.32897
GHOST: No ghost state for L =  0
GHOST: No ghost state for L =  1
GHOST: No ghost state for L =  2
GHOST: No ghost state for L =  3

KBgen: Kleinman-Bylander projectors: 
   l= 0   rc=  2.243238   el= -1.759686   Ekb=**********   kbcos= -0.171774
   l= 1   rc=  2.328968   el= -0.663873   Ekb=-14.506792   kbcos= -0.519897
   l= 2   rc=  2.573941   el=  0.002031   Ekb= -1.137373   kbcos= -0.019581
   l= 3   rc=  2.606321   el=  0.003153   Ekb= -1.013546   kbcos= -0.003122

KBgen: Total number of Kleinman-Bylander projectors:   16
atom: -------------------------------------------------------------------------

atom: SANKEY-TYPE ORBITALS:
atom: Selected multiple-zeta basis: split     

SPLIT: Orbitals with angular momentum L= 0

SPLIT: Basis orbitals for state 2s

SPLIT: PAO cut-off radius determined from an
SPLIT: energy shift=  0.002000 Ry

   izeta = 1
                 lambda =    1.000000
                     rc =    4.243912
                 energy =   -1.758270
                kinetic =    3.286084
    potential(screened) =   -5.044353
       potential(ionic) =  -12.921184

   izeta = 2
                 rmatch =    2.187845
              splitnorm =    0.280000
                 energy =   -0.885018
                kinetic =    8.134434
    potential(screened) =   -9.019452
       potential(ionic) =  -17.710645

SPLIT: Orbitals with angular momentum L= 1

SPLIT: Basis orbitals for state 2p

SPLIT: PAO cut-off radius determined from an
SPLIT: energy shift=  0.002000 Ry

   izeta = 1
                 lambda =    1.000000
                     rc =    5.314825
                 energy =   -0.661986
                kinetic =    4.917472
    potential(screened) =   -5.579458
       potential(ionic) =  -13.236259

   izeta = 2
                 rmatch =    2.160663
              splitnorm =    0.280000
                 energy =   -0.068760
                kinetic =    9.183374
    potential(screened) =   -9.252135
       potential(ionic) =  -18.274251

POLgen: Perturbative polarization orbital with L=  2

POLgen: Polarization orbital for state 2p

   izeta = 1
                     rc =    5.314825
                 energy =    1.970580
                kinetic =    3.886128
    potential(screened) =   -1.915547
       potential(ionic) =   -7.749584
atom: Total number of Sankey-type orbitals: 13

atm_pop: Valence configuration (for local Pseudopot. screening):
 2s( 2.00)                                                            
 2p( 4.00)                                                            
Vna: chval, zval:    6.00000   6.00000

Vna:  Cut-off radius for the neutral-atom potential:   5.314825

atom: _________________________________________________________________________

<basis_specs>
===============================================================================
N                    Z=   7    Mass=  14.010        Charge= 0.17977+309
Lmxo=1 Lmxkb= 3    BasisType=split      Semic=F
L=0  Nsemic=0  Cnfigmx=2
          i=1  nzeta=2  polorb=0  (2s)
            splnorm:   0.28000    
               vcte:    0.0000    
               rinn:    0.0000    
               qcoe:    0.0000    
               qyuk:    0.0000    
               qwid:   0.10000E-01
                rcs:    0.0000      0.0000    
            lambdas:    1.0000      1.0000    
L=1  Nsemic=0  Cnfigmx=2
          i=1  nzeta=2  polorb=1  (2p)
            splnorm:   0.28000    
               vcte:    0.0000    
               rinn:    0.0000    
               qcoe:    0.0000    
               qyuk:    0.0000    
               qwid:   0.10000E-01
                rcs:    0.0000      0.0000    
            lambdas:    1.0000      1.0000    
-------------------------------------------------------------------------------
L=0  Nkbl=1  erefs: 0.17977+309
L=1  Nkbl=1  erefs: 0.17977+309
L=2  Nkbl=1  erefs: 0.17977+309
L=3  Nkbl=1  erefs: 0.17977+309
===============================================================================
</basis_specs>

atom: Called for N                     (Z =   7)

read_vps: Pseudopotential generation method:
read_vps: ATM4.2.7  Troullier-Martins                       
Valence charge for ps generation:    5.00000

xc_check: Exchange-correlation functional:
xc_check: GGA Perdew, Burke & Ernzerhof 1996
V l=0 = -2*Zval/r beyond r=  1.2889
V l=1 = -2*Zval/r beyond r=  1.2889
V l=2 = -2*Zval/r beyond r=  3.4178
V l=3 = -2*Zval/r beyond r=  2.4084
All V_l potentials equal beyond r=  3.3753
This should be close to max(r_c) in ps generation
All pots = -2*Zval/r beyond r=  3.4178

VLOCAL1: 99.0% of the norm of Vloc inside      3.810 Ry
VLOCAL1: 99.9% of the norm of Vloc inside      8.683 Ry
atom: Maximum radius for 4*pi*r*r*local-pseudopot. charge    4.02088
atom: Maximum radius for r*vlocal+2*Zval:    3.54838
GHOST: No ghost state for L =  0
GHOST: No ghost state for L =  1
GHOST: No ghost state for L =  2
GHOST: No ghost state for L =  3

KBgen: Kleinman-Bylander projectors: 
   l= 0   rc=  3.417763   el= -1.365098   Ekb= -4.433130   kbcos= -0.707855
   l= 1   rc=  3.375302   el= -0.521201   Ekb=-13.264039   kbcos= -0.535594
   l= 2   rc=  3.872880   el=  0.001991   Ekb= -0.641094   kbcos= -0.062456
   l= 3   rc=  3.970931   el=  0.003093   Ekb= -0.474517   kbcos= -0.018236

KBgen: Total number of Kleinman-Bylander projectors:   16
atom: -------------------------------------------------------------------------

atom: SANKEY-TYPE ORBITALS:
atom: Selected multiple-zeta basis: split     

SPLIT: Orbitals with angular momentum L= 0

SPLIT: Basis orbitals for state 2s

SPLIT: PAO cut-off radius determined from an
SPLIT: energy shift=  0.002000 Ry

   izeta = 1
                 lambda =    1.000000
                     rc =    4.730425
                 energy =   -1.363399
                kinetic =    1.245246
    potential(screened) =   -2.608645
       potential(ionic) =   -8.121105

   izeta = 2
                 rmatch =    2.531849
              splitnorm =    0.280000
                 energy =   -0.959908
                kinetic =    2.409435
    potential(screened) =   -3.369343
       potential(ionic) =   -9.427975

SPLIT: Orbitals with angular momentum L= 1

SPLIT: Basis orbitals for state 2p

SPLIT: PAO cut-off radius determined from an
SPLIT: energy shift=  0.002000 Ry

   izeta = 1
                 lambda =    1.000000
                     rc =    5.924108
                 energy =   -0.519262
                kinetic =    3.672940
    potential(screened) =   -4.192202
       potential(ionic) =   -9.518354

   izeta = 2
                 rmatch =    2.531849
              splitnorm =    0.280000
                 energy =   -0.104258
                kinetic =    6.807538
    potential(screened) =   -6.911796
       potential(ionic) =  -13.149920

POLgen: Perturbative polarization orbital with L=  2

POLgen: Polarization orbital for state 2p

   izeta = 1
                     rc =    5.924108
                 energy =    1.427508
                kinetic =    2.872379
    potential(screened) =   -1.444871
       potential(ionic) =   -5.563644
atom: Total number of Sankey-type orbitals: 13

atm_pop: Valence configuration (for local Pseudopot. screening):
 2s( 2.00)                                                            
 2p( 3.00)                                                            
Vna: chval, zval:    5.00000   5.00000

Vna:  Cut-off radius for the neutral-atom potential:   5.924108

atom: _________________________________________________________________________

<basis_specs>
===============================================================================
Si                   Z=  14    Mass=  28.090        Charge= 0.17977+309
Lmxo=1 Lmxkb= 3    BasisType=split      Semic=F
L=0  Nsemic=0  Cnfigmx=3
          i=1  nzeta=2  polorb=0  (3s)
            splnorm:   0.28000    
               vcte:    0.0000    
               rinn:    0.0000    
               qcoe:    0.0000    
               qyuk:    0.0000    
               qwid:   0.10000E-01
                rcs:    0.0000      0.0000    
            lambdas:    1.0000      1.0000    
L=1  Nsemic=0  Cnfigmx=3
          i=1  nzeta=2  polorb=1  (3p)
            splnorm:   0.28000    
               vcte:    0.0000    
               rinn:    0.0000    
               qcoe:    0.0000    
               qyuk:    0.0000    
               qwid:   0.10000E-01
                rcs:    0.0000      0.0000    
            lambdas:    1.0000      1.0000    
-------------------------------------------------------------------------------
L=0  Nkbl=1  erefs: 0.17977+309
L=1  Nkbl=1  erefs: 0.17977+309
L=2  Nkbl=1  erefs: 0.17977+309
L=3  Nkbl=1  erefs: 0.17977+309
===============================================================================
</basis_specs>

atom: Called for Si                    (Z =  14)

read_vps: Pseudopotential generation method:
read_vps: ATM4.2.7  Troullier-Martins                       
Valence charge for ps generation:    4.00000

xc_check: Exchange-correlation functional:
xc_check: GGA Perdew, Burke & Ernzerhof 1996
V l=0 = -2*Zval/r beyond r=  2.7826
V l=1 = -2*Zval/r beyond r=  2.7826
V l=2 = -2*Zval/r beyond r=  2.9253
V l=3 = -2*Zval/r beyond r=  2.7826
All V_l potentials equal beyond r=  2.8530
This should be close to max(r_c) in ps generation
All pots = -2*Zval/r beyond r=  2.9253

VLOCAL1: 99.0% of the norm of Vloc inside      5.333 Ry
VLOCAL1: 99.9% of the norm of Vloc inside     12.154 Ry
atom: Maximum radius for 4*pi*r*r*local-pseudopot. charge    3.39869
atom: Maximum radius for r*vlocal+2*Zval:    2.96205
GHOST: No ghost state for L =  0
GHOST: No ghost state for L =  1
GHOST: No ghost state for L =  2
GHOST: No ghost state for L =  3

KBgen: Kleinman-Bylander projectors: 
   l= 0   rc=  3.075247   el= -0.794092   Ekb=  5.879390   kbcos=  0.167461
   l= 1   rc=  3.153101   el= -0.300068   Ekb=  2.642817   kbcos=  0.058301
   l= 2   rc=  3.273594   el=  0.001958   Ekb= -1.185135   kbcos= -0.104411
   l= 3   rc=  3.232927   el=  0.003046   Ekb= -0.497174   kbcos= -0.015889

KBgen: Total number of Kleinman-Bylander projectors:   16
atom: -------------------------------------------------------------------------

atom: SANKEY-TYPE ORBITALS:
atom: Selected multiple-zeta basis: split     

SPLIT: Orbitals with angular momentum L= 0

SPLIT: Basis orbitals for state 3s

SPLIT: PAO cut-off radius determined from an
SPLIT: energy shift=  0.002000 Ry

   izeta = 1
                 lambda =    1.000000
                     rc =    6.429618
                 energy =   -0.792283
                kinetic =    0.525293
    potential(screened) =   -1.317576
       potential(ionic) =   -3.744923

   izeta = 2
                 rmatch =    3.998416
              splitnorm =    0.280000
                 energy =   -0.583081
                kinetic =    1.069570
    potential(screened) =   -1.652651
       potential(ionic) =   -4.235185

SPLIT: Orbitals with angular momentum L= 1

SPLIT: Basis orbitals for state 3p

SPLIT: PAO cut-off radius determined from an
SPLIT: energy shift=  0.002000 Ry

   izeta = 1
                 lambda =    1.000000
                     rc =    8.464845
                 energy =   -0.298236
                kinetic =    0.785360
    potential(screened) =   -1.083596
       potential(ionic) =   -3.273779

   izeta = 2
                 rmatch =    4.587816
              splitnorm =    0.280000
                 energy =   -0.131871
                kinetic =    1.403687
    potential(screened) =   -1.535557
       potential(ionic) =   -4.015310

POLgen: Perturbative polarization orbital with L=  2

POLgen: Polarization orbital for state 3p

   izeta = 1
                     rc =    8.464845
                 energy =    0.321949
                kinetic =    1.055677
    potential(screened) =   -0.733728
       potential(ionic) =   -2.672950
atom: Total number of Sankey-type orbitals: 13

atm_pop: Valence configuration (for local Pseudopot. screening):
 3s( 2.00)                                                            
 3p( 2.00)                                                            
Vna: chval, zval:    4.00000   4.00000

Vna:  Cut-off radius for the neutral-atom potential:   8.464845

atom: _________________________________________________________________________

<basis_specs>
===============================================================================
H                    Z=   1    Mass=  1.0100        Charge= 0.17977+309
Lmxo=0 Lmxkb= 2    BasisType=split      Semic=F
L=0  Nsemic=0  Cnfigmx=1
          i=1  nzeta=2  polorb=1  (1s)
            splnorm:   0.62000    
               vcte:    0.0000    
               rinn:    0.0000    
               qcoe:    0.0000    
               qyuk:    0.0000    
               qwid:   0.10000E-01
                rcs:    0.0000      0.0000    
            lambdas:    1.0000      1.0000    
-------------------------------------------------------------------------------
L=0  Nkbl=1  erefs: 0.17977+309
L=1  Nkbl=1  erefs: 0.17977+309
L=2  Nkbl=1  erefs: 0.17977+309
===============================================================================
</basis_specs>

atom: Called for H                     (Z =   1)

read_vps: Pseudopotential generation method:
read_vps: ATM4.2.7  Troullier-Martins                       
Valence charge for ps generation:    1.00000

xc_check: Exchange-correlation functional:
xc_check: GGA Perdew, Burke & Ernzerhof 1996
V l=0 = -2*Zval/r beyond r=  0.0098
V l=1 = -2*Zval/r beyond r=  0.5817
V l=2 = -2*Zval/r beyond r=  1.9372
All V_l potentials equal beyond r=  1.9372
This should be close to max(r_c) in ps generation
All pots = -2*Zval/r beyond r=  1.9372

VLOCAL1: 99.0% of the norm of Vloc inside     11.567 Ry
VLOCAL1: 99.9% of the norm of Vloc inside     26.362 Ry
atom: Maximum radius for 4*pi*r*r*local-pseudopot. charge    2.25106
atom: Maximum radius for r*vlocal+2*Zval:    1.91306
GHOST: No ghost state for L =  0
GHOST: No ghost state for L =  1
GHOST: No ghost state for L =  2

KBgen: Kleinman-Bylander projectors: 
   l= 0   rc=  2.036604   el= -0.477180   Ekb= -6.081590   kbcos= -0.277285
   l= 1   rc=  2.195416   el=  0.001076   Ekb= -0.926943   kbcos= -0.034643
   l= 2   rc=  2.251056   el=  0.002010   Ekb= -0.130941   kbcos= -0.009788

KBgen: Total number of Kleinman-Bylander projectors:    9
atom: -------------------------------------------------------------------------

atom: SANKEY-TYPE ORBITALS:
atom: Selected multiple-zeta basis: split     

SPLIT: Orbitals with angular momentum L= 0

SPLIT: Basis orbitals for state 1s

SPLIT: PAO cut-off radius determined from an
SPLIT: energy shift=  0.002000 Ry

   izeta = 1
                 lambda =    1.000000
                     rc =    6.518340
                 energy =   -0.475305
                kinetic =    0.912139
    potential(screened) =   -1.387444
       potential(ionic) =   -1.907295

   izeta = 2
                 rmatch =    2.141150
              splitnorm =    0.620000
                 energy =    0.566467
                kinetic =    3.772856
    potential(screened) =   -3.206389
       potential(ionic) =   -3.759093

POLgen: Perturbative polarization orbital with L=  1

POLgen: Polarization orbital for state 1s

   izeta = 1
                     rc =    6.518340
                 energy =    0.533861
                kinetic =    1.121086
    potential(screened) =   -0.587225
       potential(ionic) =   -1.053027
atom: Total number of Sankey-type orbitals:  5

atm_pop: Valence configuration (for local Pseudopot. screening):
 1s( 1.00)                                                            
Vna: chval, zval:    1.00000   1.00000

Vna:  Cut-off radius for the neutral-atom potential:   6.518340

atom: _________________________________________________________________________

prinput: Basis input ----------------------------------------------------------

PAO.BasisType split     

%block ChemicalSpeciesLabel
    1    8 O                       # Species index, atomic number, species label
    2    7 N                       # Species index, atomic number, species label
    3   14 Si                      # Species index, atomic number, species label
    4    1 H                       # Species index, atomic number, species label
%endblock ChemicalSpeciesLabel

%block PAO.Basis                 # Define Basis set
O                     2                    # Species label, number of l-shells
 n=2   0   2                         # n, l, Nzeta 
   4.244      2.188   
   1.000      1.000   
 n=2   1   2 P   1                   # n, l, Nzeta, Polarization, NzetaPol
   5.315      2.161   
   1.000      1.000   
N                     2                    # Species label, number of l-shells
 n=2   0   2                         # n, l, Nzeta 
   4.730      2.532   
   1.000      1.000   
 n=2   1   2 P   1                   # n, l, Nzeta, Polarization, NzetaPol
   5.924      2.532   
   1.000      1.000   
Si                    2                    # Species label, number of l-shells
 n=3   0   2                         # n, l, Nzeta 
   6.430      3.998   
   1.000      1.000   
 n=3   1   2 P   1                   # n, l, Nzeta, Polarization, NzetaPol
   8.465      4.588   
   1.000      1.000   
H                     1                    # Species label, number of l-shells
 n=1   0   2 P   1                   # n, l, Nzeta, Polarization, NzetaPol
   6.518      2.141   
   1.000      1.000   
%endblock PAO.Basis

prinput: ----------------------------------------------------------------------

Dumping basis to NetCDF file O.ion.nc
Dumping basis to NetCDF file N.ion.nc
Dumping basis to NetCDF file Si.ion.nc
Dumping basis to NetCDF file H.ion.nc
coor:   Atomic-coordinates input format  =     Cartesian coordinates
coor:                                          (in Angstroms)

siesta: Atomic coordinates (Bohr) and species
siesta:      1.97217   7.44407   0.00000  1        1
siesta:     -5.74598   2.02405   0.00000  2        2
siesta:      3.88264   2.29334   0.00000  2        3
siesta:      1.88786  -3.27422   0.00000  2        4
siesta:     -4.02956  -3.42601   0.00000  2        5
siesta:      7.29471  -2.10194   0.00000  2        6
siesta:     -2.33605   2.17879   0.00000  3        7
siesta:     -1.00708  -1.77447   0.00000  3        8
siesta:      1.20122   4.48719   0.00000  3        9
siesta:      4.24276  -1.03929   0.00000  3       10
siesta:     -6.51921  -1.10297   0.00000  3       11
siesta:      5.60061   3.38449   0.00000  4       12
siesta:     -9.15684  -2.12320   0.00000  4       13
siesta:      7.57218  -4.06728   0.00000  4       14
siesta:      9.01814  -0.94924   0.00000  4       15
siesta:     -4.28099  -5.41332   0.00000  4       16
siesta:     14.63293  12.88174   0.00000  3       17
siesta:     18.23264  15.16196   0.00000  3       18
siesta:     17.29580   7.65412   0.00000  3       19
siesta:     21.22165  12.32027   0.00000  3       20
siesta:     14.74560   9.63627   0.00000  2       21
siesta:     11.72439  14.30598   0.00000  2       22
siesta:     20.41819   9.03331   0.00000  2       23
siesta:     18.59423  17.98172   0.00000  4       24
siesta:     24.02670  12.73361   0.00000  4       25
siesta:     11.51397  16.28868   0.00000  4       26
siesta:      9.96211  13.12507   0.00000  4       27
siesta:     17.27647   4.61523   0.00000  1       28
siesta:     21.88353   7.66007   0.00000  4       29

siesta: Automatic unit cell vectors (Ang):
siesta:   26.904549    0.000000    0.000000
siesta:    0.000000   21.206712    0.000000
siesta:    0.000000    0.000000    9.854683

siesta: System type = molecule  

initatomlists: Number of atoms, orbitals, and projectors:     29   297   394

siesta: ******************** Simulation parameters ****************************
siesta:
siesta: The following are some of the parameters of the simulation.
siesta: A complete list of the parameters used, including default values,
siesta: can be found in file out.fdf
siesta:
redata: Spin configuration                          = spin-orbit
redata: Number of spin components                   = 8
redata: Time-Reversal Symmetry                      = F
redata: Spin spiral                                 = F
############################################################
This spin-orbit implementation uses a local approximation.
From 4.2 and onwards the full non-local approximation is implemented
You are strongly advised to use >=4.2 versions!
############################################################
redata: Long output                                 =   F
redata: Number of Atomic Species                    =        4
redata: Charge density info will appear in .RHO file
redata: Write Mulliken Pop.                         = Atomic and Orbital charges
redata: Matel table size (NRTAB)                    =     1024
redata: Mesh Cutoff                                 =   340.0000 Ry
redata: Net charge of the system                    =     0.0000 |e|
redata: Min. number of SCF Iter                     =        1
redata: Max. number of SCF Iter                     =      200
redata: SCF mix quantity                            = Hamiltonian
redata: Mix DM or H after convergence               =   F
redata: Recompute H after scf cycle                 =   F
redata: Mix DM in first SCF step                    =   T
redata: Write Pulay info on disk                    =   F
redata: New DM Occupancy tolerance                  = 0.000000000001
redata: No kicks to SCF
redata: DM Mixing Weight for Kicks                  =     0.5000
redata: Require Harris convergence for SCF          =   F
redata: Harris energy tolerance for SCF             =     0.000100 eV
redata: Require DM convergence for SCF              =   T
redata: DM tolerance for SCF                        =     0.000008
redata: Require EDM convergence for SCF             =   F
redata: EDM tolerance for SCF                       =     0.001000 eV
redata: Require H convergence for SCF               =   T
redata: Hamiltonian tolerance for SCF               =     0.000001 eV
redata: Require (free) Energy convergence for SCF   =   F
redata: (free) Energy tolerance for SCF             =     0.000100 eV
redata: Using Saved Data (generic)                  =   F
redata: Use continuation files for DM               =   F
redata: Neglect nonoverlap interactions             =   F
redata: Method of Calculation                       = Diagonalization
redata: Electronic Temperature                      =   299.9978 K
redata: Fix the spin of the system                  =   F
redata: Dynamics option                             = Single-point calculation
mix.SCF: Pulay mixing                            = Pulay
mix.SCF:    Variant                              = stable
mix.SCF:    History steps                        = 6
mix.SCF:    Linear mixing weight                 =     0.250000
mix.SCF:    Mixing weight                        =     0.250000
mix.SCF:    SVD condition                        = 0.1000E-07
mix.SCF:    Restart steps                        = 24
mix.SCF:    Restart save steps                   = 3
mix.SCF: Spin-component mixing                   all
redata: Save all siesta data in one NC              =   F
redata: ***********************************************************************

%block SCF.Mixers
  Pulay
%endblock SCF.Mixers

%block SCF.Mixer.Pulay
  # Mixing method
  method pulay
  variant stable

  # Mixing options
  weight 0.2500
  weight.linear 0.2500
  history 6
  restart 24
  restart.save 3
%endblock SCF.Mixer.Pulay

DM_history_depth set to one: no extrapolation allowed by default for geometry relaxation
Size of DM history Fstack: 1
Total number of electrons:    98.000000
Total ionic charge:    98.000000

* ProcessorY, Blocksize:    2  24


* Orbital distribution balance (max,min):    81    72


Time-reversal symmetry not used.

siesta: k-grid: Number of k-points =     1
siesta: k-grid: Cutoff (effective) =     4.927 Ang
siesta: k-grid: Supercell and displacements
siesta: k-grid:    1   0   0      0.000
siesta: k-grid:    0   1   0      0.000
siesta: k-grid:    0   0   1      0.000

diag: Algorithm                                     = ELPA-1stage
diag: Parallel over k                               =   F
diag: Use parallel 2D distribution                  =   T
diag: Parallel block-size                           = 24
diag: Parallel distribution                         =     2 x     2
diag: Used triangular part                          = Lower
diag: Absolute tolerance                            =  0.100E-15
diag: Orthogonalization factor                      =  0.100E-05
diag: Memory factor                                 =  1.0000


ts: **************************************************************
ts: Save H and S matrices                           =    F
ts: Save DM and EDM matrices                        =    F
ts: Only save the overlap matrix S                  =    F
ts: **************************************************************

************************ Begin: TS CHECKS AND WARNINGS ************************
************************ End: TS CHECKS AND WARNINGS **************************


                     ====================================
                        Single-point calculation
                     ====================================

outcoor: Atomic coordinates (Ang):                          
    1.04362488    3.93922861    0.00000000   1       1  O
   -3.04064129    1.07107817    0.00000000   2       2  N
    2.05460145    1.21358207    0.00000000   2       3  N
    0.99901410   -1.73264380    0.00000000   2       4  N
   -2.13235164   -1.81296822    0.00000000   2       5  N
    3.86019055   -1.11229818    0.00000000   2       6  N
   -1.23618322    1.15296446    0.00000000   3       7  Si
   -0.53292426   -0.93900627    0.00000000   3       8  Si
    0.63566047    2.37451677    0.00000000   3       9  Si
    2.24517024   -0.54996710    0.00000000   3      10  Si
   -3.44981666   -0.58366503    0.00000000   3      11  Si
    2.96371409    1.79099263    0.00000000   4      12  H
   -4.84559135   -1.12354966    0.00000000   4      13  H
    4.00702091   -2.15230856    0.00000000   4      14  H
    4.77219438   -0.50231816    0.00000000   4      15  H
   -2.26539909   -2.86460511    0.00000000   4      16  H
    7.74341001    6.81672009    0.00000000   3      17  Si
    9.64829398    8.02335903    0.00000000   3      18  Si
    9.15253984    4.05038512    0.00000000   3      19  Si
   11.23001013    6.51960228    0.00000000   3      20  Si
    7.80303268    5.09929252    0.00000000   2      21  N
    6.20427495    7.57039740    0.00000000   2      22  N
   10.80483510    4.78022234    0.00000000   2      23  N
    9.83963878    9.51551278    0.00000000   4      24  H
   12.71437811    6.73833310    0.00000000   4      25  H
    6.09292967    8.61959251    0.00000000   4      26  H
    5.27171724    6.94548322    0.00000000   4      27  H
    9.14231301    2.44227400    0.00000000   1      28  O
   11.58026098    4.05353078    0.00000000   4      29  H

outcell: Unit cell vectors (Ang):
       26.904549    0.000000    0.000000
        0.000000   21.206712    0.000000
        0.000000    0.000000    9.854683

outcell: Cell vector modules (Ang)   :   26.904549   21.206712    9.854683
outcell: Cell angles (23,13,12) (deg):     90.0000     90.0000     90.0000
outcell: Cell volume (Ang**3)        :   5622.6589
<dSpData1D:S at geom step 0
  <sparsity:sparsity for geom step 0
    nrows_g=297 nrows=81 sparsity=.1424 nnzs=12565, refcount: 8>
  <dData1D:(new from dSpData1D) n=12565, refcount: 1>
refcount: 1>
new_DM -- step:     1
Initializing Density Matrix...
DM filled with atomic data:
<dSpData2D:DM initialized from atoms
  <sparsity:sparsity for geom step 0
    nrows_g=297 nrows=81 sparsity=.1424 nnzs=12565, refcount: 9>
  <dData2D:DM n=12565 m=8, refcount: 1>
refcount: 1>
     spin moment: S , {S} =   56.00000   0.00000   0.00000  56.00000
No. of atoms with KB's overlaping orbs in proc 0. Max # of overlaps:      29     142

Initializing spin-orbit part of the Hamiltonian
  Adding spin-orbit effects for O 
  Adding spin-orbit effects for N 
  Adding spin-orbit effects for Si
  Adding spin-orbit effects for H 


New grid distribution:   1
           1       1:  150    1:   60    1:   30
           2       1:  150    1:   60   31:   60
           3       1:  150   61:  120    1:   30
           4       1:  150   61:  120   31:   60

InitMesh: MESH =   300 x   240 x   120 =     8640000
InitMesh: (bp) =   150 x   120 x    60 =     1080000
InitMesh: Mesh cutoff (required, used) =   340.000   343.631 Ry
ExtMesh (bp) on 0 =   250 x   164 x   142 =     5822000
New grid distribution:   2
           1      52:  150    1:   34    1:   60
           2       1:   51    1:   35    1:   60
           3      52:  150   35:  120    1:   60
           4       1:   51   36:  120    1:   60
New grid distribution:   3
           1      54:  150    1:   38    1:   60
           2       1:   53    1:   39    1:   60
           3      54:  150   39:  120    1:   60
           4       1:   53   40:  120    1:   60
Setting up quadratic distribution...
ExtMesh (bp) on 0 =   199 x   138 x   172 =     4723464
PhiOnMesh: Number of (b)points on node 0 =               201960
PhiOnMesh: nlist on node 0 =              2394234

stepf: Fermi-Dirac step function

siesta: Program's energy decomposition (eV):
siesta: Ebs     =      -622.580965
siesta: Eions   =      3585.165840
siesta: Ena     =       382.019161
siesta: Ekin    =      3369.409156
siesta: Enl     =     -3297.992320
siesta: Eso     =        -0.003411
siesta: Edftu   =         0.000000
siesta: DEna    =       153.686360
siesta: DUscf   =        81.848650
siesta: DUext   =         0.000000
siesta: Exc     =     -1204.060393
siesta: eta*DQ  =         0.000000
siesta: Emadel  =         0.000000
siesta: Emeta   =         0.000000
siesta: Emolmec =         0.000000
siesta: Ekinion =         0.000000
siesta: Eharris =     -4020.363405
siesta: Etot    =     -4100.258637
siesta: FreeEng =     -4100.260059

        iscf     Eharris(eV)        E_KS(eV)     FreeEng(eV)     dDmax    Ef(eV) dHmax(eV)
   scf:    1    -4020.363405    -4100.258637    -4100.260059  0.964967 -4.904576 21.834326
     spin moment: S , {S} =    2.00725  -0.00000   0.00000   2.00725
timer: Routine,Calls,Time,% = IterSCF        1      12.187  17.35
   scf:    2    -4146.959841    -4135.721909    -4135.723673  0.450746 -4.227660 11.755523
     spin moment: S , {S} =    1.98936   0.00000   0.00000   1.98936
   scf:    3    -4106.850145    -4133.136727    -4133.152575  0.421355 -4.337037 12.045090
     spin moment: S , {S} =    2.10919  -0.00000   0.00000   2.10919
   scf:    4    -4149.562680    -4144.828219    -4144.828219  0.316779 -3.904929  7.148996
     spin moment: S , {S} =    0.00010  -0.00000  -0.00000   0.00010
   scf:    5    -4146.176464    -4145.608108    -4145.608108  0.036531 -3.714206  4.562991
     spin moment: S , {S} =    0.00006  -0.00000  -0.00000   0.00006
   scf:    6    -4146.382523    -4146.004798    -4146.004798  0.024312 -3.589827  2.229289
     spin moment: S , {S} =    0.00003  -0.00000   0.00000   0.00003
   scf:    7    -4146.360166    -4146.178904    -4146.178904  0.021541 -3.805686  0.885001
     spin moment: S , {S} =    0.00001   0.00000  -0.00000   0.00001
   scf:    8    -4146.298304    -4146.236611    -4146.236611  0.012303 -3.735583  0.505334
     spin moment: S , {S} =    0.00000  -0.00000  -0.00000   0.00000
   scf:    9    -4146.275150    -4146.255196    -4146.255196  0.006515 -3.692121  0.382944
     spin moment: S , {S} =    0.00000  -0.00000  -0.00000   0.00000
   scf:   10    -4146.306837    -4146.274616    -4146.274616  0.021777 -3.796848  0.233270
     spin moment: S , {S} =    0.00000   0.00000   0.00000  -0.00000
   scf:   11    -4146.278422    -4146.276523    -4146.276523  0.005652 -3.785381  0.061793
     spin moment: S , {S} =    0.00000   0.00000   0.00000  -0.00000
   scf:   12    -4146.277673    -4146.277111    -4146.277111  0.000980 -3.778417  0.027440
     spin moment: S , {S} =    0.00000   0.00000   0.00000  -0.00000
   scf:   13    -4146.277596    -4146.277351    -4146.277351  0.001244 -3.777926  0.017987
     spin moment: S , {S} =    0.00000   0.00000   0.00000  -0.00000
   scf:   14    -4146.277609    -4146.277474    -4146.277474  0.000993 -3.775136  0.010585
     spin moment: S , {S} =    0.00000   0.00000   0.00000  -0.00000
   scf:   15    -4146.277575    -4146.277521    -4146.277521  0.000833 -3.776683  0.007933
     spin moment: S , {S} =    0.00000   0.00000   0.00000   0.00000
   scf:   16    -4146.277592    -4146.277552    -4146.277552  0.000928 -3.776058  0.005476
     spin moment: S , {S} =    0.00000   0.00000   0.00000   0.00000
   scf:   17    -4146.277568    -4146.277560    -4146.277560  0.000398 -3.776002  0.004160
     spin moment: S , {S} =    0.00000   0.00000   0.00000   0.00000
   scf:   18    -4146.277569    -4146.277564    -4146.277564  0.000331 -3.776213  0.002574
     spin moment: S , {S} =    0.00000   0.00000   0.00000   0.00000
   scf:   19    -4146.277568    -4146.277566    -4146.277566  0.000235 -3.776363  0.001744
     spin moment: S , {S} =    0.00000   0.00000   0.00000   0.00000
   scf:   20    -4146.277568    -4146.277567    -4146.277567  0.000169 -3.776372  0.001114
     spin moment: S , {S} =    0.00000   0.00000   0.00000   0.00000
   scf:   21    -4146.277568    -4146.277567    -4146.277567  0.000182 -3.776345  0.000468
     spin moment: S , {S} =    0.00000   0.00000   0.00000   0.00000
   scf:   22    -4146.277568    -4146.277567    -4146.277567  0.000084 -3.776313  0.000197
     spin moment: S , {S} =    0.00000   0.00000   0.00000   0.00000
   scf:   23    -4146.277567    -4146.277567    -4146.277567  0.000021 -3.776311  0.000146
     spin moment: S , {S} =    0.00000   0.00000   0.00000   0.00000
   scf:   24    -4146.277567    -4146.277567    -4146.277567  0.000008 -3.776316  0.000071
     spin moment: S , {S} =    0.00000   0.00000   0.00000   0.00000
mix: Pulay -- resetting history
   scf:   25    -4146.277567    -4146.277567    -4146.277567  0.000004 -3.776319  0.000038
     spin moment: S , {S} =    0.00000   0.00000   0.00000   0.00000
   scf:   26    -4146.277567    -4146.277567    -4146.277567  0.000002 -3.776319  0.000030
     spin moment: S , {S} =    0.00000   0.00000   0.00000   0.00000
   scf:   27    -4146.277567    -4146.277567    -4146.277567  0.000002 -3.776316  0.000016
     spin moment: S , {S} =    0.00000   0.00000   0.00000   0.00000
   scf:   28    -4146.277567    -4146.277567    -4146.277567  0.000001 -3.776315  0.000010
     spin moment: S , {S} =    0.00000   0.00000   0.00000  -0.00000
   scf:   29    -4146.277567    -4146.277567    -4146.277567  0.000001 -3.776314  0.000006
     spin moment: S , {S} =    0.00000   0.00000   0.00000  -0.00000
   scf:   30    -4146.277567    -4146.277567    -4146.277567  0.000001 -3.776314  0.000003
     spin moment: S , {S} =    0.00000   0.00000   0.00000  -0.00000
   scf:   31    -4146.277567    -4146.277567    -4146.277567  0.000000 -3.776315  0.000002
     spin moment: S , {S} =    0.00000   0.00000   0.00000  -0.00000
   scf:   32    -4146.277567    -4146.277567    -4146.277567  0.000000 -3.776315  0.000001
     spin moment: S , {S} =    0.00000   0.00000   0.00000  -0.00000
   scf:   33    -4146.277567    -4146.277567    -4146.277567  0.000000 -3.776315  0.000001
     spin moment: S , {S} =    0.00000   0.00000   0.00000  -0.00000

SCF Convergence by DM+H criterion
max |DM_out - DM_in|         :     0.0000001106
max |H_out - H_in|      (eV) :     0.0000006196
SCF cycle converged after 33 iterations

Using DM_out to compute the final energy and forces
No. of atoms with KB's overlaping orbs in proc 0. Max # of overlaps:      29     142

siesta: E_KS(eV) =            -4146.2776

siesta: E_KS - E_eggbox =     -4146.2776
     spin moment: S , {S} =    0.00000   0.00000   0.00000  -0.00000

siesta: Atomic forces (eV/Ang):
     1    3.354182    1.668528    0.000000
     2    0.046881    0.052805   -0.000000
     3    0.782596   -0.423052    0.000000
     4    0.770769   -0.016503    0.000000
     5    0.060656   -0.099788   -0.000000
     6    1.826598    0.657138    0.000000
     7    0.041782   -0.263909    0.000000
     8   -0.436163    0.301862   -0.000000
     9   -0.205005    1.312435   -0.000000
    10   -1.085135    0.371533   -0.000000
    11   -0.025379   -0.020129    0.000000
    12   -0.388180   -0.300310   -0.000000
    13    0.034480   -0.085471    0.000000
    14    0.237455   -0.051094   -0.000000
    15   -1.378722   -0.948254   -0.000000
    16   -0.034835    0.151295   -0.000000
    17    1.061857   -1.145952    0.000000
    18   -0.225025    0.205357    0.000000
    19   -0.194805   -1.313775   -0.000000
    20   -0.012097   -0.437387    0.000000
    21   -0.327475    1.066201    0.000000
    22   -2.222370   -0.891435   -0.000000
    23    0.267141    0.577220    0.000000
    24    0.137054   -0.001524   -0.000000
    25    0.129716   -0.029755   -0.000000
    26   -0.251177   -0.166900    0.000000
    27    1.707302    1.405936    0.000000
    28    1.509617    2.206651   -0.000000
    29   -0.149745    0.189009    0.000000
----------------------------------------
   Tot    5.031969    3.970732    0.000000
----------------------------------------
   Max    3.354182
   Res    0.757113    sqrt( Sum f_i^2 / 3N )
----------------------------------------
   Max    3.354182    constrained

Stress tensor Voigt[x,y,z,yz,xz,xy] (kbar):        0.02        1.60       -0.08       -0.00       -0.00        1.33
(Free)E + p*V (eV/cell)    -4148.0774
Target enthalpy (eV/cell)    -4146.2776

mulliken: Atomic and Orbital Populations:

Species: O                   

Atom      Orb        Charge      Spin       Svec
----------------------------------------------------------------
    1  1 2s         1.75483   0.00000      0.000  -0.000  -0.000
    1  2 2s         0.05966   0.00000     -0.000   0.000   0.000
    1  3 2py        1.42646   0.00000     -0.000   0.000  -0.000
    1  4 2pz        1.54352   0.00000     -0.000  -0.000  -0.000
    1  5 2px        1.62495   0.00000     -0.000  -0.000  -0.000
    1  6 2py        0.03914   0.00000      0.000  -0.000   0.000
    1  7 2pz       -0.00642   0.00000      0.000   0.000   0.000
    1  8 2px        0.00664   0.00000      0.000   0.000   0.000
    1  9 3Pdxy      0.00707   0.00000     -0.000  -0.000   0.000
    1 10 3Pdyz      0.00909   0.00000      0.000  -0.000   0.000
    1 11 3Pdz2      0.00161   0.00000     -0.000   0.000   0.000
    1 12 3Pdxz      0.00038   0.00000      0.000  -0.000   0.000
    1 13 3Pdx2-y2   0.00699   0.00000     -0.000  -0.000   0.000
    1     Total     6.47393   0.00000     -0.000  -0.000  -0.000

   28  1 2s         1.74563   0.00000      0.000  -0.000   0.000
   28  2 2s         0.06776   0.00000     -0.000  -0.000  -0.000
   28  3 2py        1.40806   0.00000     -0.000  -0.000  -0.000
   28  4 2pz        1.54294   0.00000      0.000  -0.000  -0.000
   28  5 2px        1.64516   0.00000      0.000   0.000  -0.000
   28  6 2py        0.04241   0.00000     -0.000  -0.000   0.000
   28  7 2pz       -0.00438   0.00000     -0.000  -0.000  -0.000
   28  8 2px        0.00974   0.00000     -0.000  -0.000   0.000
   28  9 3Pdxy      0.00645   0.00000      0.000  -0.000   0.000
   28 10 3Pdyz      0.00977   0.00000     -0.000   0.000  -0.000
   28 11 3Pdz2      0.00126   0.00000     -0.000   0.000  -0.000
   28 12 3Pdxz     -0.00018   0.00000     -0.000  -0.000   0.000
   28 13 3Pdx2-y2   0.00771   0.00000      0.000   0.000  -0.000
   28     Total     6.48232   0.00000      0.000  -0.000  -0.000

----------------------------------------------------------------
Total              12.95626   0.00000      0.000  -0.000  -0.000


Species: N                   

Atom      Orb        Charge      Spin       Svec
----------------------------------------------------------------
    2  1 2s         1.55135   0.00000     -0.000   0.000  -0.000
    2  2 2s         0.08418   0.00000      0.000  -0.000   0.000
    2  3 2py        1.04374   0.00000     -0.000   0.000  -0.000
    2  4 2pz        1.22420   0.00000     -0.000  -0.000  -0.000
    2  5 2px        0.98955   0.00000     -0.000  -0.000  -0.000
    2  6 2py        0.18848   0.00000     -0.000  -0.000   0.000
    2  7 2pz        0.05541   0.00000      0.000   0.000   0.000
    2  8 2px        0.19590   0.00000     -0.000   0.000   0.000
    2  9 3Pdxy      0.00839   0.00000     -0.000  -0.000   0.000
    2 10 3Pdyz      0.01099   0.00000     -0.000  -0.000   0.000
    2 11 3Pdz2      0.00195   0.00000      0.000  -0.000   0.000
    2 12 3Pdxz      0.00758   0.00000      0.000   0.000   0.000
    2 13 3Pdx2-y2   0.00909   0.00000      0.000   0.000  -0.000
    2     Total     5.37080   0.00000     -0.000  -0.000  -0.000

    3  1 2s         1.40077   0.00000     -0.000   0.000  -0.000
    3  2 2s         0.11636   0.00000      0.000  -0.000   0.000
    3  3 2py        0.94152   0.00000     -0.000   0.000  -0.000
    3  4 2pz        1.54360   0.00000      0.000   0.000  -0.000
    3  5 2px        1.08173   0.00000      0.000  -0.000  -0.000
    3  6 2py        0.24856   0.00000     -0.000  -0.000   0.000
    3  7 2pz        0.00725   0.00000     -0.000  -0.000   0.000
    3  8 2px        0.17860   0.00000     -0.000   0.000   0.000
    3  9 3Pdxy      0.00399   0.00000     -0.000  -0.000   0.000
    3 10 3Pdyz      0.00418   0.00000      0.000  -0.000   0.000
    3 11 3Pdz2      0.00075   0.00000     -0.000   0.000   0.000
    3 12 3Pdxz      0.00279   0.00000      0.000   0.000  -0.000
    3 13 3Pdx2-y2   0.00284   0.00000     -0.000  -0.000  -0.000
    3     Total     5.53292   0.00000     -0.000   0.000  -0.000

    4  1 2s         1.45981   0.00000      0.000   0.000  -0.000
    4  2 2s         0.11891   0.00000      0.000  -0.000   0.000
    4  3 2py        1.13092   0.00000     -0.000  -0.000  -0.000
    4  4 2pz        1.29466   0.00000      0.000  -0.000  -0.000
    4  5 2px        0.82595   0.00000      0.000   0.000  -0.000
    4  6 2py        0.14951   0.00000      0.000   0.000   0.000
    4  7 2pz        0.05361   0.00000      0.000  -0.000   0.000
    4  8 2px        0.29230   0.00000     -0.000  -0.000   0.000
    4  9 3Pdxy      0.00869   0.00000     -0.000   0.000   0.000
    4 10 3Pdyz      0.01045   0.00000     -0.000  -0.000   0.000
    4 11 3Pdz2      0.00126   0.00000     -0.000  -0.000   0.000
    4 12 3Pdxz      0.00498   0.00000      0.000  -0.000  -0.000
    4 13 3Pdx2-y2   0.00797   0.00000     -0.000  -0.000  -0.000
    4     Total     5.35903   0.00000      0.000  -0.000  -0.000

    5  1 2s         1.37627   0.00000      0.000  -0.000  -0.000
    5  2 2s         0.12792   0.00000     -0.000   0.000   0.000
    5  3 2py        1.02642   0.00000      0.000  -0.000  -0.000
    5  4 2pz        1.50086   0.00000      0.000   0.000  -0.000
    5  5 2px        1.06001   0.00000     -0.000  -0.000  -0.000
    5  6 2py        0.20357   0.00000     -0.000   0.000   0.000
    5  7 2pz        0.01341   0.00000     -0.000  -0.000   0.000
    5  8 2px        0.20095   0.00000      0.000   0.000   0.000
    5  9 3Pdxy      0.00393   0.00000     -0.000   0.000   0.000
    5 10 3Pdyz      0.00241   0.00000      0.000   0.000   0.000
    5 11 3Pdz2      0.00143   0.00000     -0.000  -0.000   0.000
    5 12 3Pdxz      0.00685   0.00000     -0.000  -0.000   0.000
    5 13 3Pdx2-y2   0.00560   0.00000     -0.000  -0.000   0.000
    5     Total     5.52963   0.00000      0.000   0.000  -0.000

    6  1 2s         1.26979   0.00000      0.000   0.000  -0.000
    6  2 2s         0.17908   0.00000     -0.000  -0.000   0.000
    6  3 2py        1.07693   0.00000      0.000   0.000  -0.000
    6  4 2pz        1.57417   0.00000      0.000   0.000  -0.000
    6  5 2px        0.95582   0.00000     -0.000   0.000  -0.000
    6  6 2py        0.18790   0.00000     -0.000  -0.000   0.000
    6  7 2pz        0.02986   0.00000     -0.000  -0.000   0.000
    6  8 2px        0.25564   0.00000      0.000  -0.000   0.000
    6  9 3Pdxy      0.00246   0.00000      0.000  -0.000   0.000
    6 10 3Pdyz      0.00016   0.00000      0.000  -0.000  -0.000
    6 11 3Pdz2      0.00177   0.00000     -0.000   0.000   0.000
    6 12 3Pdxz      0.00326   0.00000      0.000  -0.000   0.000
    6 13 3Pdx2-y2   0.00396   0.00000      0.000  -0.000  -0.000
    6     Total     5.54078   0.00000      0.000   0.000  -0.000

   21  1 2s         1.42435   0.00000      0.000  -0.000   0.000
   21  2 2s         0.12797   0.00000     -0.000   0.000  -0.000
   21  3 2py        0.87115   0.00000      0.000   0.000  -0.000
   21  4 2pz        1.29443   0.00000      0.000  -0.000  -0.000
   21  5 2px        1.15647   0.00000      0.000  -0.000  -0.000
   21  6 2py        0.27563   0.00000     -0.000  -0.000   0.000
   21  7 2pz        0.04897   0.00000     -0.000   0.000   0.000
   21  8 2px        0.16321   0.00000     -0.000  -0.000   0.000
   21  9 3Pdxy      0.00649   0.00000      0.000  -0.000   0.000
   21 10 3Pdyz      0.00508   0.00000      0.000   0.000  -0.000
   21 11 3Pdz2      0.00017   0.00000     -0.000   0.000  -0.000
   21 12 3Pdxz      0.00576   0.00000      0.000  -0.000  -0.000
   21 13 3Pdx2-y2   0.00561   0.00000     -0.000   0.000  -0.000
   21     Total     5.38530   0.00000      0.000  -0.000  -0.000

   22  1 2s         1.29467   0.00000      0.000   0.000   0.000
   22  2 2s         0.16765   0.00000     -0.000  -0.000  -0.000
   22  3 2py        1.05689   0.00000     -0.000   0.000  -0.000
   22  4 2pz        1.55751   0.00000      0.000   0.000  -0.000
   22  5 2px        0.98299   0.00000      0.000   0.000  -0.000
   22  6 2py        0.19648   0.00000      0.000  -0.000   0.000
   22  7 2pz        0.02829   0.00000     -0.000  -0.000  -0.000
   22  8 2px        0.23488   0.00000     -0.000  -0.000   0.000
   22  9 3Pdxy      0.00330   0.00000     -0.000  -0.000   0.000
   22 10 3Pdyz      0.00035   0.00000     -0.000  -0.000  -0.000
   22 11 3Pdz2      0.00256   0.00000     -0.000  -0.000  -0.000
   22 12 3Pdxz      0.00316   0.00000     -0.000   0.000   0.000
   22 13 3Pdx2-y2   0.00476   0.00000      0.000  -0.000  -0.000
   22     Total     5.53351   0.00000      0.000   0.000  -0.000

   23  1 2s         1.39703   0.00000     -0.000   0.000  -0.000
   23  2 2s         0.11797   0.00000      0.000  -0.000  -0.000
   23  3 2py        1.00659   0.00000      0.000   0.000  -0.000
   23  4 2pz        1.52457   0.00000     -0.000   0.000  -0.000
   23  5 2px        1.06478   0.00000      0.000  -0.000  -0.000
   23  6 2py        0.21168   0.00000     -0.000  -0.000   0.000
   23  7 2pz        0.00498   0.00000      0.000  -0.000   0.000
   23  8 2px        0.19808   0.00000     -0.000   0.000   0.000
   23  9 3Pdxy      0.00528   0.00000      0.000  -0.000   0.000
   23 10 3Pdyz      0.00445   0.00000      0.000   0.000  -0.000
   23 11 3Pdz2      0.00060   0.00000     -0.000   0.000   0.000
   23 12 3Pdxz      0.00243   0.00000     -0.000   0.000  -0.000
   23 13 3Pdx2-y2   0.00137   0.00000     -0.000  -0.000  -0.000
   23     Total     5.53982   0.00000      0.000   0.000  -0.000

----------------------------------------------------------------
Total              56.74806   0.00000      0.000   0.000  -0.000


Species: Si                  

Atom      Orb        Charge      Spin       Svec
----------------------------------------------------------------
    7  1 3s         0.66773   0.00000     -0.000   0.000   0.000
    7  2 3s         0.36499   0.00000     -0.000   0.000   0.000
    7  3 3py        0.48793   0.00000      0.000   0.000   0.000
    7  4 3pz        0.69035   0.00000     -0.000   0.000   0.000
    7  5 3px        0.12488   0.00000      0.000  -0.000  -0.000
    7  6 3py        0.26456   0.00000     -0.000  -0.000   0.000
    7  7 3pz        0.25913   0.00000      0.000   0.000   0.000
    7  8 3px        0.43840   0.00000     -0.000   0.000   0.000
    7  9 3Pdxy      0.24565   0.00000     -0.000   0.000   0.000
    7 10 3Pdyz      0.02940   0.00000     -0.000   0.000   0.000
    7 11 3Pdz2      0.01175   0.00000      0.000   0.000   0.000
    7 12 3Pdxz      0.14563   0.00000     -0.000  -0.000  -0.000
    7 13 3Pdx2-y2   0.11292   0.00000      0.000   0.000  -0.000
    7     Total     3.84333   0.00000      0.000   0.000   0.000

    8  1 3s         0.65680   0.00000     -0.000  -0.000  -0.000
    8  2 3s         0.36851   0.00000      0.000   0.000   0.000
    8  3 3py        0.38794   0.00000      0.000  -0.000  -0.000
    8  4 3pz        0.52602   0.00000      0.000  -0.000  -0.000
    8  5 3px       -0.03080   0.00000      0.000   0.000   0.000
    8  6 3py        0.30890   0.00000      0.000  -0.000   0.000
    8  7 3pz        0.20191   0.00000      0.000   0.000   0.000
    8  8 3px        0.51460   0.00000     -0.000  -0.000  -0.000
    8  9 3Pdxy      0.24588   0.00000     -0.000   0.000   0.000
    8 10 3Pdyz      0.11218   0.00000      0.000   0.000  -0.000
    8 11 3Pdz2      0.01453   0.00000      0.000   0.000   0.000
    8 12 3Pdxz      0.15321   0.00000      0.000   0.000   0.000
    8 13 3Pdx2-y2   0.20021   0.00000      0.000   0.000   0.000
    8     Total     3.65991   0.00000      0.000  -0.000   0.000

    9  1 3s         0.60398   0.00000      0.000  -0.000   0.000
    9  2 3s         0.36630   0.00000     -0.000   0.000  -0.000
    9  3 3py        0.07541   0.00000     -0.000   0.000   0.000
    9  4 3pz        0.48503   0.00000     -0.000  -0.000  -0.000
    9  5 3px        0.37811   0.00000     -0.000   0.000  -0.000
    9  6 3py        0.44721   0.00000      0.000  -0.000  -0.000
    9  7 3pz        0.18756   0.00000      0.000   0.000  -0.000
    9  8 3px        0.27359   0.00000      0.000  -0.000   0.000
    9  9 3Pdxy      0.31191   0.00000      0.000  -0.000   0.000
    9 10 3Pdyz      0.18994   0.00000      0.000   0.000  -0.000
    9 11 3Pdz2      0.01640   0.00000      0.000   0.000   0.000
    9 12 3Pdxz      0.09708   0.00000     -0.000   0.000  -0.000
    9 13 3Pdx2-y2   0.17189   0.00000      0.000  -0.000   0.000
    9     Total     3.60442   0.00000     -0.000   0.000  -0.000

   10  1 3s         0.48314   0.00000     -0.000   0.000   0.000
   10  2 3s         0.37750   0.00000     -0.000  -0.000   0.000
   10  3 3py        0.24178   0.00000      0.000  -0.000   0.000
   10  4 3pz        0.40916   0.00000     -0.000  -0.000   0.000
   10  5 3px        0.10115   0.00000      0.000  -0.000   0.000
   10  6 3py        0.32760   0.00000     -0.000   0.000   0.000
   10  7 3pz        0.22242   0.00000     -0.000  -0.000   0.000
   10  8 3px        0.42862   0.00000      0.000   0.000   0.000
   10  9 3Pdxy      0.16947   0.00000     -0.000  -0.000   0.000
   10 10 3Pdyz      0.14022   0.00000      0.000  -0.000   0.000
   10 11 3Pdz2      0.01039   0.00000      0.000   0.000   0.000
   10 12 3Pdxz      0.17463   0.00000     -0.000   0.000   0.000
   10 13 3Pdx2-y2   0.31024   0.00000     -0.000  -0.000   0.000
   10     Total     3.39633   0.00000      0.000  -0.000   0.000

   11  1 3s         0.55263   0.00000      0.000  -0.000   0.000
   11  2 3s         0.38541   0.00000     -0.000   0.000   0.000
   11  3 3py        0.32160   0.00000     -0.000   0.000   0.000
   11  4 3pz        0.54001   0.00000     -0.000   0.000   0.000
   11  5 3px        0.12391   0.00000     -0.000   0.000   0.000
   11  6 3py        0.28688   0.00000      0.000   0.000   0.000
   11  7 3pz        0.17760   0.00000     -0.000  -0.000   0.000
   11  8 3px        0.44671   0.00000      0.000  -0.000   0.000
   11  9 3Pdxy      0.22530   0.00000     -0.000  -0.000   0.000
   11 10 3Pdyz      0.12622   0.00000     -0.000  -0.000   0.000
   11 11 3Pdz2      0.00957   0.00000     -0.000  -0.000   0.000
   11 12 3Pdxz      0.05269   0.00000      0.000  -0.000   0.000
   11 13 3Pdx2-y2   0.20375   0.00000     -0.000   0.000   0.000
   11     Total     3.45230   0.00000     -0.000   0.000   0.000

   17  1 3s         0.63962   0.00000     -0.000   0.000   0.000
   17  2 3s         0.36049   0.00000      0.000  -0.000   0.000
   17  3 3py        0.22793   0.00000      0.000  -0.000   0.000
   17  4 3pz        0.42375   0.00000     -0.000  -0.000   0.000
   17  5 3px        0.24480   0.00000      0.000   0.000   0.000
   17  6 3py        0.38765   0.00000     -0.000   0.000  -0.000
   17  7 3pz        0.21118   0.00000      0.000  -0.000   0.000
   17  8 3px        0.36841   0.00000     -0.000  -0.000  -0.000
   17  9 3Pdxy      0.30200   0.00000      0.000  -0.000   0.000
   17 10 3Pdyz      0.14303   0.00000     -0.000  -0.000   0.000
   17 11 3Pdz2      0.00909   0.00000      0.000   0.000   0.000
   17 12 3Pdxz      0.14326   0.00000     -0.000  -0.000   0.000
   17 13 3Pdx2-y2   0.16335   0.00000     -0.000   0.000  -0.000
   17     Total     3.62455   0.00000     -0.000  -0.000   0.000

   18  1 3s         0.74450   0.00000     -0.000   0.000   0.000
   18  2 3s         0.33937   0.00000      0.000   0.000   0.000
   18  3 3py        0.07977   0.00000      0.000  -0.000   0.000
   18  4 3pz        0.82266   0.00000     -0.000  -0.000   0.000
   18  5 3px        0.55518   0.00000      0.000  -0.000   0.000
   18  6 3py        0.51783   0.00000     -0.000   0.000   0.000
   18  7 3pz        0.19757   0.00000      0.000   0.000   0.000
   18  8 3px        0.25013   0.00000     -0.000  -0.000   0.000
   18  9 3Pdxy      0.10338   0.00000      0.000   0.000  -0.000
   18 10 3Pdyz      0.02742   0.00000      0.000   0.000  -0.000
   18 11 3Pdz2      0.00874   0.00000     -0.000   0.000  -0.000
   18 12 3Pdxz      0.03022   0.00000     -0.000  -0.000  -0.000
   18 13 3Pdx2-y2   0.11314   0.00000     -0.000   0.000   0.000
   18     Total     3.78989   0.00000     -0.000  -0.000   0.000

   19  1 3s         0.45953   0.00000     -0.000   0.000   0.000
   19  2 3s         0.36517   0.00000      0.000   0.000  -0.000
   19  3 3py        0.08265   0.00000     -0.000   0.000   0.000
   19  4 3pz        0.42910   0.00000     -0.000   0.000   0.000
   19  5 3px        0.35635   0.00000     -0.000  -0.000   0.000
   19  6 3py        0.47027   0.00000     -0.000   0.000   0.000
   19  7 3pz        0.18299   0.00000      0.000   0.000  -0.000
   19  8 3px        0.23888   0.00000      0.000  -0.000  -0.000
   19  9 3Pdxy      0.34201   0.00000     -0.000  -0.000  -0.000
   19 10 3Pdyz      0.18829   0.00000      0.000   0.000  -0.000
   19 11 3Pdz2      0.01602   0.00000      0.000  -0.000   0.000
   19 12 3Pdxz      0.08755   0.00000     -0.000   0.000   0.000
   19 13 3Pdx2-y2   0.23699   0.00000     -0.000   0.000   0.000
   19     Total     3.45580   0.00000     -0.000   0.000   0.000

   20  1 3s         0.67336   0.00000     -0.000  -0.000  -0.000
   20  2 3s         0.37802   0.00000      0.000   0.000   0.000
   20  3 3py        0.33113   0.00000     -0.000   0.000  -0.000
   20  4 3pz        0.58986   0.00000     -0.000   0.000  -0.000
   20  5 3px        0.13796   0.00000     -0.000  -0.000  -0.000
   20  6 3py        0.29221   0.00000      0.000  -0.000   0.000
   20  7 3pz        0.16384   0.00000      0.000   0.000  -0.000
   20  8 3px        0.49982   0.00000      0.000   0.000   0.000
   20  9 3Pdxy      0.10032   0.00000      0.000  -0.000  -0.000
   20 10 3Pdyz      0.13383   0.00000      0.000   0.000  -0.000
   20 11 3Pdz2      0.00736   0.00000      0.000  -0.000   0.000
   20 12 3Pdxz      0.02697   0.00000      0.000  -0.000  -0.000
   20 13 3Pdx2-y2   0.17201   0.00000      0.000   0.000   0.000
   20     Total     3.50670   0.00000     -0.000   0.000  -0.000

----------------------------------------------------------------
Total              89.08128   0.00000      0.000   0.000   0.000


Species: H                   

Atom      Orb        Charge      Spin       Svec
----------------------------------------------------------------
   12  1 1s         0.49740   0.00000     -0.000  -0.000  -0.000
   12  2 1s         0.18179   0.00000     -0.000   0.000   0.000
   12  3 2Ppy       0.02910   0.00000      0.000   0.000  -0.000
   12  4 2Ppz       0.03420   0.00000     -0.000   0.000  -0.000
   12  5 2Ppx       0.02279   0.00000     -0.000   0.000  -0.000
   12     Total     0.76528   0.00000     -0.000   0.000  -0.000

   13  1 1s         1.01882   0.00000      0.000  -0.000  -0.000
   13  2 1s         0.09551   0.00000     -0.000   0.000   0.000
   13  3 2Ppy       0.01808   0.00000     -0.000   0.000   0.000
   13  4 2Ppz       0.02006   0.00000     -0.000   0.000   0.000
   13  5 2Ppx       0.03516   0.00000      0.000   0.000   0.000
   13     Total     1.18764   0.00000      0.000  -0.000  -0.000

   14  1 1s         0.46030   0.00000     -0.000  -0.000   0.000
   14  2 1s         0.19992   0.00000      0.000   0.000   0.000
   14  3 2Ppy       0.01790   0.00000     -0.000  -0.000   0.000
   14  4 2Ppz       0.04542   0.00000      0.000  -0.000  -0.000
   14  5 2Ppx       0.01714   0.00000      0.000  -0.000   0.000
   14     Total     0.74068   0.00000     -0.000  -0.000   0.000

   15  1 1s         0.49835   0.00000      0.000  -0.000  -0.000
   15  2 1s         0.17838   0.00000     -0.000   0.000  -0.000
   15  3 2Ppy       0.00511   0.00000     -0.000  -0.000  -0.000
   15  4 2Ppz       0.04281   0.00000     -0.000  -0.000  -0.000
   15  5 2Ppx       0.02800   0.00000      0.000  -0.000  -0.000
   15     Total     0.75266   0.00000      0.000  -0.000  -0.000

   16  1 1s         0.50998   0.00000     -0.000  -0.000   0.000
   16  2 1s         0.18720   0.00000      0.000   0.000   0.000
   16  3 2Ppy       0.02980   0.00000     -0.000   0.000  -0.000
   16  4 2Ppz       0.03982   0.00000     -0.000  -0.000  -0.000
   16  5 2Ppx       0.02359   0.00000      0.000   0.000  -0.000
   16     Total     0.79039   0.00000     -0.000  -0.000   0.000

   24  1 1s         1.06329   0.00000     -0.000  -0.000  -0.000
   24  2 1s         0.07425   0.00000     -0.000   0.000   0.000
   24  3 2Ppy       0.03208   0.00000      0.000   0.000   0.000
   24  4 2Ppz       0.03074   0.00000     -0.000   0.000   0.000
   24  5 2Ppx       0.01729   0.00000      0.000  -0.000  -0.000
   24     Total     1.21765   0.00000     -0.000  -0.000  -0.000

   25  1 1s         1.04308   0.00000      0.000  -0.000  -0.000
   25  2 1s         0.08654   0.00000     -0.000   0.000  -0.000
   25  3 2Ppy       0.01227   0.00000     -0.000   0.000  -0.000
   25  4 2Ppz       0.01846   0.00000     -0.000   0.000  -0.000
   25  5 2Ppx       0.03569   0.00000      0.000  -0.000   0.000
   25     Total     1.19604   0.00000      0.000  -0.000  -0.000

   26  1 1s         0.47512   0.00000      0.000  -0.000  -0.000
   26  2 1s         0.19614   0.00000     -0.000   0.000   0.000
   26  3 2Ppy       0.02096   0.00000     -0.000  -0.000   0.000
   26  4 2Ppz       0.04906   0.00000     -0.000  -0.000  -0.000
   26  5 2Ppx       0.01607   0.00000      0.000   0.000   0.000
   26     Total     0.75735   0.00000     -0.000  -0.000  -0.000

   27  1 1s         0.51297   0.00000     -0.000  -0.000  -0.000
   27  2 1s         0.16887   0.00000     -0.000   0.000  -0.000
   27  3 2Ppy       0.00663   0.00000      0.000  -0.000  -0.000
   27  4 2Ppz       0.03786   0.00000     -0.000   0.000  -0.000
   27  5 2Ppx       0.02847   0.00000     -0.000   0.000  -0.000
   27     Total     0.75480   0.00000     -0.000  -0.000  -0.000

   29  1 1s         0.48499   0.00000     -0.000   0.000   0.000
   29  2 1s         0.18770   0.00000      0.000   0.000   0.000
   29  3 2Ppy       0.02516   0.00000     -0.000  -0.000  -0.000
   29  4 2Ppz       0.03423   0.00000      0.000  -0.000  -0.000
   29  5 2Ppx       0.02415   0.00000     -0.000   0.000  -0.000
   29     Total     0.75624   0.00000     -0.000  -0.000   0.000

----------------------------------------------------------------
Total              98.00000   0.00000      0.000   0.000  -0.000


siesta: Eigenvalues (eV):
ik =     1
  -21.9378  -21.9378  -21.7711  -21.7711  -21.5883  -21.5883  -21.5655  -21.5655  -21.2492  -21.2492
  -20.9831  -20.9831  -20.8560  -20.8560  -19.8514  -19.8514  -19.3765  -19.3765  -19.3728  -19.3728
  -14.7318  -14.7318  -13.9085  -13.9085  -13.3349  -13.3349  -13.2221  -13.2221  -13.1213  -13.1213
  -12.9018  -12.9018  -12.8780  -12.8780  -12.4825  -12.4825  -12.3877  -12.3877  -12.0103  -12.0103
  -11.4828  -11.4828  -10.7910  -10.7910  -10.7798  -10.7798  -10.7315  -10.7315  -10.0742  -10.0742
   -9.5231   -9.5231   -9.2623   -9.2623   -8.8794   -8.8794   -8.7201   -8.7201   -8.6786   -8.6786
   -8.6528   -8.6528   -8.3781   -8.3781   -8.2097   -8.2097   -7.8318   -7.8318   -7.6644   -7.6644
   -7.5280   -7.5280   -7.3628   -7.3628   -7.3117   -7.3117   -6.9182   -6.9182   -6.7258   -6.7258
   -6.5354   -6.5354   -6.4787   -6.4787   -6.1173   -6.1173   -6.0914   -6.0914   -6.0654   -6.0654
   -5.6571   -5.6571   -5.6557   -5.6557   -5.4262   -5.4262   -4.3261   -4.3261   -3.2258   -3.2258
   -2.3335   -2.3335   -2.2832   -2.2832   -2.2628   -2.2628   -1.9034   -1.9034   -1.8785   -1.8785
   -1.8240   -1.8240   -1.7574   -1.7574   -1.5683   -1.5683   -1.5554   -1.5554   -0.9680   -0.9680
   -0.9637   -0.9637   -0.8423   -0.8423   -0.4027   -0.4027   -0.1505   -0.1505    0.0177    0.0177
    0.2846    0.2846    0.4186    0.4186    0.5216    0.5216    0.7189    0.7189    0.7498    0.7498
    0.9703    0.9703    1.2108    1.2108    1.3008    1.3008    1.3819    1.3819    1.4582    1.4582
    1.6628    1.6628    1.8187    1.8187    1.9107    1.9107    2.3361    2.3361    2.7265    2.7265
    2.7315    2.7315    2.8356    2.8356    3.0004    3.0004    3.1273    3.1273    3.3237    3.3237
    3.3669    3.3669    3.7628    3.7628    3.8407    3.8407    4.0977    4.0977    4.2763    4.2763
    4.4328    4.4328    4.5375    4.5375    4.5644    4.5644    4.6006    4.6006    4.8303    4.8303
    4.9583    4.9583    4.9647    4.9647    5.2245    5.2245    5.5101    5.5101    5.6539    5.6539
    5.6945    5.6945    5.7972    5.7972    5.8714    5.8714    5.9425    5.9425    5.9718    5.9718
    6.1854    6.1854    6.3188    6.3188    6.6430    6.6430    6.7169    6.7169    6.8231    6.8231
    7.0589    7.0589    7.1832    7.1832    7.3744    7.3744    7.5086    7.5086    7.7377    7.7377
    7.8094    7.8094    8.0277    8.0277    8.1020    8.1020    8.2236    8.2236    8.2745    8.2745
    8.5020    8.5020    8.6693    8.6693    8.7486    8.7486    8.9484    8.9484    9.2059    9.2059
    9.2123    9.2123    9.2450    9.2450    9.7484    9.7484    9.8075    9.8075    9.8452    9.8452
    9.9844    9.9844   10.1734   10.1734   10.4211   10.4211   10.7266   10.7266   10.8169   10.8169
   10.9111   10.9111   11.0738   11.0738   11.2152   11.2152   11.6911   11.6911   11.8223   11.8223
   11.8890   11.8890   11.9021   11.9021   12.1731   12.1731   12.3681   12.3681   12.5276   12.5276
   12.7106   12.7106   12.7498   12.7498   13.3750   13.3750   13.5128   13.5128   13.7404   13.7404
   13.7623   13.7623   14.0591   14.0591   14.2157   14.2157   14.4240   14.4240   14.8132   14.8132
   14.8657   14.8657   15.3418   15.3418   15.9795   15.9795   16.4104   16.4104   16.6817   16.6817
   16.9381   16.9381   17.3979   17.3979   17.6872   17.6872   18.2096   18.2096   18.3213   18.3213
   18.5656   18.5656   19.1083   19.1083   19.3321   19.3321   19.9372   19.9372   20.2583   20.2583
   20.8983   20.8983   21.3272   21.3272   21.7867   21.7867   22.1938   22.1938   22.4255   22.4255
   23.1091   23.1091   23.2718   23.2718   23.7644   23.7644   23.8217   23.8217   23.8556   23.8556
   24.8175   24.8175   25.1974   25.1974   26.0142   26.0142   26.7789   26.7789   27.3934   27.3934
   28.3883   28.3883   29.0878   29.0878   29.1062   29.1062   29.5025   29.5025   29.5730   29.5730
   30.0422   30.0422   30.1198   30.1198   30.2360   30.2360   30.5974   30.5974   30.7857   30.7857
   31.0107   31.0107   31.1785   31.1785   31.4762   31.4762   31.5969   31.5969   32.2465   32.2465
   32.6797   32.6797   33.8479   33.8479   34.5009   34.5009   34.7077   34.7077   34.9643   34.9643
   34.9833   34.9833   35.1282   35.1282   35.3623   35.3623   35.6538   35.6538   35.8916   35.8916
   36.7511   36.7511   36.8045   36.8045   37.0212   37.0212   37.1987   37.1987   37.5345   37.5345
   38.1679   38.1679   38.2848   38.2848   39.3565   39.3565   39.4592   39.4592   39.8917   39.8917
   40.2361   40.2361   40.5165   40.5165   40.5931   40.5931   40.6682   40.6682   40.9554   40.9554
   41.0716   41.0716   41.4690   41.4690   42.3965   42.3965   42.6403   42.6403   43.0150   43.0150
   43.1454   43.1454   43.7741   43.7741   43.8921   43.8921   44.0332   44.0332   44.2416   44.2416
   44.6702   44.6702   44.7202   44.7202   45.0500   45.0500   45.3554   45.3554   46.1080   46.1080
   46.3751   46.3751   46.8325   46.8325   47.1803   47.1803   48.6285   48.6285   48.9890   48.9890
   49.4580   49.4580   50.3214   50.3214   50.4963   50.4963   50.7194   50.7194   50.9111   50.9111
   51.3695   51.3695   51.5741   51.5741   52.6931   52.6931   52.6999   52.6999   54.1965   54.1965
   54.2973   54.2973   54.5612   54.5612   54.7448   54.7448   55.8128   55.8128   55.8613   55.8613
   55.8819   55.8819   56.0200   56.0200   56.5034   56.5034   57.8482   57.8482   58.2273   58.2273
   58.6635   58.6635   60.1432   60.1432   60.4801   60.4801   60.6028   60.6028   61.1281   61.1281
   61.8261   61.8261   62.0003   62.0003   62.2204   62.2204   64.4734   64.4734   66.4598   66.4598
   67.1456   67.1456   67.2068   67.2068   68.1441   68.1441   68.7596   68.7596   70.8370   70.8370
   74.0612   74.0612   79.9783   79.9783   91.0599   91.0599   91.9124   91.9124   93.3675   93.3675
   98.4437   98.4437   98.7168   98.7168   99.6474   99.6474  103.3929  103.3929  103.8064  103.8064
  110.1105  110.1105  111.6163  111.6163  123.6273  123.6273  125.7009  125.7009  129.9551  129.9551
  135.0259  135.0259  138.3174  138.3174
siesta: Fermi energy =      -3.776315 eV

siesta: Program's energy decomposition (eV):
siesta: Ebs     =     -1134.779816
siesta: Eions   =      3585.165840
siesta: Ena     =       382.019161
siesta: Ekin    =      2903.012716
siesta: Enl     =     -2787.815276
siesta: Eso     =        -0.004282
siesta: Edftu   =         0.000000
siesta: DEna    =        47.001236
siesta: DUscf   =        14.340685
siesta: DUext   =         0.000000
siesta: Exc     =     -1119.665969
siesta: eta*DQ  =         0.000000
siesta: Emadel  =         0.000000
siesta: Emeta   =         0.000000
siesta: Emolmec =         0.000000
siesta: Ekinion =         0.000000
siesta: Eharris =     -4146.277567
siesta: Etot    =     -4146.277567
siesta: FreeEng =     -4146.277567

siesta: Final energy (eV):
siesta:  Band Struct. =   -1134.779816
siesta:       Kinetic =    2903.012716
siesta:       Hartree =    8162.587387
siesta:       Edftu   =       0.000000
siesta:       Eso     =      -0.004282
siesta:    Ext. field =       0.000000
siesta:   Exch.-corr. =   -1119.665969
siesta:  Ion-electron =  -18909.505022
siesta:       Ion-ion =    4817.297601
siesta:       Ekinion =       0.000000
siesta:         Total =   -4146.277567
siesta:         Fermi =      -3.776315

siesta: Atomic forces (eV/Ang):
siesta:      1    3.354182    1.668528    0.000000
siesta:      2    0.046881    0.052805   -0.000000
siesta:      3    0.782596   -0.423052    0.000000
siesta:      4    0.770769   -0.016503    0.000000
siesta:      5    0.060656   -0.099788   -0.000000
siesta:      6    1.826598    0.657138    0.000000
siesta:      7    0.041782   -0.263909    0.000000
siesta:      8   -0.436163    0.301862   -0.000000
siesta:      9   -0.205005    1.312435   -0.000000
siesta:     10   -1.085135    0.371533   -0.000000
siesta:     11   -0.025379   -0.020129    0.000000
siesta:     12   -0.388180   -0.300310   -0.000000
siesta:     13    0.034480   -0.085471    0.000000
siesta:     14    0.237455   -0.051094   -0.000000
siesta:     15   -1.378722   -0.948254   -0.000000
siesta:     16   -0.034835    0.151295   -0.000000
siesta:     17    1.061857   -1.145952    0.000000
siesta:     18   -0.225025    0.205357    0.000000
siesta:     19   -0.194805   -1.313775   -0.000000
siesta:     20   -0.012097   -0.437387    0.000000
siesta:     21   -0.327475    1.066201    0.000000
siesta:     22   -2.222370   -0.891435   -0.000000
siesta:     23    0.267141    0.577220    0.000000
siesta:     24    0.137054   -0.001524   -0.000000
siesta:     25    0.129716   -0.029755   -0.000000
siesta:     26   -0.251177   -0.166900    0.000000
siesta:     27    1.707302    1.405936    0.000000
siesta:     28    1.509617    2.206651   -0.000000
siesta:     29   -0.149745    0.189009    0.000000
siesta: ----------------------------------------
siesta:    Tot    5.031969    3.970732    0.000000

siesta: Stress tensor (static) (eV/Ang**3):
siesta:     0.000015    0.000828   -0.000000
siesta:     0.000828    0.000997    0.000000
siesta:    -0.000000   -0.000000   -0.000051

siesta: Cell volume =       5622.658914 Ang**3

siesta: Pressure (static):
siesta:                Solid            Molecule  Units
siesta:          -0.00000349          0.00000062  Ry/Bohr**3
siesta:          -0.00032011          0.00005716  eV/Ang**3
siesta:          -0.51287643          0.09158152  kBar
(Free)E+ p_basis*V_orbitals  =       -4126.427150
(Free)Eharris+ p_basis*V_orbitals  =       -4126.427150
     spin moment: S , {S} =    0.00000   0.00000   0.00000  -0.00000

siesta: Electric dipole (a.u.)  =    1.539398    0.012821   -0.000000
siesta: Electric dipole (Debye) =    3.912763    0.032587   -0.000000

cite: Please see "GC.bib" for an exhaustive BiBTeX file.
cite: Please clearly indicate Siesta version in published work: v4.1.5-1-g384057250
cite: This calculation has made use of the following articles
cite: which are encouraged to be cited in a published work.
        Primary SIESTA paper
          DOI: www.doi.org/10.1088/0953-8984/14/11/302
        Spin-orbit coupling (on-site approximation)
          DOI: www.doi.org/10.1088/0953-8984/19/19/489001


WARNING: alloc-realloc-dealloc name mismatch
         Name: atomlist isa
         Size:              -116. Bytes
         Node:     0
         Subsequent mismatches will not be reported
>> End of run:  28-JUN-2023  20:41:17
Job completed
