Siesta Version  : v4.1.5-1-g384057250
Architecture    : gcc
Compiler version: GNU Fortran (Ubuntu 11.3.0-1ubuntu1~22.04) 11.3.0
Compiler flags  : mpifort -O2 -fPIC -ftree-vectorize -fallow-argument-mismatch
PP flags        : -DFC_HAVE_ABORT -DMPI -DSIESTA__FLOOK -DSIESTA__METIS -DSIESTA__MUMPS -DCDF -DNCDF -DNCDF_4 -DNCDF_PARALLEL -DSIESTA__MRRR -DSIESTA__ELPA
Libraries       : libncdf.a libfdict.a  -lflookall -ldl -lnetcdff -lnetcdf -lhdf5_hl -lhdf5 -lhdf5_fortran -lz -lscalapack-openmpi -lopenblas -lmetis -lzmumps -lcmumps -ldmumps -lmumps_common -lpord -lsmumps -lesmumps -lscotch -lscotcherr -fopenmp -lelpa
PARALLEL version
NetCDF support
NetCDF-4 support
NetCDF-4 MPI-IO support
METIS ordering support
Lua support

* Running on 4 nodes in parallel
>> Start of run:   4-JUL-2023  10:26:18

                           ***********************       
                           *  WELCOME TO SIESTA  *       
                           ***********************       

reinit: Reading from standard input
reinit: Dumped input in INPUT_TMP.05396
************************** Dump of input data file ****************************
SystemLabel      GC
NumberOfAtoms    29
NumberOfSpecies  4
%block ChemicalSpeciesLabel
    1    8  O
    2    7  N
    3   14  Si
    4    1  H
%endblock ChemicalSpeciesLabel
# Single point calculation
MD.TypeOfRun                CG
MD.Steps                    0
SCF.MustConverge            F # In case it does not. There can be 2 very close atoms
AtomicCoordinatesFormat NotScaledCartesianAng
%block AtomicCoordinatesAndAtomicSpecies
0.958671510    3.803529300    0.000000000       1
-3.038688210   0.998073330    0.000000000       2
2.066567750    1.099065770    0.000000000       2
1.029569860    -1.834680850   0.000000000       2
-2.108567660   -1.881798240   0.000000000       2
3.912411070    -1.180894430   0.000000000       2
-1.235636790   1.044983000    0.000000000       3
-0.501909240   -1.031832280   0.000000000       3
0.629463280    2.232755840    0.000000000       3
2.280054370    -0.658293540   0.000000000       3
-3.424812990   -0.662324160   0.000000000       3
2.965974160    1.682263990    0.000000000       4
-4.796229390   -1.238728480   0.000000000       4
4.096559410    -2.214148760   0.000000000       4
4.792108680    -0.529147250   0.000000000       4
-2.266861300   -2.922393730   0.000000000       4
4.346110713    4.676165619    0.000000000       3
6.271588463    5.867794949    0.000000000       3
5.806782073    1.941611249    0.000000000       3
7.877961993    4.388657839    0.000000000       3
4.448395253    2.966810929    0.000000000       2
2.766732623    5.346395109    0.000000000       2
7.459851973    2.656774929    0.000000000       2
6.580079283    7.332456309    0.000000000       4
9.369634903    4.588637299    0.000000000       4
2.582106183    6.381268839    0.000000000       4
1.874640833    4.675106379    0.000000000       4
5.796651473    0.343382729    0.000000000       1
8.236450353    1.934944729    0.000000000       4
%endblock AtomicCoordinatesAndAtomicSpecies
%include ../../../Defaults.fdf
************************** End of input data file *****************************

reinit: -----------------------------------------------------------------------
reinit: System Name: 
reinit: -----------------------------------------------------------------------
reinit: System Label: GC
reinit: -----------------------------------------------------------------------

initatom: Reading input for the pseudopotentials and atomic orbitals ----------
Species number:   1 Atomic number:    8 Label: O
Species number:   2 Atomic number:    7 Label: N
Species number:   3 Atomic number:   14 Label: Si
Species number:   4 Atomic number:    1 Label: H

Ground state valence configuration:   2s02  2p04
Reading pseudopotential information in formatted form from O.psf

Pseudopotential generated from a relativistic atomic calculation

Valence configuration for pseudopotential generation:
2s( 2.00) rc: 0.45
2p( 4.00) rc: 0.92
3d( 0.00) rc: 2.24
4f( 0.00) rc: 0.25
Ground state valence configuration:   2s02  2p03
Reading pseudopotential information in formatted form from N.psf

Pseudopotential generated from a relativistic atomic calculation

Valence configuration for pseudopotential generation:
2s( 2.00) rc: 0.94
2p( 3.00) rc: 0.59
3d( 0.00) rc: 3.46
4f( 0.00) rc: 2.47
Ground state valence configuration:   3s02  3p02
Reading pseudopotential information in formatted form from Si.psf

Pseudopotential generated from a relativistic atomic calculation

Valence configuration for pseudopotential generation:
3s( 2.00) rc: 1.67
3p( 2.00) rc: 2.04
3d( 0.00) rc: 2.89
4f( 0.00) rc: 2.49
Ground state valence configuration:   1s01
Reading pseudopotential information in formatted form from H.psf

Pseudopotential generated from a relativistic atomic calculation

Valence configuration for pseudopotential generation:
1s( 1.00) rc: 0.01
2p( 0.00) rc: 0.60
3d( 0.00) rc: 1.99
4f( 0.00) rc: 2.49
For O, standard SIESTA heuristics set lmxkb to 3
 (one more than the basis l, including polarization orbitals).
Use PS.lmax or PS.KBprojectors blocks to override.
For N, standard SIESTA heuristics set lmxkb to 3
 (one more than the basis l, including polarization orbitals).
Use PS.lmax or PS.KBprojectors blocks to override.
For Si, standard SIESTA heuristics set lmxkb to 3
 (one more than the basis l, including polarization orbitals).
Use PS.lmax or PS.KBprojectors blocks to override.
For H, standard SIESTA heuristics set lmxkb to 2
 (one more than the basis l, including polarization orbitals).
Use PS.lmax or PS.KBprojectors blocks to override.

<basis_specs>
===============================================================================
O                    Z=   8    Mass=  16.000        Charge= 0.17977+309
Lmxo=1 Lmxkb= 3    BasisType=split      Semic=F
L=0  Nsemic=0  Cnfigmx=2
          i=1  nzeta=2  polorb=0  (2s)
            splnorm:   0.28000    
               vcte:    0.0000    
               rinn:    0.0000    
               qcoe:    0.0000    
               qyuk:    0.0000    
               qwid:   0.10000E-01
                rcs:    0.0000      0.0000    
            lambdas:    1.0000      1.0000    
L=1  Nsemic=0  Cnfigmx=2
          i=1  nzeta=2  polorb=1  (2p)
            splnorm:   0.28000    
               vcte:    0.0000    
               rinn:    0.0000    
               qcoe:    0.0000    
               qyuk:    0.0000    
               qwid:   0.10000E-01
                rcs:    0.0000      0.0000    
            lambdas:    1.0000      1.0000    
-------------------------------------------------------------------------------
L=0  Nkbl=1  erefs: 0.17977+309
L=1  Nkbl=1  erefs: 0.17977+309
L=2  Nkbl=1  erefs: 0.17977+309
L=3  Nkbl=1  erefs: 0.17977+309
===============================================================================
</basis_specs>

atom: Called for O                     (Z =   8)

read_vps: Pseudopotential generation method:
read_vps: ATM4.2.7  Troullier-Martins                       
Valence charge for ps generation:    6.00000

xc_check: Exchange-correlation functional:
xc_check: GGA Perdew, Burke & Ernzerhof 1996
V l=0 = -2*Zval/r beyond r=  1.1000
V l=1 = -2*Zval/r beyond r=  1.1000
V l=2 = -2*Zval/r beyond r=  2.2154
V l=3 = -2*Zval/r beyond r=  1.1000
All V_l potentials equal beyond r=  2.2154
This should be close to max(r_c) in ps generation
All pots = -2*Zval/r beyond r=  2.2154

VLOCAL1: 99.0% of the norm of Vloc inside      8.845 Ry
VLOCAL1: 99.9% of the norm of Vloc inside     20.157 Ry
atom: Maximum radius for 4*pi*r*r*local-pseudopot. charge    2.67231
atom: Maximum radius for r*vlocal+2*Zval:    2.32897
GHOST: No ghost state for L =  0
GHOST: No ghost state for L =  1
GHOST: No ghost state for L =  2
GHOST: No ghost state for L =  3

KBgen: Kleinman-Bylander projectors: 
   l= 0   rc=  2.243238   el= -1.759686   Ekb=**********   kbcos= -0.171774
   l= 1   rc=  2.328968   el= -0.663873   Ekb=-14.506792   kbcos= -0.519897
   l= 2   rc=  2.573941   el=  0.002031   Ekb= -1.137373   kbcos= -0.019581
   l= 3   rc=  2.606321   el=  0.003153   Ekb= -1.013546   kbcos= -0.003122

KBgen: Total number of Kleinman-Bylander projectors:   16
atom: -------------------------------------------------------------------------

atom: SANKEY-TYPE ORBITALS:
atom: Selected multiple-zeta basis: split     

SPLIT: Orbitals with angular momentum L= 0

SPLIT: Basis orbitals for state 2s

SPLIT: PAO cut-off radius determined from an
SPLIT: energy shift=  0.002000 Ry

   izeta = 1
                 lambda =    1.000000
                     rc =    4.243912
                 energy =   -1.758270
                kinetic =    3.286084
    potential(screened) =   -5.044353
       potential(ionic) =  -12.921184

   izeta = 2
                 rmatch =    2.187845
              splitnorm =    0.280000
                 energy =   -0.885018
                kinetic =    8.134434
    potential(screened) =   -9.019452
       potential(ionic) =  -17.710645

SPLIT: Orbitals with angular momentum L= 1

SPLIT: Basis orbitals for state 2p

SPLIT: PAO cut-off radius determined from an
SPLIT: energy shift=  0.002000 Ry

   izeta = 1
                 lambda =    1.000000
                     rc =    5.314825
                 energy =   -0.661986
                kinetic =    4.917472
    potential(screened) =   -5.579458
       potential(ionic) =  -13.236259

   izeta = 2
                 rmatch =    2.160663
              splitnorm =    0.280000
                 energy =   -0.068760
                kinetic =    9.183374
    potential(screened) =   -9.252135
       potential(ionic) =  -18.274251

POLgen: Perturbative polarization orbital with L=  2

POLgen: Polarization orbital for state 2p

   izeta = 1
                     rc =    5.314825
                 energy =    1.970580
                kinetic =    3.886128
    potential(screened) =   -1.915547
       potential(ionic) =   -7.749584
atom: Total number of Sankey-type orbitals: 13

atm_pop: Valence configuration (for local Pseudopot. screening):
 2s( 2.00)                                                            
 2p( 4.00)                                                            
Vna: chval, zval:    6.00000   6.00000

Vna:  Cut-off radius for the neutral-atom potential:   5.314825

atom: _________________________________________________________________________

<basis_specs>
===============================================================================
N                    Z=   7    Mass=  14.010        Charge= 0.17977+309
Lmxo=1 Lmxkb= 3    BasisType=split      Semic=F
L=0  Nsemic=0  Cnfigmx=2
          i=1  nzeta=2  polorb=0  (2s)
            splnorm:   0.28000    
               vcte:    0.0000    
               rinn:    0.0000    
               qcoe:    0.0000    
               qyuk:    0.0000    
               qwid:   0.10000E-01
                rcs:    0.0000      0.0000    
            lambdas:    1.0000      1.0000    
L=1  Nsemic=0  Cnfigmx=2
          i=1  nzeta=2  polorb=1  (2p)
            splnorm:   0.28000    
               vcte:    0.0000    
               rinn:    0.0000    
               qcoe:    0.0000    
               qyuk:    0.0000    
               qwid:   0.10000E-01
                rcs:    0.0000      0.0000    
            lambdas:    1.0000      1.0000    
-------------------------------------------------------------------------------
L=0  Nkbl=1  erefs: 0.17977+309
L=1  Nkbl=1  erefs: 0.17977+309
L=2  Nkbl=1  erefs: 0.17977+309
L=3  Nkbl=1  erefs: 0.17977+309
===============================================================================
</basis_specs>

atom: Called for N                     (Z =   7)

read_vps: Pseudopotential generation method:
read_vps: ATM4.2.7  Troullier-Martins                       
Valence charge for ps generation:    5.00000

xc_check: Exchange-correlation functional:
xc_check: GGA Perdew, Burke & Ernzerhof 1996
V l=0 = -2*Zval/r beyond r=  1.2889
V l=1 = -2*Zval/r beyond r=  1.2889
V l=2 = -2*Zval/r beyond r=  3.4178
V l=3 = -2*Zval/r beyond r=  2.4084
All V_l potentials equal beyond r=  3.3753
This should be close to max(r_c) in ps generation
All pots = -2*Zval/r beyond r=  3.4178

VLOCAL1: 99.0% of the norm of Vloc inside      3.810 Ry
VLOCAL1: 99.9% of the norm of Vloc inside      8.683 Ry
atom: Maximum radius for 4*pi*r*r*local-pseudopot. charge    4.02088
atom: Maximum radius for r*vlocal+2*Zval:    3.54838
GHOST: No ghost state for L =  0
GHOST: No ghost state for L =  1
GHOST: No ghost state for L =  2
GHOST: No ghost state for L =  3

KBgen: Kleinman-Bylander projectors: 
   l= 0   rc=  3.417763   el= -1.365098   Ekb= -4.433130   kbcos= -0.707855
   l= 1   rc=  3.375302   el= -0.521201   Ekb=-13.264039   kbcos= -0.535594
   l= 2   rc=  3.872880   el=  0.001991   Ekb= -0.641094   kbcos= -0.062456
   l= 3   rc=  3.970931   el=  0.003093   Ekb= -0.474517   kbcos= -0.018236

KBgen: Total number of Kleinman-Bylander projectors:   16
atom: -------------------------------------------------------------------------

atom: SANKEY-TYPE ORBITALS:
atom: Selected multiple-zeta basis: split     

SPLIT: Orbitals with angular momentum L= 0

SPLIT: Basis orbitals for state 2s

SPLIT: PAO cut-off radius determined from an
SPLIT: energy shift=  0.002000 Ry

   izeta = 1
                 lambda =    1.000000
                     rc =    4.730425
                 energy =   -1.363399
                kinetic =    1.245246
    potential(screened) =   -2.608645
       potential(ionic) =   -8.121105

   izeta = 2
                 rmatch =    2.531849
              splitnorm =    0.280000
                 energy =   -0.959908
                kinetic =    2.409435
    potential(screened) =   -3.369343
       potential(ionic) =   -9.427975

SPLIT: Orbitals with angular momentum L= 1

SPLIT: Basis orbitals for state 2p

SPLIT: PAO cut-off radius determined from an
SPLIT: energy shift=  0.002000 Ry

   izeta = 1
                 lambda =    1.000000
                     rc =    5.924108
                 energy =   -0.519262
                kinetic =    3.672940
    potential(screened) =   -4.192202
       potential(ionic) =   -9.518354

   izeta = 2
                 rmatch =    2.531849
              splitnorm =    0.280000
                 energy =   -0.104258
                kinetic =    6.807538
    potential(screened) =   -6.911796
       potential(ionic) =  -13.149920

POLgen: Perturbative polarization orbital with L=  2

POLgen: Polarization orbital for state 2p

   izeta = 1
                     rc =    5.924108
                 energy =    1.427508
                kinetic =    2.872379
    potential(screened) =   -1.444871
       potential(ionic) =   -5.563644
atom: Total number of Sankey-type orbitals: 13

atm_pop: Valence configuration (for local Pseudopot. screening):
 2s( 2.00)                                                            
 2p( 3.00)                                                            
Vna: chval, zval:    5.00000   5.00000

Vna:  Cut-off radius for the neutral-atom potential:   5.924108

atom: _________________________________________________________________________

<basis_specs>
===============================================================================
Si                   Z=  14    Mass=  28.090        Charge= 0.17977+309
Lmxo=1 Lmxkb= 3    BasisType=split      Semic=F
L=0  Nsemic=0  Cnfigmx=3
          i=1  nzeta=2  polorb=0  (3s)
            splnorm:   0.28000    
               vcte:    0.0000    
               rinn:    0.0000    
               qcoe:    0.0000    
               qyuk:    0.0000    
               qwid:   0.10000E-01
                rcs:    0.0000      0.0000    
            lambdas:    1.0000      1.0000    
L=1  Nsemic=0  Cnfigmx=3
          i=1  nzeta=2  polorb=1  (3p)
            splnorm:   0.28000    
               vcte:    0.0000    
               rinn:    0.0000    
               qcoe:    0.0000    
               qyuk:    0.0000    
               qwid:   0.10000E-01
                rcs:    0.0000      0.0000    
            lambdas:    1.0000      1.0000    
-------------------------------------------------------------------------------
L=0  Nkbl=1  erefs: 0.17977+309
L=1  Nkbl=1  erefs: 0.17977+309
L=2  Nkbl=1  erefs: 0.17977+309
L=3  Nkbl=1  erefs: 0.17977+309
===============================================================================
</basis_specs>

atom: Called for Si                    (Z =  14)

read_vps: Pseudopotential generation method:
read_vps: ATM4.2.7  Troullier-Martins                       
Valence charge for ps generation:    4.00000

xc_check: Exchange-correlation functional:
xc_check: GGA Perdew, Burke & Ernzerhof 1996
V l=0 = -2*Zval/r beyond r=  2.7826
V l=1 = -2*Zval/r beyond r=  2.7826
V l=2 = -2*Zval/r beyond r=  2.9253
V l=3 = -2*Zval/r beyond r=  2.7826
All V_l potentials equal beyond r=  2.8530
This should be close to max(r_c) in ps generation
All pots = -2*Zval/r beyond r=  2.9253

VLOCAL1: 99.0% of the norm of Vloc inside      5.333 Ry
VLOCAL1: 99.9% of the norm of Vloc inside     12.154 Ry
atom: Maximum radius for 4*pi*r*r*local-pseudopot. charge    3.39869
atom: Maximum radius for r*vlocal+2*Zval:    2.96205
GHOST: No ghost state for L =  0
GHOST: No ghost state for L =  1
GHOST: No ghost state for L =  2
GHOST: No ghost state for L =  3

KBgen: Kleinman-Bylander projectors: 
   l= 0   rc=  3.075247   el= -0.794092   Ekb=  5.879390   kbcos=  0.167461
   l= 1   rc=  3.153101   el= -0.300068   Ekb=  2.642817   kbcos=  0.058301
   l= 2   rc=  3.273594   el=  0.001958   Ekb= -1.185135   kbcos= -0.104411
   l= 3   rc=  3.232927   el=  0.003046   Ekb= -0.497174   kbcos= -0.015889

KBgen: Total number of Kleinman-Bylander projectors:   16
atom: -------------------------------------------------------------------------

atom: SANKEY-TYPE ORBITALS:
atom: Selected multiple-zeta basis: split     

SPLIT: Orbitals with angular momentum L= 0

SPLIT: Basis orbitals for state 3s

SPLIT: PAO cut-off radius determined from an
SPLIT: energy shift=  0.002000 Ry

   izeta = 1
                 lambda =    1.000000
                     rc =    6.429618
                 energy =   -0.792283
                kinetic =    0.525293
    potential(screened) =   -1.317576
       potential(ionic) =   -3.744923

   izeta = 2
                 rmatch =    3.998416
              splitnorm =    0.280000
                 energy =   -0.583081
                kinetic =    1.069570
    potential(screened) =   -1.652651
       potential(ionic) =   -4.235185

SPLIT: Orbitals with angular momentum L= 1

SPLIT: Basis orbitals for state 3p

SPLIT: PAO cut-off radius determined from an
SPLIT: energy shift=  0.002000 Ry

   izeta = 1
                 lambda =    1.000000
                     rc =    8.464845
                 energy =   -0.298236
                kinetic =    0.785360
    potential(screened) =   -1.083596
       potential(ionic) =   -3.273779

   izeta = 2
                 rmatch =    4.587816
              splitnorm =    0.280000
                 energy =   -0.131871
                kinetic =    1.403687
    potential(screened) =   -1.535557
       potential(ionic) =   -4.015310

POLgen: Perturbative polarization orbital with L=  2

POLgen: Polarization orbital for state 3p

   izeta = 1
                     rc =    8.464845
                 energy =    0.321949
                kinetic =    1.055677
    potential(screened) =   -0.733728
       potential(ionic) =   -2.672950
atom: Total number of Sankey-type orbitals: 13

atm_pop: Valence configuration (for local Pseudopot. screening):
 3s( 2.00)                                                            
 3p( 2.00)                                                            
Vna: chval, zval:    4.00000   4.00000

Vna:  Cut-off radius for the neutral-atom potential:   8.464845

atom: _________________________________________________________________________

<basis_specs>
===============================================================================
H                    Z=   1    Mass=  1.0100        Charge= 0.17977+309
Lmxo=0 Lmxkb= 2    BasisType=split      Semic=F
L=0  Nsemic=0  Cnfigmx=1
          i=1  nzeta=2  polorb=1  (1s)
            splnorm:   0.62000    
               vcte:    0.0000    
               rinn:    0.0000    
               qcoe:    0.0000    
               qyuk:    0.0000    
               qwid:   0.10000E-01
                rcs:    0.0000      0.0000    
            lambdas:    1.0000      1.0000    
-------------------------------------------------------------------------------
L=0  Nkbl=1  erefs: 0.17977+309
L=1  Nkbl=1  erefs: 0.17977+309
L=2  Nkbl=1  erefs: 0.17977+309
===============================================================================
</basis_specs>

atom: Called for H                     (Z =   1)

read_vps: Pseudopotential generation method:
read_vps: ATM4.2.7  Troullier-Martins                       
Valence charge for ps generation:    1.00000

xc_check: Exchange-correlation functional:
xc_check: GGA Perdew, Burke & Ernzerhof 1996
V l=0 = -2*Zval/r beyond r=  0.0098
V l=1 = -2*Zval/r beyond r=  0.5817
V l=2 = -2*Zval/r beyond r=  1.9372
All V_l potentials equal beyond r=  1.9372
This should be close to max(r_c) in ps generation
All pots = -2*Zval/r beyond r=  1.9372

VLOCAL1: 99.0% of the norm of Vloc inside     11.567 Ry
VLOCAL1: 99.9% of the norm of Vloc inside     26.362 Ry
atom: Maximum radius for 4*pi*r*r*local-pseudopot. charge    2.25106
atom: Maximum radius for r*vlocal+2*Zval:    1.91306
GHOST: No ghost state for L =  0
GHOST: No ghost state for L =  1
GHOST: No ghost state for L =  2

KBgen: Kleinman-Bylander projectors: 
   l= 0   rc=  2.036604   el= -0.477180   Ekb= -6.081590   kbcos= -0.277285
   l= 1   rc=  2.195416   el=  0.001076   Ekb= -0.926943   kbcos= -0.034643
   l= 2   rc=  2.251056   el=  0.002010   Ekb= -0.130941   kbcos= -0.009788

KBgen: Total number of Kleinman-Bylander projectors:    9
atom: -------------------------------------------------------------------------

atom: SANKEY-TYPE ORBITALS:
atom: Selected multiple-zeta basis: split     

SPLIT: Orbitals with angular momentum L= 0

SPLIT: Basis orbitals for state 1s

SPLIT: PAO cut-off radius determined from an
SPLIT: energy shift=  0.002000 Ry

   izeta = 1
                 lambda =    1.000000
                     rc =    6.518340
                 energy =   -0.475305
                kinetic =    0.912139
    potential(screened) =   -1.387444
       potential(ionic) =   -1.907295

   izeta = 2
                 rmatch =    2.141150
              splitnorm =    0.620000
                 energy =    0.566467
                kinetic =    3.772856
    potential(screened) =   -3.206389
       potential(ionic) =   -3.759093

POLgen: Perturbative polarization orbital with L=  1

POLgen: Polarization orbital for state 1s

   izeta = 1
                     rc =    6.518340
                 energy =    0.533861
                kinetic =    1.121086
    potential(screened) =   -0.587225
       potential(ionic) =   -1.053027
atom: Total number of Sankey-type orbitals:  5

atm_pop: Valence configuration (for local Pseudopot. screening):
 1s( 1.00)                                                            
Vna: chval, zval:    1.00000   1.00000

Vna:  Cut-off radius for the neutral-atom potential:   6.518340

atom: _________________________________________________________________________

prinput: Basis input ----------------------------------------------------------

PAO.BasisType split     

%block ChemicalSpeciesLabel
    1    8 O                       # Species index, atomic number, species label
    2    7 N                       # Species index, atomic number, species label
    3   14 Si                      # Species index, atomic number, species label
    4    1 H                       # Species index, atomic number, species label
%endblock ChemicalSpeciesLabel

%block PAO.Basis                 # Define Basis set
O                     2                    # Species label, number of l-shells
 n=2   0   2                         # n, l, Nzeta 
   4.244      2.188   
   1.000      1.000   
 n=2   1   2 P   1                   # n, l, Nzeta, Polarization, NzetaPol
   5.315      2.161   
   1.000      1.000   
N                     2                    # Species label, number of l-shells
 n=2   0   2                         # n, l, Nzeta 
   4.730      2.532   
   1.000      1.000   
 n=2   1   2 P   1                   # n, l, Nzeta, Polarization, NzetaPol
   5.924      2.532   
   1.000      1.000   
Si                    2                    # Species label, number of l-shells
 n=3   0   2                         # n, l, Nzeta 
   6.430      3.998   
   1.000      1.000   
 n=3   1   2 P   1                   # n, l, Nzeta, Polarization, NzetaPol
   8.465      4.588   
   1.000      1.000   
H                     1                    # Species label, number of l-shells
 n=1   0   2 P   1                   # n, l, Nzeta, Polarization, NzetaPol
   6.518      2.141   
   1.000      1.000   
%endblock PAO.Basis

prinput: ----------------------------------------------------------------------

Dumping basis to NetCDF file O.ion.nc
Dumping basis to NetCDF file N.ion.nc
Dumping basis to NetCDF file Si.ion.nc
Dumping basis to NetCDF file H.ion.nc
coor:   Atomic-coordinates input format  =     Cartesian coordinates
coor:                                          (in Angstroms)

siesta: Atomic coordinates (Bohr) and species
siesta:      1.81163   7.18763   0.00000  1        1
siesta:     -5.74229   1.88609   0.00000  2        2
siesta:      3.90525   2.07693   0.00000  2        3
siesta:      1.94561  -3.46705   0.00000  2        4
siesta:     -3.98462  -3.55608   0.00000  2        5
siesta:      7.39339  -2.23157   0.00000  2        6
siesta:     -2.33502   1.97473   0.00000  3        7
siesta:     -0.94847  -1.94988   0.00000  3        8
siesta:      1.18951   4.21930   0.00000  3        9
siesta:      4.30868  -1.24399   0.00000  3       10
siesta:     -6.47196  -1.25161   0.00000  3       11
siesta:      5.60488   3.17902   0.00000  4       12
siesta:     -9.06356  -2.34086   0.00000  4       13
siesta:      7.74138  -4.18414   0.00000  4       14
siesta:      9.05578  -0.99994   0.00000  4       15
siesta:     -4.28375  -5.52253   0.00000  4       16
siesta:      8.21296   8.83668   0.00000  3       17
siesta:     11.85159  11.08853   0.00000  3       18
siesta:     10.97323   3.66911   0.00000  3       19
siesta:     14.88720   8.29336   0.00000  3       20
siesta:      8.40625   5.60646   0.00000  2       21
siesta:      5.22837  10.10323   0.00000  2       22
siesta:     14.09708   5.02058   0.00000  2       23
siesta:     12.43455  13.85634   0.00000  4       24
siesta:     17.70605   8.67127   0.00000  4       25
siesta:      4.87948  12.05886   0.00000  4       26
siesta:      3.54256   8.83467   0.00000  4       27
siesta:     10.95409   0.64890   0.00000  1       28
siesta:     15.56464   3.65652   0.00000  4       29

siesta: Automatic unit cell vectors (Ang):
siesta:   23.171033    0.000000    0.000000
siesta:    0.000000   18.868918    0.000000
siesta:    0.000000    0.000000    9.854683

siesta: System type = molecule  

initatomlists: Number of atoms, orbitals, and projectors:     29   297   394

siesta: ******************** Simulation parameters ****************************
siesta:
siesta: The following are some of the parameters of the simulation.
siesta: A complete list of the parameters used, including default values,
siesta: can be found in file out.fdf
siesta:
redata: Spin configuration                          = spin-orbit
redata: Number of spin components                   = 8
redata: Time-Reversal Symmetry                      = F
redata: Spin spiral                                 = F
############################################################
This spin-orbit implementation uses a local approximation.
From 4.2 and onwards the full non-local approximation is implemented
You are strongly advised to use >=4.2 versions!
############################################################
redata: Long output                                 =   F
redata: Number of Atomic Species                    =        4
redata: Charge density info will appear in .RHO file
redata: Write Mulliken Pop.                         = Atomic and Orbital charges
redata: Matel table size (NRTAB)                    =     1024
redata: Mesh Cutoff                                 =   340.0000 Ry
redata: Net charge of the system                    =     0.0000 |e|
redata: Min. number of SCF Iter                     =        1
redata: Max. number of SCF Iter                     =      200
redata: SCF mix quantity                            = Hamiltonian
redata: Mix DM or H after convergence               =   F
redata: Recompute H after scf cycle                 =   F
redata: Mix DM in first SCF step                    =   T
redata: Write Pulay info on disk                    =   F
redata: New DM Occupancy tolerance                  = 0.000000000001
redata: No kicks to SCF
redata: DM Mixing Weight for Kicks                  =     0.5000
redata: Require Harris convergence for SCF          =   F
redata: Harris energy tolerance for SCF             =     0.000100 eV
redata: Require DM convergence for SCF              =   T
redata: DM tolerance for SCF                        =     0.000008
redata: Require EDM convergence for SCF             =   F
redata: EDM tolerance for SCF                       =     0.001000 eV
redata: Require H convergence for SCF               =   T
redata: Hamiltonian tolerance for SCF               =     0.000001 eV
redata: Require (free) Energy convergence for SCF   =   F
redata: (free) Energy tolerance for SCF             =     0.000100 eV
redata: Using Saved Data (generic)                  =   F
redata: Use continuation files for DM               =   F
redata: Neglect nonoverlap interactions             =   F
redata: Method of Calculation                       = Diagonalization
redata: Electronic Temperature                      =   299.9978 K
redata: Fix the spin of the system                  =   F
redata: Dynamics option                             = Single-point calculation
mix.SCF: Pulay mixing                            = Pulay
mix.SCF:    Variant                              = stable
mix.SCF:    History steps                        = 6
mix.SCF:    Linear mixing weight                 =     0.250000
mix.SCF:    Mixing weight                        =     0.250000
mix.SCF:    SVD condition                        = 0.1000E-07
mix.SCF:    Restart steps                        = 24
mix.SCF:    Restart save steps                   = 3
mix.SCF: Spin-component mixing                   all
redata: Save all siesta data in one NC              =   F
redata: ***********************************************************************

%block SCF.Mixers
  Pulay
%endblock SCF.Mixers

%block SCF.Mixer.Pulay
  # Mixing method
  method pulay
  variant stable

  # Mixing options
  weight 0.2500
  weight.linear 0.2500
  history 6
  restart 24
  restart.save 3
%endblock SCF.Mixer.Pulay

DM_history_depth set to one: no extrapolation allowed by default for geometry relaxation
Size of DM history Fstack: 1
Total number of electrons:    98.000000
Total ionic charge:    98.000000

* ProcessorY, Blocksize:    2  24


* Orbital distribution balance (max,min):    81    72


Time-reversal symmetry not used.

siesta: k-grid: Number of k-points =     1
siesta: k-grid: Cutoff (effective) =     4.927 Ang
siesta: k-grid: Supercell and displacements
siesta: k-grid:    1   0   0      0.000
siesta: k-grid:    0   1   0      0.000
siesta: k-grid:    0   0   1      0.000

diag: Algorithm                                     = ELPA-1stage
diag: Parallel over k                               =   F
diag: Use parallel 2D distribution                  =   T
diag: Parallel block-size                           = 24
diag: Parallel distribution                         =     2 x     2
diag: Used triangular part                          = Lower
diag: Absolute tolerance                            =  0.100E-15
diag: Orthogonalization factor                      =  0.100E-05
diag: Memory factor                                 =  1.0000


ts: **************************************************************
ts: Save H and S matrices                           =    F
ts: Save DM and EDM matrices                        =    F
ts: Only save the overlap matrix S                  =    F
ts: **************************************************************

************************ Begin: TS CHECKS AND WARNINGS ************************
************************ End: TS CHECKS AND WARNINGS **************************


                     ====================================
                        Single-point calculation
                     ====================================

outcoor: Atomic coordinates (Ang):                          
    0.95867151    3.80352930    0.00000000   1       1  O
   -3.03868821    0.99807333    0.00000000   2       2  N
    2.06656775    1.09906577    0.00000000   2       3  N
    1.02956986   -1.83468085    0.00000000   2       4  N
   -2.10856766   -1.88179824    0.00000000   2       5  N
    3.91241107   -1.18089443    0.00000000   2       6  N
   -1.23563679    1.04498300    0.00000000   3       7  Si
   -0.50190924   -1.03183228    0.00000000   3       8  Si
    0.62946328    2.23275584    0.00000000   3       9  Si
    2.28005437   -0.65829354    0.00000000   3      10  Si
   -3.42481299   -0.66232416    0.00000000   3      11  Si
    2.96597416    1.68226399    0.00000000   4      12  H
   -4.79622939   -1.23872848    0.00000000   4      13  H
    4.09655941   -2.21414876    0.00000000   4      14  H
    4.79210868   -0.52914725    0.00000000   4      15  H
   -2.26686130   -2.92239373    0.00000000   4      16  H
    4.34611071    4.67616562    0.00000000   3      17  Si
    6.27158846    5.86779495    0.00000000   3      18  Si
    5.80678207    1.94161125    0.00000000   3      19  Si
    7.87796199    4.38865784    0.00000000   3      20  Si
    4.44839525    2.96681093    0.00000000   2      21  N
    2.76673262    5.34639511    0.00000000   2      22  N
    7.45985197    2.65677493    0.00000000   2      23  N
    6.58007928    7.33245631    0.00000000   4      24  H
    9.36963490    4.58863730    0.00000000   4      25  H
    2.58210618    6.38126884    0.00000000   4      26  H
    1.87464083    4.67510638    0.00000000   4      27  H
    5.79665147    0.34338273    0.00000000   1      28  O
    8.23645035    1.93494473    0.00000000   4      29  H

outcell: Unit cell vectors (Ang):
       23.171033    0.000000    0.000000
        0.000000   18.868918    0.000000
        0.000000    0.000000    9.854683

outcell: Cell vector modules (Ang)   :   23.171033   18.868918    9.854683
outcell: Cell angles (23,13,12) (deg):     90.0000     90.0000     90.0000
outcell: Cell volume (Ang**3)        :   4308.5890
<dSpData1D:S at geom step 0
  <sparsity:sparsity for geom step 0
    nrows_g=297 nrows=81 sparsity=.2394 nnzs=21117, refcount: 8>
  <dData1D:(new from dSpData1D) n=21117, refcount: 1>
refcount: 1>
new_DM -- step:     1
Initializing Density Matrix...
DM filled with atomic data:
<dSpData2D:DM initialized from atoms
  <sparsity:sparsity for geom step 0
    nrows_g=297 nrows=81 sparsity=.2394 nnzs=21117, refcount: 9>
  <dData2D:DM n=21117 m=8, refcount: 1>
refcount: 1>
     spin moment: S , {S} =   56.00000   0.00000   0.00000  56.00000
No. of atoms with KB's overlaping orbs in proc 0. Max # of overlaps:      29     214

Initializing spin-orbit part of the Hamiltonian
  Adding spin-orbit effects for O 
  Adding spin-orbit effects for N 
  Adding spin-orbit effects for Si
  Adding spin-orbit effects for H 


New grid distribution:   1
           1       1:  135    1:   54    1:   30
           2       1:  135    1:   54   31:   60
           3       1:  135   55:  108    1:   30
           4       1:  135   55:  108   31:   60

InitMesh: MESH =   270 x   216 x   120 =     6998400
InitMesh: (bp) =   135 x   108 x    60 =      874800
InitMesh: Mesh cutoff (required, used) =   340.000   362.172 Ry
ExtMesh (bp) on 0 =   243 x   158 x   142 =     5451948
New grid distribution:   2
           1      31:  135    1:   24    1:   60
           2       1:   30    1:   22    1:   60
           3      31:  135   25:  108    1:   60
           4       1:   30   23:  108    1:   60
New grid distribution:   3
           1      44:  135    1:   32    1:   60
           2       1:   43    1:   37    1:   60
           3      44:  135   33:  108    1:   60
           4       1:   43   38:  108    1:   60
Setting up quadratic distribution...
ExtMesh (bp) on 0 =   213 x   128 x   172 =     4689408
PhiOnMesh: Number of (b)points on node 0 =               151200
PhiOnMesh: nlist on node 0 =              2660166

stepf: Fermi-Dirac step function

siesta: Program's energy decomposition (eV):
siesta: Ebs     =      -608.323793
siesta: Eions   =      3585.165840
siesta: Ena     =       383.713864
siesta: Ekin    =      3377.666369
siesta: Enl     =     -3307.574749
siesta: Eso     =        -0.003488
siesta: Edftu   =         0.000000
siesta: DEna    =       156.148159
siesta: DUscf   =        78.719142
siesta: DUext   =         0.000000
siesta: Exc     =     -1207.230690
siesta: eta*DQ  =         0.000000
siesta: Emadel  =         0.000000
siesta: Emeta   =         0.000000
siesta: Emolmec =         0.000000
siesta: Ekinion =         0.000000
siesta: Eharris =     -4022.997257
siesta: Etot    =     -4103.727232
siesta: FreeEng =     -4103.728969

        iscf     Eharris(eV)        E_KS(eV)     FreeEng(eV)     dDmax    Ef(eV) dHmax(eV)
   scf:    1    -4022.997257    -4103.727232    -4103.728969  0.954654 -4.905164 19.868276
     spin moment: S , {S} =    2.01063  -0.00000   0.00000   2.01063
timer: Routine,Calls,Time,% = IterSCF        1      12.134  16.60
   scf:    2    -4150.743519    -4138.300626    -4138.302262  0.467109 -4.193479 10.785264
     spin moment: S , {S} =    1.99060   0.00000  -0.00000   1.99060
   scf:    3    -4112.475810    -4135.654797    -4135.676017  0.428042 -4.237645 11.263973
     spin moment: S , {S} =    2.00014   0.00000   0.00000   2.00014
   scf:    4    -4150.965991    -4146.124140    -4146.124141  0.299923 -3.855914  5.693504
     spin moment: S , {S} =    0.00009   0.00000   0.00000   0.00009
   scf:    5    -4147.274263    -4146.791172    -4146.791172  0.037534 -3.671425  4.403565
     spin moment: S , {S} =    0.00006   0.00000  -0.00000   0.00006
   scf:    6    -4147.616931    -4147.206509    -4147.206509  0.027254 -3.612374  2.088475
     spin moment: S , {S} =    0.00003   0.00000  -0.00000   0.00003
   scf:    7    -4147.561969    -4147.385643    -4147.385643  0.021316 -3.653253  0.812731
     spin moment: S , {S} =    0.00001  -0.00000  -0.00000   0.00001
   scf:    8    -4147.501131    -4147.441972    -4147.441972  0.012403 -3.742800  0.409249
     spin moment: S , {S} =    0.00000  -0.00000  -0.00000   0.00000
   scf:    9    -4147.478067    -4147.459538    -4147.459538  0.006771 -3.761625  0.271034
     spin moment: S , {S} =    0.00000   0.00000  -0.00000   0.00000
   scf:   10    -4147.501102    -4147.477860    -4147.477860  0.014030 -3.789296  0.121379
     spin moment: S , {S} =    0.00000   0.00000   0.00000  -0.00000
   scf:   11    -4147.482413    -4147.479979    -4147.479979  0.005018 -3.783662  0.057168
     spin moment: S , {S} =    0.00000  -0.00000  -0.00000   0.00000
   scf:   12    -4147.481474    -4147.480693    -4147.480693  0.002831 -3.780039  0.034541
     spin moment: S , {S} =    0.00000  -0.00000  -0.00000   0.00000
   scf:   13    -4147.481547    -4147.481093    -4147.481093  0.002234 -3.779876  0.029131
     spin moment: S , {S} =    0.00000  -0.00000  -0.00000   0.00000
   scf:   14    -4147.481972    -4147.481472    -4147.481472  0.003374 -3.777531  0.016680
     spin moment: S , {S} =    0.00000  -0.00000   0.00000   0.00000
   scf:   15    -4147.481825    -4147.481614    -4147.481614  0.002635 -3.778019  0.008312
     spin moment: S , {S} =    0.00000  -0.00000   0.00000   0.00000
   scf:   16    -4147.481677    -4147.481640    -4147.481640  0.001124 -3.778405  0.004990
     spin moment: S , {S} =    0.00000  -0.00000   0.00000   0.00000
   scf:   17    -4147.481655    -4147.481646    -4147.481646  0.000509 -3.778617  0.002963
     spin moment: S , {S} =    0.00000  -0.00000  -0.00000   0.00000
   scf:   18    -4147.481653    -4147.481649    -4147.481649  0.000332 -3.778694  0.001555
     spin moment: S , {S} =    0.00000  -0.00000  -0.00000  -0.00000
   scf:   19    -4147.481653    -4147.481651    -4147.481651  0.000217 -3.778688  0.000695
     spin moment: S , {S} =    0.00000  -0.00000  -0.00000  -0.00000
   scf:   20    -4147.481651    -4147.481651    -4147.481651  0.000092 -3.778619  0.000377
     spin moment: S , {S} =    0.00000  -0.00000  -0.00000  -0.00000
   scf:   21    -4147.481651    -4147.481651    -4147.481651  0.000090 -3.778567  0.000218
     spin moment: S , {S} =    0.00000  -0.00000  -0.00000  -0.00000
   scf:   22    -4147.481651    -4147.481651    -4147.481651  0.000016 -3.778549  0.000108
     spin moment: S , {S} =    0.00000  -0.00000  -0.00000  -0.00000
   scf:   23    -4147.481651    -4147.481651    -4147.481651  0.000007 -3.778545  0.000059
     spin moment: S , {S} =    0.00000  -0.00000  -0.00000  -0.00000
   scf:   24    -4147.481651    -4147.481651    -4147.481651  0.000009 -3.778541  0.000024
     spin moment: S , {S} =    0.00000  -0.00000  -0.00000  -0.00000
mix: Pulay -- resetting history
   scf:   25    -4147.481651    -4147.481651    -4147.481651  0.000003 -3.778541  0.000018
     spin moment: S , {S} =    0.00000  -0.00000  -0.00000  -0.00000
   scf:   26    -4147.481651    -4147.481651    -4147.481651  0.000001 -3.778541  0.000012
     spin moment: S , {S} =    0.00000  -0.00000  -0.00000  -0.00000
   scf:   27    -4147.481651    -4147.481651    -4147.481651  0.000001 -3.778541  0.000007
     spin moment: S , {S} =    0.00000  -0.00000  -0.00000  -0.00000
   scf:   28    -4147.481651    -4147.481651    -4147.481651  0.000001 -3.778541  0.000003
     spin moment: S , {S} =    0.00000  -0.00000  -0.00000  -0.00000
   scf:   29    -4147.481651    -4147.481651    -4147.481651  0.000000 -3.778541  0.000002
     spin moment: S , {S} =    0.00000  -0.00000  -0.00000  -0.00000
   scf:   30    -4147.481651    -4147.481651    -4147.481651  0.000000 -3.778541  0.000001
     spin moment: S , {S} =    0.00000  -0.00000  -0.00000  -0.00000

SCF Convergence by DM+H criterion
max |DM_out - DM_in|         :     0.0000002662
max |H_out - H_in|      (eV) :     0.0000008193
SCF cycle converged after 30 iterations

Using DM_out to compute the final energy and forces
No. of atoms with KB's overlaping orbs in proc 0. Max # of overlaps:      29     214

siesta: E_KS(eV) =            -4147.4817

siesta: E_KS - E_eggbox =     -4147.4817
     spin moment: S , {S} =    0.00000  -0.00000  -0.00000  -0.00000

siesta: Atomic forces (eV/Ang):
     1   -4.694019   -0.104579    0.000000
     2   -0.025642   -0.005528    0.000000
     3   -0.423772   -0.011757   -0.000000
     4   -0.308766    0.036520    0.000000
     5   -0.014569    0.048398    0.000000
     6   -1.595406   -1.044710   -0.000000
     7   -0.009231    0.099740   -0.000000
     8    0.144532   -0.119325   -0.000000
     9   -0.020877   -0.583740   -0.000000
    10    0.318952   -0.223194    0.000000
    11    0.010331    0.006322   -0.000000
    12    0.281216    0.192228    0.000000
    13   -0.220011    0.087344    0.000000
    14   -0.107328   -0.210916    0.000000
    15    0.175684    0.266660   -0.000000
    16   -0.022627   -0.165020   -0.000000
    17   -0.312827    0.524172    0.000000
    18    0.083641   -0.089780   -0.000000
    19    0.184933    0.470388    0.000000
    20    0.019412    0.171834    0.000000
    21    0.193433   -0.285061   -0.000000
    22    1.970721    1.350266    0.000000
    23   -0.135038   -0.209745    0.000000
    24    0.019525    0.107577    0.000000
    25   -0.015913   -0.020095   -0.000000
    26    0.072411    0.108888   -0.000000
    27   -0.258915   -0.402486    0.000000
    28    2.014978    2.781534   -0.000000
    29    0.012135   -0.092697   -0.000000
----------------------------------------
   Tot   -2.663035    2.683236    0.000000
----------------------------------------
   Max    4.694019
   Res    0.723040    sqrt( Sum f_i^2 / 3N )
----------------------------------------
   Max    4.694019    constrained

Stress tensor Voigt[x,y,z,yz,xz,xy] (kbar):       -2.74       -2.82       -0.10       -0.00        0.00       -2.70
(Free)E + p*V (eV/cell)    -4142.4047
Target enthalpy (eV/cell)    -4147.4817

mulliken: Atomic and Orbital Populations:

Species: O                   

Atom      Orb        Charge      Spin       Svec
----------------------------------------------------------------
    1  1 2s         1.67355   0.00000     -0.000  -0.000   0.000
    1  2 2s         0.07979   0.00000      0.000   0.000   0.000
    1  3 2py        1.29826   0.00000      0.000   0.000   0.000
    1  4 2pz        1.64604   0.00000      0.000   0.000   0.000
    1  5 2px        1.64169   0.00000     -0.000  -0.000   0.000
    1  6 2py        0.11823   0.00000     -0.000   0.000   0.000
    1  7 2pz       -0.01940   0.00000     -0.000  -0.000   0.000
    1  8 2px        0.00520   0.00000     -0.000   0.000   0.000
    1  9 3Pdxy      0.01093   0.00000     -0.000  -0.000  -0.000
    1 10 3Pdyz      0.00686   0.00000     -0.000   0.000   0.000
    1 11 3Pdz2      0.00255   0.00000     -0.000  -0.000   0.000
    1 12 3Pdxz      0.00013   0.00000      0.000   0.000   0.000
    1 13 3Pdx2-y2   0.00469   0.00000     -0.000   0.000  -0.000
    1     Total     6.46852   0.00000      0.000   0.000   0.000

   28  1 2s         1.69870   0.00000     -0.000   0.000   0.000
   28  2 2s         0.07311   0.00000      0.000  -0.000  -0.000
   28  3 2py        1.30597   0.00000      0.000   0.000   0.000
   28  4 2pz        1.63010   0.00000     -0.000   0.000   0.000
   28  5 2px        1.66610   0.00000      0.000   0.000  -0.000
   28  6 2py        0.10570   0.00000     -0.000   0.000  -0.000
   28  7 2pz       -0.01777   0.00000      0.000  -0.000   0.000
   28  8 2px       -0.00287   0.00000     -0.000  -0.000   0.000
   28  9 3Pdxy      0.01113   0.00000      0.000  -0.000  -0.000
   28 10 3Pdyz      0.00789   0.00000     -0.000  -0.000   0.000
   28 11 3Pdz2      0.00224   0.00000      0.000   0.000  -0.000
   28 12 3Pdxz      0.00016   0.00000      0.000   0.000   0.000
   28 13 3Pdx2-y2   0.00608   0.00000     -0.000   0.000   0.000
   28     Total     6.48653   0.00000     -0.000   0.000   0.000

----------------------------------------------------------------
Total              12.95505   0.00000     -0.000   0.000   0.000


Species: N                   

Atom      Orb        Charge      Spin       Svec
----------------------------------------------------------------
    2  1 2s         1.55334   0.00000      0.000  -0.000   0.000
    2  2 2s         0.08375   0.00000     -0.000   0.000   0.000
    2  3 2py        1.04103   0.00000      0.000   0.000   0.000
    2  4 2pz        1.22495   0.00000     -0.000   0.000   0.000
    2  5 2px        0.98829   0.00000      0.000  -0.000   0.000
    2  6 2py        0.18845   0.00000     -0.000  -0.000  -0.000
    2  7 2pz        0.05630   0.00000      0.000  -0.000  -0.000
    2  8 2px        0.19552   0.00000     -0.000   0.000  -0.000
    2  9 3Pdxy      0.00854   0.00000      0.000   0.000   0.000
    2 10 3Pdyz      0.01120   0.00000     -0.000   0.000  -0.000
    2 11 3Pdz2      0.00191   0.00000      0.000   0.000  -0.000
    2 12 3Pdxz      0.00759   0.00000     -0.000   0.000  -0.000
    2 13 3Pdx2-y2   0.00930   0.00000     -0.000   0.000   0.000
    2     Total     5.37018   0.00000      0.000  -0.000   0.000

    3  1 2s         1.37804   0.00000      0.000  -0.000  -0.000
    3  2 2s         0.12525   0.00000     -0.000   0.000   0.000
    3  3 2py        0.93353   0.00000     -0.000  -0.000  -0.000
    3  4 2pz        1.53172   0.00000      0.000   0.000  -0.000
    3  5 2px        1.06017   0.00000      0.000  -0.000  -0.000
    3  6 2py        0.25881   0.00000      0.000   0.000   0.000
    3  7 2pz        0.00616   0.00000     -0.000  -0.000   0.000
    3  8 2px        0.19546   0.00000     -0.000  -0.000   0.000
    3  9 3Pdxy      0.00426   0.00000     -0.000  -0.000  -0.000
    3 10 3Pdyz      0.00385   0.00000      0.000   0.000   0.000
    3 11 3Pdz2      0.00040   0.00000     -0.000   0.000  -0.000
    3 12 3Pdxz      0.00287   0.00000     -0.000  -0.000   0.000
    3 13 3Pdx2-y2   0.00240   0.00000     -0.000  -0.000  -0.000
    3     Total     5.50293   0.00000      0.000  -0.000  -0.000

    4  1 2s         1.46350   0.00000      0.000  -0.000  -0.000
    4  2 2s         0.11894   0.00000     -0.000   0.000   0.000
    4  3 2py        1.12872   0.00000     -0.000   0.000  -0.000
    4  4 2pz        1.28732   0.00000      0.000   0.000  -0.000
    4  5 2px        0.82568   0.00000      0.000  -0.000  -0.000
    4  6 2py        0.15114   0.00000     -0.000  -0.000  -0.000
    4  7 2pz        0.05398   0.00000     -0.000  -0.000   0.000
    4  8 2px        0.29122   0.00000     -0.000   0.000   0.000
    4  9 3Pdxy      0.00872   0.00000     -0.000   0.000  -0.000
    4 10 3Pdyz      0.01048   0.00000      0.000   0.000   0.000
    4 11 3Pdz2      0.00130   0.00000      0.000   0.000  -0.000
    4 12 3Pdxz      0.00474   0.00000      0.000  -0.000  -0.000
    4 13 3Pdx2-y2   0.00792   0.00000      0.000   0.000   0.000
    4     Total     5.35367   0.00000     -0.000  -0.000  -0.000

    5  1 2s         1.37150   0.00000     -0.000   0.000   0.000
    5  2 2s         0.12996   0.00000      0.000   0.000  -0.000
    5  3 2py        1.02770   0.00000      0.000   0.000   0.000
    5  4 2pz        1.49834   0.00000      0.000   0.000   0.000
    5  5 2px        1.05673   0.00000     -0.000  -0.000   0.000
    5  6 2py        0.20564   0.00000      0.000  -0.000  -0.000
    5  7 2pz        0.01373   0.00000     -0.000  -0.000  -0.000
    5  8 2px        0.20552   0.00000     -0.000   0.000  -0.000
    5  9 3Pdxy      0.00386   0.00000     -0.000  -0.000  -0.000
    5 10 3Pdyz      0.00245   0.00000      0.000  -0.000  -0.000
    5 11 3Pdz2      0.00141   0.00000     -0.000  -0.000  -0.000
    5 12 3Pdxz      0.00656   0.00000     -0.000   0.000  -0.000
    5 13 3Pdx2-y2   0.00557   0.00000     -0.000  -0.000  -0.000
    5     Total     5.52897   0.00000     -0.000   0.000   0.000

    6  1 2s         1.28172   0.00000     -0.000  -0.000  -0.000
    6  2 2s         0.17573   0.00000      0.000   0.000   0.000
    6  3 2py        1.07032   0.00000      0.000   0.000   0.000
    6  4 2pz        1.48176   0.00000     -0.000  -0.000   0.000
    6  5 2px        0.98918   0.00000      0.000   0.000  -0.000
    6  6 2py        0.19542   0.00000     -0.000  -0.000   0.000
    6  7 2pz        0.03735   0.00000      0.000   0.000   0.000
    6  8 2px        0.25373   0.00000     -0.000  -0.000   0.000
    6  9 3Pdxy      0.00410   0.00000     -0.000  -0.000   0.000
    6 10 3Pdyz      0.00001   0.00000      0.000  -0.000  -0.000
    6 11 3Pdz2      0.00210   0.00000      0.000   0.000  -0.000
    6 12 3Pdxz      0.00430   0.00000      0.000  -0.000  -0.000
    6 13 3Pdx2-y2   0.00465   0.00000      0.000  -0.000  -0.000
    6     Total     5.50037   0.00000     -0.000   0.000   0.000

   21  1 2s         1.41294   0.00000      0.000   0.000  -0.000
   21  2 2s         0.12644   0.00000     -0.000  -0.000   0.000
   21  3 2py        0.90231   0.00000      0.000  -0.000   0.000
   21  4 2pz        1.33971   0.00000      0.000  -0.000   0.000
   21  5 2px        1.15590   0.00000     -0.000   0.000   0.000
   21  6 2py        0.26906   0.00000     -0.000  -0.000  -0.000
   21  7 2pz        0.03865   0.00000     -0.000   0.000   0.000
   21  8 2px        0.16187   0.00000      0.000  -0.000  -0.000
   21  9 3Pdxy      0.00690   0.00000      0.000   0.000  -0.000
   21 10 3Pdyz      0.00440   0.00000      0.000   0.000   0.000
   21 11 3Pdz2      0.00006   0.00000      0.000  -0.000   0.000
   21 12 3Pdxz      0.00560   0.00000     -0.000  -0.000  -0.000
   21 13 3Pdx2-y2   0.00577   0.00000     -0.000   0.000   0.000
   21     Total     5.42960   0.00000      0.000  -0.000   0.000

   22  1 2s         1.30782   0.00000      0.000   0.000   0.000
   22  2 2s         0.16688   0.00000     -0.000  -0.000  -0.000
   22  3 2py        1.06964   0.00000      0.000  -0.000   0.000
   22  4 2pz        1.43242   0.00000     -0.000  -0.000  -0.000
   22  5 2px        1.03561   0.00000      0.000   0.000  -0.000
   22  6 2py        0.19826   0.00000     -0.000   0.000  -0.000
   22  7 2pz        0.03684   0.00000      0.000  -0.000  -0.000
   22  8 2px        0.22717   0.00000     -0.000  -0.000   0.000
   22  9 3Pdxy      0.00565   0.00000     -0.000  -0.000  -0.000
   22 10 3Pdyz      0.00009   0.00000      0.000   0.000  -0.000
   22 11 3Pdz2      0.00277   0.00000     -0.000   0.000  -0.000
   22 12 3Pdxz      0.00470   0.00000      0.000   0.000   0.000
   22 13 3Pdx2-y2   0.00510   0.00000      0.000  -0.000  -0.000
   22     Total     5.49296   0.00000      0.000  -0.000  -0.000

   23  1 2s         1.36114   0.00000      0.000   0.000   0.000
   23  2 2s         0.13502   0.00000     -0.000  -0.000  -0.000
   23  3 2py        1.01026   0.00000     -0.000   0.000  -0.000
   23  4 2pz        1.53839   0.00000     -0.000  -0.000   0.000
   23  5 2px        1.04131   0.00000      0.000   0.000   0.000
   23  6 2py        0.21740   0.00000      0.000  -0.000   0.000
   23  7 2pz        0.00440   0.00000     -0.000   0.000   0.000
   23  8 2px        0.20743   0.00000     -0.000  -0.000   0.000
   23  9 3Pdxy      0.00520   0.00000     -0.000   0.000  -0.000
   23 10 3Pdyz      0.00466   0.00000     -0.000  -0.000   0.000
   23 11 3Pdz2      0.00076   0.00000     -0.000  -0.000  -0.000
   23 12 3Pdxz      0.00241   0.00000      0.000   0.000   0.000
   23 13 3Pdx2-y2   0.00149   0.00000     -0.000   0.000   0.000
   23     Total     5.52987   0.00000     -0.000  -0.000   0.000

----------------------------------------------------------------
Total              56.66359   0.00000      0.000  -0.000   0.000


Species: Si                  

Atom      Orb        Charge      Spin       Svec
----------------------------------------------------------------
    7  1 3s         0.64089   0.00000      0.000   0.000  -0.000
    7  2 3s         0.37675   0.00000      0.000  -0.000  -0.000
    7  3 3py        0.46367   0.00000     -0.000   0.000   0.000
    7  4 3pz        0.68470   0.00000     -0.000  -0.000  -0.000
    7  5 3px        0.10988   0.00000      0.000  -0.000  -0.000
    7  6 3py        0.28311   0.00000      0.000  -0.000  -0.000
    7  7 3pz        0.26747   0.00000      0.000   0.000  -0.000
    7  8 3px        0.45057   0.00000     -0.000   0.000  -0.000
    7  9 3Pdxy      0.25264   0.00000      0.000  -0.000  -0.000
    7 10 3Pdyz      0.02859   0.00000      0.000  -0.000  -0.000
    7 11 3Pdz2      0.01077   0.00000      0.000   0.000  -0.000
    7 12 3Pdxz      0.15371   0.00000      0.000   0.000   0.000
    7 13 3Pdx2-y2   0.11140   0.00000      0.000  -0.000   0.000
    7     Total     3.83414   0.00000      0.000  -0.000  -0.000

    8  1 3s         0.65269   0.00000     -0.000   0.000  -0.000
    8  2 3s         0.37039   0.00000      0.000  -0.000  -0.000
    8  3 3py        0.39954   0.00000      0.000   0.000   0.000
    8  4 3pz        0.49334   0.00000      0.000  -0.000  -0.000
    8  5 3px       -0.01513   0.00000     -0.000   0.000   0.000
    8  6 3py        0.30355   0.00000     -0.000  -0.000  -0.000
    8  7 3pz        0.20731   0.00000      0.000   0.000  -0.000
    8  8 3px        0.51164   0.00000      0.000  -0.000   0.000
    8  9 3Pdxy      0.25024   0.00000     -0.000  -0.000  -0.000
    8 10 3Pdyz      0.11139   0.00000      0.000   0.000   0.000
    8 11 3Pdz2      0.01387   0.00000      0.000  -0.000  -0.000
    8 12 3Pdxz      0.15851   0.00000      0.000  -0.000  -0.000
    8 13 3Pdx2-y2   0.20378   0.00000      0.000  -0.000  -0.000
    8     Total     3.66112   0.00000      0.000   0.000  -0.000

    9  1 3s         0.58097   0.00000     -0.000  -0.000   0.000
    9  2 3s         0.37611   0.00000      0.000   0.000   0.000
    9  3 3py        0.11909   0.00000     -0.000  -0.000   0.000
    9  4 3pz        0.46376   0.00000      0.000   0.000   0.000
    9  5 3px        0.33210   0.00000      0.000   0.000   0.000
    9  6 3py        0.38949   0.00000      0.000   0.000   0.000
    9  7 3pz        0.19897   0.00000     -0.000  -0.000   0.000
    9  8 3px        0.30211   0.00000     -0.000  -0.000  -0.000
    9  9 3Pdxy      0.27712   0.00000     -0.000   0.000   0.000
    9 10 3Pdyz      0.18467   0.00000     -0.000  -0.000   0.000
    9 11 3Pdz2      0.00961   0.00000     -0.000  -0.000   0.000
    9 12 3Pdxz      0.11182   0.00000     -0.000  -0.000   0.000
    9 13 3Pdx2-y2   0.18129   0.00000      0.000   0.000  -0.000
    9     Total     3.52711   0.00000     -0.000  -0.000   0.000

   10  1 3s         0.49189   0.00000     -0.000   0.000  -0.000
   10  2 3s         0.37315   0.00000      0.000  -0.000  -0.000
   10  3 3py        0.24618   0.00000     -0.000   0.000   0.000
   10  4 3pz        0.42973   0.00000      0.000  -0.000   0.000
   10  5 3px        0.09189   0.00000      0.000  -0.000  -0.000
   10  6 3py        0.31655   0.00000      0.000  -0.000  -0.000
   10  7 3pz        0.21305   0.00000      0.000   0.000  -0.000
   10  8 3px        0.45406   0.00000     -0.000  -0.000   0.000
   10  9 3Pdxy      0.18340   0.00000     -0.000   0.000   0.000
   10 10 3Pdyz      0.12726   0.00000      0.000  -0.000  -0.000
   10 11 3Pdz2      0.00922   0.00000     -0.000   0.000  -0.000
   10 12 3Pdxz      0.18832   0.00000      0.000   0.000  -0.000
   10 13 3Pdx2-y2   0.30857   0.00000      0.000  -0.000   0.000
   10     Total     3.43326   0.00000     -0.000  -0.000  -0.000

   11  1 3s         0.55140   0.00000      0.000  -0.000  -0.000
   11  2 3s         0.38673   0.00000     -0.000   0.000  -0.000
   11  3 3py        0.31125   0.00000      0.000   0.000  -0.000
   11  4 3pz        0.52753   0.00000     -0.000  -0.000  -0.000
   11  5 3px        0.13152   0.00000     -0.000  -0.000  -0.000
   11  6 3py        0.29929   0.00000     -0.000  -0.000  -0.000
   11  7 3pz        0.17988   0.00000     -0.000   0.000  -0.000
   11  8 3px        0.44303   0.00000      0.000   0.000   0.000
   11  9 3Pdxy      0.23609   0.00000      0.000  -0.000  -0.000
   11 10 3Pdyz      0.12967   0.00000      0.000  -0.000  -0.000
   11 11 3Pdz2      0.00999   0.00000      0.000   0.000   0.000
   11 12 3Pdxz      0.05430   0.00000      0.000   0.000  -0.000
   11 13 3Pdx2-y2   0.19843   0.00000     -0.000   0.000  -0.000
   11     Total     3.45912   0.00000     -0.000   0.000  -0.000

   17  1 3s         0.64563   0.00000      0.000  -0.000   0.000
   17  2 3s         0.35418   0.00000     -0.000   0.000  -0.000
   17  3 3py        0.23162   0.00000     -0.000   0.000   0.000
   17  4 3pz        0.43519   0.00000      0.000   0.000   0.000
   17  5 3px        0.22413   0.00000     -0.000  -0.000   0.000
   17  6 3py        0.36050   0.00000      0.000  -0.000   0.000
   17  7 3pz        0.21234   0.00000      0.000   0.000   0.000
   17  8 3px        0.39584   0.00000      0.000   0.000   0.000
   17  9 3Pdxy      0.27334   0.00000      0.000  -0.000  -0.000
   17 10 3Pdyz      0.12876   0.00000      0.000   0.000   0.000
   17 11 3Pdz2      0.00747   0.00000     -0.000  -0.000  -0.000
   17 12 3Pdxz      0.15058   0.00000      0.000   0.000  -0.000
   17 13 3Pdx2-y2   0.18662   0.00000     -0.000  -0.000  -0.000
   17     Total     3.60621   0.00000      0.000   0.000   0.000

   18  1 3s         0.75504   0.00000     -0.000  -0.000  -0.000
   18  2 3s         0.33932   0.00000      0.000   0.000   0.000
   18  3 3py        0.08088   0.00000     -0.000  -0.000  -0.000
   18  4 3pz        0.79898   0.00000     -0.000  -0.000  -0.000
   18  5 3px        0.54114   0.00000      0.000   0.000  -0.000
   18  6 3py        0.51749   0.00000      0.000   0.000  -0.000
   18  7 3pz        0.19487   0.00000      0.000   0.000  -0.000
   18  8 3px        0.26149   0.00000     -0.000   0.000  -0.000
   18  9 3Pdxy      0.10602   0.00000      0.000   0.000   0.000
   18 10 3Pdyz      0.02646   0.00000      0.000   0.000   0.000
   18 11 3Pdz2      0.00908   0.00000     -0.000  -0.000   0.000
   18 12 3Pdxz      0.03384   0.00000      0.000   0.000   0.000
   18 13 3Pdx2-y2   0.10406   0.00000     -0.000   0.000  -0.000
   18     Total     3.76868   0.00000     -0.000   0.000  -0.000

   19  1 3s         0.45065   0.00000      0.000  -0.000  -0.000
   19  2 3s         0.36567   0.00000      0.000   0.000  -0.000
   19  3 3py        0.08275   0.00000     -0.000   0.000  -0.000
   19  4 3pz        0.38938   0.00000      0.000  -0.000  -0.000
   19  5 3px        0.23198   0.00000     -0.000  -0.000  -0.000
   19  6 3py        0.44154   0.00000      0.000  -0.000  -0.000
   19  7 3pz        0.20018   0.00000     -0.000   0.000  -0.000
   19  8 3px        0.31689   0.00000      0.000  -0.000   0.000
   19  9 3Pdxy      0.30672   0.00000      0.000  -0.000  -0.000
   19 10 3Pdyz      0.17806   0.00000     -0.000   0.000  -0.000
   19 11 3Pdz2      0.00947   0.00000     -0.000   0.000   0.000
   19 12 3Pdxz      0.10652   0.00000     -0.000  -0.000  -0.000
   19 13 3Pdx2-y2   0.24148   0.00000      0.000  -0.000  -0.000
   19     Total     3.32129   0.00000      0.000  -0.000  -0.000

   20  1 3s         0.68310   0.00000      0.000  -0.000   0.000
   20  2 3s         0.37485   0.00000     -0.000   0.000   0.000
   20  3 3py        0.34044   0.00000      0.000  -0.000   0.000
   20  4 3pz        0.61795   0.00000      0.000  -0.000   0.000
   20  5 3px        0.14054   0.00000      0.000   0.000   0.000
   20  6 3py        0.27943   0.00000     -0.000   0.000   0.000
   20  7 3pz        0.15953   0.00000     -0.000   0.000   0.000
   20  8 3px        0.50147   0.00000     -0.000  -0.000  -0.000
   20  9 3Pdxy      0.09857   0.00000     -0.000   0.000   0.000
   20 10 3Pdyz      0.12715   0.00000     -0.000   0.000   0.000
   20 11 3Pdz2      0.00764   0.00000      0.000   0.000  -0.000
   20 12 3Pdxz      0.02676   0.00000      0.000   0.000  -0.000
   20 13 3Pdx2-y2   0.17706   0.00000      0.000  -0.000   0.000
   20     Total     3.53450   0.00000      0.000  -0.000   0.000

----------------------------------------------------------------
Total              88.80903   0.00000      0.000   0.000  -0.000


Species: H                   

Atom      Orb        Charge      Spin       Svec
----------------------------------------------------------------
   12  1 1s         0.48259   0.00000     -0.000  -0.000  -0.000
   12  2 1s         0.17685   0.00000      0.000   0.000  -0.000
   12  3 2Ppy       0.05262   0.00000     -0.000   0.000   0.000
   12  4 2Ppz       0.03374   0.00000     -0.000  -0.000  -0.000
   12  5 2Ppx       0.05983   0.00000      0.000  -0.000   0.000
   12     Total     0.80563   0.00000     -0.000  -0.000  -0.000

   13  1 1s         1.01854   0.00000     -0.000  -0.000   0.000
   13  2 1s         0.09730   0.00000     -0.000   0.000  -0.000
   13  3 2Ppy       0.01914   0.00000      0.000   0.000   0.000
   13  4 2Ppz       0.02007   0.00000      0.000   0.000  -0.000
   13  5 2Ppx       0.03328   0.00000     -0.000   0.000   0.000
   13     Total     1.18833   0.00000     -0.000  -0.000   0.000

   14  1 1s         0.49855   0.00000     -0.000  -0.000  -0.000
   14  2 1s         0.19431   0.00000      0.000   0.000  -0.000
   14  3 2Ppy       0.02176   0.00000      0.000   0.000   0.000
   14  4 2Ppz       0.04958   0.00000      0.000  -0.000  -0.000
   14  5 2Ppx       0.02432   0.00000     -0.000   0.000   0.000
   14     Total     0.78852   0.00000      0.000  -0.000  -0.000

   15  1 1s         0.39074   0.00000      0.000  -0.000  -0.000
   15  2 1s         0.19224   0.00000     -0.000   0.000  -0.000
   15  3 2Ppy       0.07160   0.00000     -0.000   0.000   0.000
   15  4 2Ppz       0.05584   0.00000      0.000   0.000  -0.000
   15  5 2Ppx       0.11306   0.00000     -0.000  -0.000  -0.000
   15     Total     0.82348   0.00000     -0.000  -0.000  -0.000

   16  1 1s         0.50340   0.00000      0.000  -0.000  -0.000
   16  2 1s         0.19052   0.00000     -0.000   0.000  -0.000
   16  3 2Ppy       0.02897   0.00000      0.000  -0.000  -0.000
   16  4 2Ppz       0.03938   0.00000      0.000  -0.000  -0.000
   16  5 2Ppx       0.02416   0.00000     -0.000   0.000  -0.000
   16     Total     0.78643   0.00000     -0.000  -0.000  -0.000

   24  1 1s         1.05769   0.00000     -0.000   0.000   0.000
   24  2 1s         0.07600   0.00000      0.000   0.000   0.000
   24  3 2Ppy       0.03073   0.00000      0.000  -0.000  -0.000
   24  4 2Ppz       0.02990   0.00000     -0.000   0.000  -0.000
   24  5 2Ppx       0.01791   0.00000     -0.000   0.000   0.000
   24     Total     1.21223   0.00000     -0.000   0.000   0.000

   25  1 1s         1.04582   0.00000     -0.000   0.000  -0.000
   25  2 1s         0.08516   0.00000      0.000   0.000   0.000
   25  3 2Ppy       0.01142   0.00000     -0.000   0.000  -0.000
   25  4 2Ppz       0.01922   0.00000     -0.000  -0.000   0.000
   25  5 2Ppx       0.03581   0.00000      0.000  -0.000   0.000
   25     Total     1.19742   0.00000     -0.000  -0.000  -0.000

   26  1 1s         0.50376   0.00000      0.000  -0.000  -0.000
   26  2 1s         0.19297   0.00000      0.000   0.000  -0.000
   26  3 2Ppy       0.02480   0.00000      0.000   0.000  -0.000
   26  4 2Ppz       0.04860   0.00000      0.000  -0.000  -0.000
   26  5 2Ppx       0.02433   0.00000     -0.000  -0.000  -0.000
   26     Total     0.79445   0.00000      0.000  -0.000  -0.000

   27  1 1s         0.37392   0.00000      0.000  -0.000   0.000
   27  2 1s         0.19502   0.00000     -0.000   0.000  -0.000
   27  3 2Ppy       0.08376   0.00000     -0.000   0.000  -0.000
   27  4 2Ppz       0.05610   0.00000     -0.000  -0.000  -0.000
   27  5 2Ppx       0.11903   0.00000      0.000  -0.000  -0.000
   27     Total     0.82783   0.00000      0.000  -0.000   0.000

   29  1 1s         0.49058   0.00000     -0.000   0.000  -0.000
   29  2 1s         0.18826   0.00000      0.000  -0.000  -0.000
   29  3 2Ppy       0.02473   0.00000     -0.000   0.000   0.000
   29  4 2Ppz       0.03506   0.00000      0.000  -0.000  -0.000
   29  5 2Ppx       0.02802   0.00000      0.000  -0.000  -0.000
   29     Total     0.76664   0.00000     -0.000  -0.000  -0.000

----------------------------------------------------------------
Total              98.00000   0.00000     -0.000  -0.000  -0.000


siesta: Eigenvalues (eV):
ik =     1
  -23.4268  -23.4268  -23.0543  -23.0543  -21.5385  -21.5385  -21.2733  -21.2733  -20.8141  -20.8141
  -20.4806  -20.4806  -20.0508  -20.0508  -19.6573  -19.6573  -19.4556  -19.4556  -19.3583  -19.3583
  -14.7669  -14.7669  -13.8957  -13.8956  -13.3213  -13.3213  -13.1980  -13.1980  -13.1142  -13.1142
  -12.8267  -12.8267  -12.4865  -12.4865  -12.1327  -12.1327  -12.0447  -12.0447  -11.9293  -11.9293
  -10.9710  -10.9710  -10.7880  -10.7880  -10.5578  -10.5578  -10.2491  -10.2491  -10.1619  -10.1619
   -9.7455   -9.7455   -9.1574   -9.1574   -8.9327   -8.9327   -8.8311   -8.8311   -8.8082   -8.8082
   -8.4305   -8.4305   -8.4110   -8.4110   -8.2753   -8.2753   -7.9828   -7.9828   -7.7643   -7.7643
   -7.5980   -7.5980   -7.5450   -7.5450   -7.4021   -7.4021   -7.2425   -7.2425   -6.9663   -6.9663
   -6.8072   -6.8072   -6.6893   -6.6893   -6.5098   -6.5098   -6.4209   -6.4209   -6.1939   -6.1939
   -5.9579   -5.9579   -5.8571   -5.8571   -5.5195   -5.5195   -4.3278   -4.3278   -3.2292   -3.2292
   -2.3744   -2.3744   -2.2509   -2.2509   -2.1665   -2.1665   -1.9167   -1.9167   -1.9036   -1.9036
   -1.8315   -1.8315   -1.6489   -1.6489   -1.5546   -1.5546   -1.1833   -1.1833   -1.0190   -1.0190
   -0.9330   -0.9330   -0.5196   -0.5196   -0.4169   -0.4169   -0.2946   -0.2946    0.4309    0.4309
    0.5100    0.5100    0.5464    0.5464    0.7276    0.7276    1.0503    1.0503    1.1490    1.1490
    1.3923    1.3923    1.4125    1.4125    1.5686    1.5686    1.6565    1.6565    2.0710    2.0710
    2.1754    2.1754    2.6553    2.6553    2.7048    2.7048    2.7741    2.7741    2.9124    2.9124
    3.0646    3.0646    3.2232    3.2232    3.4358    3.4358    3.5302    3.5302    3.7652    3.7652
    3.9359    3.9359    4.0816    4.0816    4.1374    4.1374    4.3086    4.3086    4.5808    4.5808
    4.6022    4.6022    4.8048    4.8048    4.9326    4.9326    5.0082    5.0082    5.3230    5.3230
    5.3436    5.3436    5.6190    5.6190    5.7375    5.7375    5.9047    5.9047    5.9705    5.9705
    6.1124    6.1124    6.4173    6.4173    6.4470    6.4470    6.5486    6.5486    6.7136    6.7136
    6.9820    6.9820    7.1449    7.1449    7.2279    7.2279    7.3061    7.3061    7.3192    7.3192
    7.5638    7.5638    7.7201    7.7201    7.7764    7.7764    8.0546    8.0546    8.1032    8.1032
    8.2873    8.2873    8.6145    8.6145    8.6483    8.6483    8.7972    8.7972    8.8055    8.8055
    8.9645    8.9645    9.1305    9.1305    9.4233    9.4233    9.5702    9.5702    9.8205    9.8205
    9.8889    9.8889   10.0323   10.0323   10.0579   10.0579   10.3074   10.3074   10.4159   10.4159
   10.8314   10.8314   10.8695   10.8695   11.2465   11.2465   11.3359   11.3359   11.4418   11.4418
   11.4593   11.4593   11.7759   11.7759   12.3838   12.3838   12.5516   12.5516   12.5745   12.5745
   12.6611   12.6611   12.8776   12.8776   13.3342   13.3342   13.5304   13.5304   13.5837   13.5837
   13.6799   13.6799   13.9410   13.9410   14.2138   14.2138   14.2914   14.2914   14.4193   14.4193
   14.8972   14.8972   15.0189   15.0189   15.2791   15.2791   15.4949   15.4949   15.5308   15.5308
   15.8911   15.8911   16.7198   16.7198   16.7776   16.7776   17.1175   17.1175   17.2824   17.2824
   17.5179   17.5179   17.8767   17.8767   18.7677   18.7677   19.0668   19.0668   19.3890   19.3890
   19.8131   19.8131   20.2564   20.2564   20.4061   20.4061   20.9926   20.9926   21.0742   21.0742
   21.3991   21.3991   22.1633   22.1633   22.5082   22.5082   23.1748   23.1748   23.4995   23.4995
   23.8657   23.8657   24.1518   24.1518   24.4028   24.4028   24.9807   24.9807   25.2632   25.2632
   26.3491   26.3491   26.5684   26.5684   27.2168   27.2168   28.0812   28.0812   29.0165   29.0165
   29.4886   29.4886   29.6619   29.6619   30.2532   30.2532   30.4295   30.4295   30.9229   30.9229
   30.9487   30.9487   30.9832   30.9832   31.4689   31.4689   31.7919   31.7919   31.8760   31.8760
   33.5608   33.5608   33.9181   33.9181   34.0390   34.0390   34.2365   34.2365   35.3612   35.3612
   35.5164   35.5164   35.6066   35.6066   36.4903   36.4903   36.7732   36.7732   36.8081   36.8081
   37.1450   37.1450   37.5537   37.5537   37.9302   37.9302   38.5191   38.5191   38.9744   38.9744
   39.3377   39.3377   39.6410   39.6410   39.7112   39.7112   40.3545   40.3545   40.5364   40.5364
   40.9545   40.9545   41.1472   41.1472   41.9616   41.9616   42.1042   42.1042   42.2709   42.2709
   42.6019   42.6019   43.2917   43.2917   43.5113   43.5113   43.6081   43.6081   43.9835   43.9835
   44.6106   44.6106   44.6872   44.6872   44.8310   44.8310   45.1273   45.1273   45.4214   45.4214
   45.5314   45.5314   46.2496   46.2496   46.6620   46.6620   46.9790   46.9790   47.0628   47.0628
   48.0327   48.0327   48.2047   48.2047   49.9225   49.9225   50.1175   50.1175   50.2611   50.2611
   50.6870   50.6870   50.7054   50.7054   50.8463   50.8463   51.6825   51.6825   52.5428   52.5428
   53.1428   53.1428   53.4017   53.4017   54.0205   54.0205   54.7845   54.7845   54.8623   54.8623
   55.1471   55.1471   55.9398   55.9398   56.1054   56.1054   56.7648   56.7648   57.2209   57.2209
   57.4953   57.4953   57.8554   57.8554   58.8316   58.8316   59.5081   59.5081   60.5768   60.5768
   60.7592   60.7592   61.0412   61.0412   61.6447   61.6447   62.7420   62.7420   62.8942   62.8942
   64.2914   64.2914   64.4375   64.4375   65.3547   65.3547   66.3045   66.3045   66.8820   66.8820
   68.4885   68.4885   68.8824   68.8824   71.2117   71.2117   72.3118   72.3118   74.0764   74.0764
   75.1092   75.1092   76.9470   76.9470   77.9404   77.9404   78.4098   78.4098   89.7553   89.7553
   92.0853   92.0853   92.4886   92.4886   95.7416   95.7416   99.0299   99.0299   99.2546   99.2546
  102.7178  102.7178  104.0452  104.0452  106.0715  106.0715  109.0953  109.0953  110.7260  110.7260
  118.4414  118.4414  120.0516  120.0516  126.3272  126.3272  129.4240  129.4240  141.2874  141.2874
  145.7568  145.7568  148.5695  148.5695
siesta: Fermi energy =      -3.778541 eV

siesta: Program's energy decomposition (eV):
siesta: Ebs     =     -1137.858187
siesta: Eions   =      3585.165840
siesta: Ena     =       383.713864
siesta: Ekin    =      2923.265331
siesta: Enl     =     -2805.692335
siesta: Eso     =        -0.004377
siesta: Edftu   =         0.000000
siesta: DEna    =        48.440613
siesta: DUscf   =        13.807691
siesta: DUext   =         0.000000
siesta: Exc     =     -1125.846598
siesta: eta*DQ  =         0.000000
siesta: Emadel  =         0.000000
siesta: Emeta   =         0.000000
siesta: Emolmec =         0.000000
siesta: Ekinion =         0.000000
siesta: Eharris =     -4147.481651
siesta: Etot    =     -4147.481651
siesta: FreeEng =     -4147.481651

siesta: Final energy (eV):
siesta:  Band Struct. =   -1137.858187
siesta:       Kinetic =    2923.265331
siesta:       Hartree =    9239.514744
siesta:       Edftu   =       0.000000
siesta:       Eso     =      -0.004377
siesta:    Ext. field =       0.000000
siesta:   Exch.-corr. =   -1125.846598
siesta:  Ion-electron =  -21078.328128
siesta:       Ion-ion =    5893.917378
siesta:       Ekinion =       0.000000
siesta:         Total =   -4147.481651
siesta:         Fermi =      -3.778541

siesta: Atomic forces (eV/Ang):
siesta:      1   -4.694019   -0.104579    0.000000
siesta:      2   -0.025642   -0.005528    0.000000
siesta:      3   -0.423772   -0.011757   -0.000000
siesta:      4   -0.308766    0.036520    0.000000
siesta:      5   -0.014569    0.048398    0.000000
siesta:      6   -1.595406   -1.044710   -0.000000
siesta:      7   -0.009231    0.099740   -0.000000
siesta:      8    0.144532   -0.119325   -0.000000
siesta:      9   -0.020877   -0.583740   -0.000000
siesta:     10    0.318952   -0.223194    0.000000
siesta:     11    0.010331    0.006322   -0.000000
siesta:     12    0.281216    0.192228    0.000000
siesta:     13   -0.220011    0.087344    0.000000
siesta:     14   -0.107328   -0.210916    0.000000
siesta:     15    0.175684    0.266660   -0.000000
siesta:     16   -0.022627   -0.165020   -0.000000
siesta:     17   -0.312827    0.524172    0.000000
siesta:     18    0.083641   -0.089780   -0.000000
siesta:     19    0.184933    0.470388    0.000000
siesta:     20    0.019412    0.171834    0.000000
siesta:     21    0.193433   -0.285061   -0.000000
siesta:     22    1.970721    1.350266    0.000000
siesta:     23   -0.135038   -0.209745    0.000000
siesta:     24    0.019525    0.107577    0.000000
siesta:     25   -0.015913   -0.020095   -0.000000
siesta:     26    0.072411    0.108888   -0.000000
siesta:     27   -0.258915   -0.402486    0.000000
siesta:     28    2.014978    2.781534   -0.000000
siesta:     29    0.012135   -0.092697   -0.000000
siesta: ----------------------------------------
siesta:    Tot   -2.663035    2.683236    0.000000

siesta: Stress tensor (static) (eV/Ang**3):
siesta:    -0.001712   -0.001684    0.000000
siesta:    -0.001684   -0.001759   -0.000000
siesta:     0.000000   -0.000000   -0.000063

siesta: Cell volume =       4308.589015 Ang**3

siesta: Pressure (static):
siesta:                Solid            Molecule  Units
siesta:           0.00001283         -0.00000516  Ry/Bohr**3
siesta:           0.00117832         -0.00047421  eV/Ang**3
siesta:           1.88789974         -0.75977252  kBar
(Free)E+ p_basis*V_orbitals  =       -4127.631234
(Free)Eharris+ p_basis*V_orbitals  =       -4127.631234
     spin moment: S , {S} =    0.00000  -0.00000  -0.00000  -0.00000

siesta: Electric dipole (a.u.)  =    1.600929    0.179228    0.000000
siesta: Electric dipole (Debye) =    4.069159    0.455553    0.000000

cite: Please see "GC.bib" for an exhaustive BiBTeX file.
cite: Please clearly indicate Siesta version in published work: v4.1.5-1-g384057250
cite: This calculation has made use of the following articles
cite: which are encouraged to be cited in a published work.
        Primary SIESTA paper
          DOI: www.doi.org/10.1088/0953-8984/14/11/302
        Spin-orbit coupling (on-site approximation)
          DOI: www.doi.org/10.1088/0953-8984/19/19/489001


WARNING: alloc-realloc-dealloc name mismatch
         Name: atomlist isa
         Size:              -116. Bytes
         Node:     0
         Subsequent mismatches will not be reported
>> End of run:   4-JUL-2023  10:30:50
Job completed
