<?xml version="1.0" encoding="UTF-8" ?>
<psml version="1.1" energy_unit="hartree" length_unit="bohr"
 uuid="b58ca9f0-3e5d-11ef-5125-dbd5eef40891"
 xmlns="http://esl.cecam.org/PSML/ns/1.1">
<provenance creator="ATM4.2.7" date="10-JUL-24">
<annotation action="semilocal-pseudopotential-generation" />
<input-file name="INP">
<![CDATA[   pe  Phosphorus
        tm2    4.000
   P    pbr 00000000
       0.0
    3    3
    3    0     1.000     1.000
    3    1     2.000     0.000
    3    2     0.500     0.500
   0.16677   2.21930   2.16975   0.00000   1.00000   0.00000
]]>
</input-file>
</provenance>
<pseudo-atom-spec atomic-label="P" atomic-number="15" z-pseudo="5"
 flavor="Troullier-Martins" relativity="dirac" spin-dft="no"
 core-corrections="yes">
<annotation pseudo-energy="-12.4749198629" />
<exchange-correlation>
<annotation atom-xc-code="pb" siesta-xc-type="GGA" siesta-xc-authors="PBE" />
<libxc-info number-of-functionals="2">
<functional name="XC_GGA_X_PBE" type="XC_EXCHANGE" id="101" />
<functional name="XC_GGA_C_PBE" type="XC_CORRELATION" id="130" />
</libxc-info>
</exchange-correlation>
<valence-configuration total-valence-charge="5">
<shell n="3" l="s" occupation="2" />
<shell n="3" l="p" occupation="2" />
<shell n="3" l="d" occupation="1" />
</valence-configuration>
</pseudo-atom-spec>
<grid npts="376">
<annotation type="sampled-log-atom"
 recipe="r(i:1..N) = a*(exp(b*(i-1))-1); resampled"
 recipe-cont="a: scale; b: step" scale="0.165250145111E-03"
 step="0.125000000000E-01" delta="0.500000000000E-02" rmax="20" />
<grid-data>
  0.000000000000E+00  5.040194254966E-03  1.005841431122E-02  1.508666499124E-02
  2.016693443563E-02  2.529720647515E-02  3.054833525482E-02  3.596769575217E-02
  4.129375361922E-02  4.681395583614E-02  5.240787592029E-02  5.793703985470E-02
  6.325004482160E-02  6.904888299368E-02  7.443956698241E-02  8.025009981629E-02
  8.543644430074E-02  9.095727926648E-02  9.683417749610E-02  1.030901030972E-01
  1.083841182646E-01  1.139495633939E-01  1.198003549968E-01  1.259511230998E-01
  1.324172478270E-01  1.374834898527E-01  1.427433231038E-01  1.482041450877E-01
  1.538736359854E-01  1.597597694527E-01  1.658708238349E-01  1.722153938093E-01
  1.788024024730E-01  1.856411138926E-01  1.927411461330E-01  2.001124847847E-01
  2.051825397828E-01  2.103809438342E-01  2.157109461108E-01  2.211758780373E-01
  2.267791553743E-01  2.325242803523E-01  2.384148438617E-01  2.444545276962E-01
  2.506471068549E-01  2.569964519014E-01  2.635065313829E-01  2.701814143112E-01
  2.770252727053E-01  2.840423841995E-01  2.912371347169E-01  2.986140212108E-01
  3.061776544753E-01  3.139327620276E-01  3.218841910622E-01  3.300369114812E-01
  3.383960190002E-01  3.469667383335E-01  3.557544264598E-01  3.647645759700E-01
  3.740028185011E-01  3.834749282553E-01  3.931868256095E-01  4.031445808158E-01
  4.082175939804E-01  4.133544177952E-01  4.185558548995E-01  4.238227180283E-01
  4.291558301398E-01  4.345560245436E-01  4.400241450309E-01  4.455610460068E-01
  4.511675926234E-01  4.568446609148E-01  4.625931379347E-01  4.684139218942E-01
  4.743079223026E-01  4.802760601096E-01  4.863192678487E-01  4.924384897836E-01
  4.986346820550E-01  5.049088128307E-01  5.112618624563E-01  5.176948236087E-01
  5.242087014512E-01  5.308045137905E-01  5.374832912357E-01  5.442460773594E-01
  5.510939288606E-01  5.580279157300E-01  5.650491214173E-01  5.721586430001E-01
  5.793575913556E-01  5.866470913341E-01  5.940282819348E-01  6.015023164838E-01
  6.090703628142E-01  6.167336034487E-01  6.244932357841E-01  6.323504722788E-01
  6.403065406420E-01  6.483626840255E-01  6.565201612183E-01  6.647802468425E-01
  6.731442315536E-01  6.816134222410E-01  6.901891422330E-01  6.988727315034E-01
  7.076655468806E-01  7.165689622600E-01  7.255843688182E-01  7.347131752310E-01
  7.439568078928E-01  7.533167111402E-01  7.627943474770E-01  7.723911978031E-01
  7.821087616460E-01  7.919485573948E-01  8.019121225377E-01  8.120010139018E-01
  8.222168078970E-01  8.325611007620E-01  8.430355088135E-01  8.536416686991E-01
  8.643812376528E-01  8.752558937542E-01  8.862673361904E-01  8.974172855217E-01
  9.087074839503E-01  9.201396955927E-01  9.317157067553E-01  9.434373262133E-01
  9.553063854936E-01  9.673247391610E-01  9.794942651075E-01  9.918168648464E-01
  1.004294463809E+00  1.016929011645E+00  1.029722482530E+00  1.042676875467E+00
  1.055794214609E+00  1.069076549565E+00  1.082525955728E+00  1.096144534595E+00
  1.109934414096E+00  1.123897748927E+00  1.138036720890E+00  1.152353539226E+00
  1.166850440968E+00  1.181529691286E+00  1.196393583842E+00  1.211444441151E+00
  1.226684614939E+00  1.242116486515E+00  1.257742467139E+00  1.273564998404E+00
  1.289586552611E+00  1.305809633161E+00  1.322236774944E+00  1.338870544734E+00
  1.355713541591E+00  1.372768397268E+00  1.390037776620E+00  1.407524378024E+00
  1.425230933796E+00  1.443160210622E+00  1.461315009988E+00  1.479698168618E+00
  1.498312558917E+00  1.517161089423E+00  1.536246705257E+00  1.555572388584E+00
  1.575141159083E+00  1.594956074413E+00  1.615020230696E+00  1.635336762996E+00
  1.655908845812E+00  1.676739693576E+00  1.697832561149E+00  1.719190744334E+00
  1.740817580392E+00  1.762716448559E+00  1.784890770578E+00  1.807344011232E+00
  1.830079678886E+00  1.853101326033E+00  1.876412549853E+00  1.900016992773E+00
  1.923918343034E+00  1.948120335271E+00  1.972626751094E+00  1.997441419681E+00
  2.022568218375E+00  2.048011073288E+00  2.073773959919E+00  2.099860903771E+00
  2.126275980983E+00  2.153023318962E+00  2.180107097037E+00  2.207531547101E+00
  2.235300954282E+00  2.263419657605E+00  2.291892050675E+00  2.320722582362E+00
  2.349915757494E+00  2.379476137565E+00  2.409408341445E+00  2.439717046100E+00
  2.470406987328E+00  2.501482960495E+00  2.532949821284E+00  2.564812486457E+00
  2.597075934620E+00  2.629745207002E+00  2.662825408243E+00  2.696321707193E+00
  2.730239337716E+00  2.764583599510E+00  2.799359858938E+00  2.834573549859E+00
  2.870230174485E+00  2.906335304236E+00  2.942894580613E+00  2.979913716075E+00
  3.017398494939E+00  3.055354774277E+00  3.093788484836E+00  3.132705631960E+00
  3.172112296534E+00  3.212014635928E+00  3.252418884965E+00  3.293331356890E+00
  3.334758444361E+00  3.376706620444E+00  3.419182439627E+00  3.462192538844E+00
  3.505743638509E+00  3.549842543571E+00  3.594496144573E+00  3.639711418731E+00
  3.685495431025E+00  3.731855335298E+00  3.778798375380E+00  3.826331886218E+00
  3.874463295018E+00  3.923200122411E+00  3.972549983626E+00  4.022520589679E+00
  4.073119748578E+00  4.124355366546E+00  4.176235449251E+00  4.228768103063E+00
  4.281961536315E+00  4.335824060589E+00  4.390364092015E+00  4.445590152583E+00
  4.501510871478E+00  4.558134986425E+00  4.615471345059E+00  4.673528906301E+00
  4.732316741763E+00  4.791844037165E+00  4.852120093768E+00  4.913154329828E+00
  4.974956282068E+00  5.037535607170E+00  5.100902083280E+00  5.165065611539E+00
  5.230036217629E+00  5.295824053339E+00  5.362439398153E+00  5.429892660853E+00
  5.498194381149E+00  5.567355231324E+00  5.637386017902E+00  5.708297683335E+00
  5.780101307715E+00  5.852808110505E+00  5.926429452291E+00  6.000976836556E+00
  6.076461911482E+00  6.152896471765E+00  6.230292460461E+00  6.308661970850E+00
  6.388017248327E+00  6.468370692317E+00  6.549734858208E+00  6.632122459317E+00
  6.715546368874E+00  6.800019622035E+00  6.885555417917E+00  6.972167121663E+00
  7.059868266526E+00  7.148672555991E+00  7.238593865908E+00  7.329646246663E+00
  7.421843925378E+00  7.515201308126E+00  7.609732982189E+00  7.705453718334E+00
  7.802378473120E+00  7.900522391236E+00  7.999900807871E+00  8.100529251104E+00
  8.202423444333E+00  8.305599308735E+00  8.410072965746E+00  8.515860739590E+00
  8.622979159821E+00  8.731444963909E+00  8.841275099859E+00  8.952486728851E+00
  9.065097227929E+00  9.179124192712E+00  9.294585440147E+00  9.411499011287E+00
  9.529883174116E+00  9.649756426400E+00  9.771137498580E+00  9.894045356693E+00
  1.001849920534E+01  1.014451849070E+01  1.027212290353E+01  1.040133238228E+01
  1.053216711620E+01  1.066464754848E+01  1.079879437946E+01  1.093462856985E+01
  1.107217134402E+01  1.121144419331E+01  1.135246887939E+01  1.149526743765E+01
  1.163986218065E+01  1.178627570162E+01  1.193453087797E+01  1.208465087486E+01
  1.223665914887E+01  1.239057945159E+01  1.254643583337E+01  1.270425264710E+01
  1.286405455197E+01  1.302586651736E+01  1.318971382671E+01  1.335562208151E+01
  1.352361720525E+01  1.369372544751E+01  1.386597338805E+01  1.404038794097E+01
  1.421699635888E+01  1.439582623723E+01  1.457690551853E+01  1.476026249680E+01
  1.494592582193E+01  1.513392450421E+01  1.532428791879E+01  1.551704581037E+01
  1.571222829774E+01  1.590986587857E+01  1.610998943413E+01  1.631263023414E+01
  1.651781994163E+01  1.672559061791E+01  1.693597472758E+01  1.714900514357E+01
  1.736471515233E+01  1.758313845898E+01  1.780430919261E+01  1.802826191160E+01
  1.825503160901E+01  1.848465371806E+01  1.871716411769E+01  1.895259913812E+01
  1.919099556654E+01  1.943239065288E+01  1.967682211561E+01  1.992432814766E+01
</grid-data>
</grid>
<valence-charge total-charge="5" is-unscreening-charge="yes"
 rescaled-to-z-pseudo="no">
<radfunc>
<data>
  1.827137751049E-01  1.827420145147E-01  1.828262399668E-01  1.829667858196E-01
  1.831658647499E-01  1.834251196065E-01  1.837510585540E-01  1.841516868218E-01
  1.846089887656E-01  1.851494504807E-01  1.857661521540E-01  1.864439711334E-01
  1.871591999262E-01  1.880112900292E-01  1.888702704144E-01  1.898682651842E-01
  1.908222126896E-01  1.919031124089E-01  1.931278206935E-01  1.945154230009E-01
  1.957572154293E-01  1.971293937545E-01  1.986456052158E-01  2.003209168338E-01
  2.021719612164E-01  2.036865431799E-01  2.053187009955E-01  2.070775199510E-01
  2.089727808184E-01  2.110150120132E-01  2.132155454789E-01  2.155865765299E-01
  2.181412278928E-01  2.208936181908E-01  2.238589351214E-01  2.270535135781E-01
  2.293192210573E-01  2.317001287486E-01  2.342020359295E-01  2.368310274801E-01
  2.395934872126E-01  2.424961117314E-01  2.455459248285E-01  2.487502924209E-01
  2.521169380302E-01  2.556539588033E-01  2.593698420672E-01  2.632734824050E-01
  2.673741992335E-01  2.716817548547E-01  2.762063729423E-01  2.809587574114E-01
  2.859501116066E-01  2.911921577217E-01  2.966971563445E-01  3.024779259927E-01
  3.085478624714E-01  3.149209578483E-01  3.216118187883E-01  3.286356839357E-01
  3.360084399598E-01  3.437466357941E-01  3.518674944978E-01  3.603889220421E-01
  3.648056327727E-01  3.693295121742E-01  3.739629919197E-01  3.787085463295E-01
  3.835686920076E-01  3.885459873448E-01  3.936430318736E-01  3.988624654595E-01
  4.042069673093E-01  4.096792547781E-01  4.152820819520E-01  4.210182379843E-01
  4.268905451580E-01  4.329018566463E-01  4.390550539405E-01  4.453530439106E-01
  4.517987554615E-01  4.583951357436E-01  4.651451458742E-01  4.720517561204E-01
  4.791179404911E-01  4.863466706801E-01  4.937409092991E-01  5.013036023314E-01
  5.090376707337E-01  5.169460011079E-01  5.250314353548E-01  5.332967592202E-01
  5.417446896330E-01  5.503778607304E-01  5.591988084554E-01  5.682099536082E-01
  5.774135832213E-01  5.868118301250E-01  5.964066505593E-01  6.061997996838E-01
  6.161928048308E-01  6.263869363393E-01  6.367831758080E-01  6.473821815961E-01
  6.581842514065E-01  6.691892817822E-01  6.803967243539E-01  6.918055386820E-01
  7.034141415494E-01  7.152203525775E-01  7.272213360575E-01  7.394135389198E-01
  7.517926247997E-01  7.643534041976E-01  7.770897607917E-01  7.899945740184E-01
  8.030596381161E-01  8.162755779129E-01  8.296317617422E-01  8.431162119850E-01
  8.567155138705E-01  8.704147233127E-01  8.841972747219E-01  8.980448899105E-01
  9.119374894004E-01  9.258531076466E-01  9.397678139031E-01  9.536556406776E-01
  9.674885219437E-01  9.812362434950E-01  9.948664080316E-01  1.008344417755E+00
  1.021633477400E+00  1.034694620745E+00  1.047486763704E+00  1.059966787077E+00
  1.072089651972E+00  1.083808550675E+00  1.095075095479E+00  1.105839547527E+00
  1.116051087164E+00  1.125658126569E+00  1.134608664600E+00  1.142850682726E+00
  1.150332579823E+00  1.157003642290E+00  1.162814544610E+00  1.167717874002E+00
  1.171668671401E+00  1.174624979542E+00  1.176548387626E+00  1.177404560868E+00
  1.177163742331E+00  1.175801213791E+00  1.173297702224E+00  1.169639718649E+00
  1.164819816859E+00  1.158836760805E+00  1.151695591252E+00  1.143407584746E+00
  1.133990100866E+00  1.123466317248E+00  1.111864855757E+00  1.099219307505E+00
  1.085567669034E+00  1.070951706811E+00  1.055416272186E+00  1.039008604220E+00
  1.021777732387E+00  1.003774163106E+00  9.850497562412E-01  9.656574939636E-01
  9.456513101811E-01  9.250859009813E-01  9.040165310016E-01  8.824988368042E-01
  8.605886263236E-01  8.383416753058E-01  8.158135213639E-01  7.930592565082E-01
  7.701333191915E-01  7.470892870867E-01  7.239796719849E-01  7.008557183585E-01
  6.777672072843E-01  6.547622675453E-01  6.318871958384E-01  6.091862880920E-01
  5.867016839396E-01  5.644732240667E-01  5.425383188758E-01  5.209318520309E-01
  4.996861202821E-01  4.788307505899E-01  4.583926727870E-01  4.383961010494E-01
  4.188625461211E-01  3.998108520379E-01  3.812572605905E-01  3.632155084820E-01
  3.456969653125E-01  3.287108030890E-01  3.122641134145E-01  2.963619669870E-01
  2.810075219619E-01  2.662021095178E-01  2.519453304708E-01  2.382351544475E-01
  2.250680200608E-01  2.124389372826E-01  2.003415902291E-01  1.887684403374E-01
  1.777108291716E-01  1.671590804189E-01  1.571026005746E-01  1.475299778742E-01
  1.384290790566E-01  1.297871435779E-01  1.215908749299E-01  1.138265287383E-01
  1.064799973638E-01  9.953689075403E-02  9.298261332705E-02  8.680243670139E-02
  8.098156812103E-02  7.550521445591E-02  7.035864169276E-02  6.552722986338E-02
  6.099652339097E-02  5.675227686629E-02  5.278049629706E-02  4.906747590340E-02
  4.559983055997E-02  4.236452401163E-02  3.934889301271E-02  3.654066756133E-02
  3.392798741779E-02  3.149941511169E-02  2.924394565419E-02  2.715101318083E-02
  2.521049475637E-02  2.341271157587E-02  2.174842779664E-02  2.020884723328E-02
  1.878560814316E-02  1.747077632325E-02  1.625683673044E-02  1.513668382748E-02
  1.410361084534E-02  1.315129814059E-02  1.227380081300E-02  1.146553573514E-02
  1.072126813126E-02  1.003609782865E-02  9.405445289740E-03  8.825037518890E-03
  8.290893923142E-03  7.799312192372E-03  7.346854250585E-03  6.930332317581E-03
  6.546795108828E-03  6.193514191753E-03  5.867970509393E-03  5.567841078259E-03
  5.290985867486E-03  5.035434872428E-03  4.799375409544E-03  4.581139682703E-03
  4.379192705077E-03  4.192120704372E-03  4.018620187025E-03  3.857487876906E-03
  3.707611757712E-03  3.567963414643E-03  3.437591777317E-03  3.315618219503E-03
  3.201232805709E-03  3.093691340901E-03  2.992312822551E-03  2.896476929618E-03
  2.805621290220E-03  2.719238405635E-03  2.636872230534E-03  2.558114492673E-03
  2.482600874569E-03  2.410007183468E-03  2.340045617752E-03  2.272461210444E-03
  2.207028502156E-03  2.143548471536E-03  2.081845732646E-03  2.021765995698E-03
  1.963173779297E-03  1.905950357670E-03  1.849991924210E-03  1.795207952234E-03
  1.741519734454E-03  1.688859083866E-03  1.637167180295E-03  1.586393548458E-03
  1.536495155032E-03  1.487435613755E-03  1.439184489007E-03  1.391716689555E-03
  1.345011945136E-03  1.299054359339E-03  1.253832032630E-03  1.209336749341E-03
  1.165563721971E-03  1.122511385049E-03  1.080181229172E-03  1.038577663657E-03
  9.977078938264E-04  9.575817965868E-04  9.182117763365E-04  8.796125829488E-04
  8.418010753537E-04  8.047959184086E-04  7.686172072755E-04  7.332860217027E-04
  6.988239212574E-04  6.652524002006E-04  6.325923260262E-04  6.008633878850E-04
  5.700835800672E-04  5.402687419508E-04  5.114321702955E-04  4.835843135273E-04
  4.567325516497E-04  4.308810602843E-04  4.060307534011E-04  3.821792966296E-04
  3.593211809229E-04  3.374478494180E-04  3.165478610049E-04  2.966070876612E-04
  2.776089334952E-04  2.595345685368E-04  2.423631706819E-04  2.260721702276E-04
  2.106374924018E-04  1.960337941677E-04  1.822346923672E-04  1.692129809449E-04
  1.569408355891E-04  1.453900046241E-04  1.345319854171E-04  1.243381859123E-04
  1.147800712058E-04  1.058292953080E-04  9.745781844181E-05  8.963801037577E-05
  8.234274041356E-05  7.554545475448E-05  6.922024200788E-05  6.334188768645E-05
  5.788591854020E-05  5.282863759856E-05  4.814715078680E-05  4.381938598509E-05
  3.982410535575E-05  3.614091174362E-05  3.275024991939E-05  2.963340337915E-05
  2.677248736591E-05  2.415043872028E-05  2.175100310623E-05  1.955872009471E-05
  1.755890652377E-05  1.573763849111E-05  1.408173227461E-05  1.257872442017E-05
  1.121685118529E-05  9.985027482597E-06  8.872825429991E-06  7.870452584402E-06
</data>
</radfunc>
</valence-charge>
<pseudocore-charge matching-radius="1.04267687547"
 number-of-continuous-derivatives="2">
<annotation model-core-charge="Three-parameter Martins fit" />
<radfunc>
<data>
  1.306078622067E+02  1.305905970273E+02  1.305391166151E+02  1.304532581400E+02
  1.303317409893E+02  1.301736660597E+02  1.299752099888E+02  1.297317010522E+02
  1.294543146908E+02  1.291272674234E+02  1.287551168212E+02  1.283473492099E+02
  1.279185073850E+02  1.274095165165E+02  1.268985048665E+02  1.263074229728E+02
  1.257450594615E+02  1.251109480047E+02  1.243964194748E+02  1.235918924439E+02
  1.228764155310E+02  1.220907371018E+02  1.212285581990E+02  1.202831429788E+02
  1.192473176816E+02  1.184065582686E+02  1.175073121909E+02  1.165460931496E+02
  1.155192998760E+02  1.144232285814E+02  1.132540889349E+02  1.120080240571E+02
  1.106811350521E+02  1.092695106223E+02  1.077692623316E+02  1.061765660829E+02
  1.050615695040E+02  1.039027712359E+02  1.026991517948E+02  1.014497417790E+02
  1.001536314522E+02  9.880998106003E+01  9.741803188860E+01  9.597711805887E+01
  9.448667904522E+01  9.294627289218E+01  9.135559009055E+01  8.971446805851E+01
  8.802290615576E+01  8.628108113909E+01  8.448936294634E+01  8.264833067181E+01
  8.075878857113E+01  7.882178190597E+01  7.683861241099E+01  7.481085313548E+01
  7.274036238251E+01  7.062929643869E+01  6.848012075898E+01  6.629561924431E+01
  6.407890122667E+01  6.183340575702E+01  5.956290277867E+01  5.727149076350E+01
  5.611931300399E+01  5.496359039191E+01  5.380492410624E+01  5.264393387267E+01
  5.148125736528E+01  5.031754952662E+01  4.915348180400E+01  4.798974130024E+01
  4.682702983763E+01  4.566606293380E+01  4.450756868899E+01  4.335228658456E+01
  4.220096619288E+01  4.105436579943E+01  3.991325093845E+01  3.877839284409E+01
  3.765056681941E+01  3.653055052660E+01  3.541912220209E+01  3.431705880105E+01
  3.322513407662E+01  3.214411659960E+01  3.107476772542E+01  3.001783951557E+01
  2.897407262172E+01  2.794419414125E+01  2.692891545353E+01  2.592893004725E+01
  2.494491134939E+01  2.397751056706E+01  2.302735455414E+01  2.209504371478E+01
  2.118114995648E+01  2.028621470550E+01  1.941074699773E+01  1.855522165810E+01
  1.772007758165E+01  1.690571612925E+01  1.611249965060E+01  1.534075014681E+01
  1.459074808433E+01  1.386273137136E+01  1.315689450690E+01  1.247338791187E+01
  1.181231745054E+01  1.117374414934E+01  1.055768411874E+01  9.964108682567E+00
  9.392944717423E+00  8.844075203498E+00  8.317339986053E+00  7.812536745378E+00
  7.329422171093E+00  6.867713334910E+00  6.427089254176E+00  6.007192636755E+00
  5.607631796112E+00  5.227982723816E+00  4.867791305191E+00  4.526575662404E+00
  4.203828608077E+00  3.899020191399E+00  3.611600317844E+00  3.341001422910E+00
  3.086641179830E+00  2.847925220969E+00  2.624249852621E+00  2.415004743159E+00
  2.219575564951E+00  2.037346571197E+00  1.867703089731E+00  1.710033917005E+00
  1.563733596786E+00  1.428204569634E+00  1.302859180836E+00  1.187121536318E+00
  1.080422445631E+00  9.821842072379E-01  8.918476763013E-01  8.088797119658E-01
  7.327729199746E-01  6.630453886757E-01  5.992403935225E-01  5.409260417301E-01
  4.876948315283E-01  4.391631087097E-01  3.949704147826E-01  3.547787330877E-01
  3.182716491073E-01  2.851534471885E-01  2.551481676704E-01  2.279986466528E-01
  2.034655567064E-01  1.813264620566E-01  1.613748972340E-01  1.434194744850E-01
  1.272830225489E-01  1.128017576896E-01  9.982448689056E-02  8.821184266830E-02
  7.783554881938E-02  6.857771644602E-02  6.033016969887E-02  5.299380077881E-02
  4.647795381987E-02  4.069983732136E-02  3.558396480932E-02  3.106162338899E-02
  2.707036980888E-02  2.355355360054E-02  2.045986679171E-02  1.774291962183E-02
  1.536084161958E-02  1.327590733796E-02  1.145418598327E-02  9.865214123500E-03
  8.481690618250E-03  7.279192877783E-03  6.235913532157E-03  5.332416573006E-03
  4.551412019384E-03  3.877548154938E-03  3.297220385824E-03  2.798395776617E-03
  2.370452334410E-03  2.004032128766E-03  1.690907356649E-03  1.423858486300E-03
  1.196563641881E-03  1.003498420963E-03  8.398453692408E-04  7.014123707017E-04
  5.845592465685E-04  4.861318921956E-04  4.034033174487E-04  3.340209926044E-04
  2.759599381663E-04  2.274810329673E-04  1.870940502572E-04  1.535249659748E-04
  1.256871168854E-04  1.026558185766E-04  8.364608433020E-05  6.799311552174E-05
  5.513526236036E-05  4.459918043230E-05  3.598693360018E-05  2.896481733589E-05
  2.325369852438E-05  1.862068818754E-05  1.487198247198E-05  1.184672466455E-05
  9.411756994025E-06  7.457145607662E-06  5.892375439618E-06  4.643123785263E-06
  3.648532332722E-06  2.858907254563E-06  2.233785803277E-06  1.740315758227E-06
  1.351901112406E-06  1.047073635892E-06  8.085554781312E-07  6.224828390655E-07
  4.777650121939E-07  3.655568399264E-07  2.788258783046E-07  2.119983957647E-07
  1.606707766230E-07  1.213750081053E-07  9.138873997348E-08  6.858195445777E-08
  5.129360414524E-08  3.823269625764E-08  2.839924984407E-08  2.102135137805E-08
  1.550520497280E-08  1.139563433335E-08  8.344960816657E-09  6.088569692182E-09
  4.425797162137E-09  3.205034532931E-09  2.312162272814E-09  1.661603383176E-09
  1.189429237645E-09  8.480674797727E-10  6.022555123774E-10  4.259585927611E-10
  3.000319438680E-10  2.104544144733E-10  1.469994036411E-10  1.022389304271E-10
  7.080045978482E-11  4.881468195730E-11  3.350693653214E-11  2.289622495238E-11
  1.557445248768E-11  1.054523250124E-11  7.106711251522E-12  4.766779052722E-12
  3.181998889530E-12  2.113823200269E-12  1.397353048882E-12  9.191533053529E-13
  6.015750092289E-13  3.917306214747E-13  2.537798149488E-13  1.635589181800E-13
  1.048610972547E-13  6.687324532815E-14  4.241917649180E-14  2.676189746000E-14
  1.679145460895E-14  1.047724948781E-14  6.500751149420E-15  4.010567925207E-15
  2.460040505706E-15  1.500168249015E-15  9.094225688916E-16  5.480065918778E-16
  3.282207140940E-16  1.953762814027E-16  1.155762287024E-16  6.793927174506E-17
  3.968199434647E-17  2.302769956077E-17  1.327565532494E-17  7.602794859966E-18
  4.324796156890E-18  2.443407332407E-18  1.370964980077E-18  7.638693658437E-19
  4.226059696188E-19  2.321331043708E-19  1.265855427088E-19  6.852308376725E-20
  3.681757261699E-20  1.963351501217E-20  1.039020914776E-20  5.456221242944E-21
  2.842880927034E-21  1.469539824773E-21  7.535575212835E-22  3.832829902318E-22
  1.933507400199E-22  9.672743380227E-23  4.798270169165E-23  2.359955825739E-23
  1.150692799387E-23  5.561638024275E-24  2.664308851546E-24  1.264896359426E-24
  5.950632896174E-25  2.773689732434E-25  1.280817218986E-25  5.858662586510E-26
  2.654231745841E-26  1.190843541245E-26  5.290444011202E-27  2.327001654126E-27
  1.013242942210E-27  4.367043841297E-28  1.862785668216E-28  7.862912441991E-29
  3.283920019452E-29  1.356854075577E-29  5.545586549230E-30  2.241699426860E-30
  8.961155653728E-31  3.541995496392E-31  1.384105851786E-31  5.346471444785E-32
  2.041176289037E-32  7.700999357921E-33  2.870808811802E-33  1.057276703351E-33
  3.846237926439E-34  1.381916735873E-34  4.902981737176E-35  1.717532729620E-35
  5.939488470145E-36  2.027330310120E-36  6.829090101962E-37  2.269837035104E-37
  7.443032173336E-38  2.407451826405E-38  7.679733351022E-39  2.415700373939E-39
  7.491610242071E-40  2.290174053651E-40  6.899986993621E-41  2.048514397648E-41
  5.991898974467E-42  1.726424772024E-42  4.899038100289E-43  1.368911903041E-43
  3.765845867389E-44  1.019746160697E-44  2.717587748781E-45  7.126164380009E-46
  1.838345033096E-46  4.664603127097E-47  1.163954005082E-47  2.855661897062E-48
  6.887212269445E-49  1.632530203007E-49  3.802550075539E-50  8.701598971123E-51
  1.955904415204E-51  4.317519348390E-52  9.357770384565E-53  1.991016809273E-53
</data>
</radfunc>
</pseudocore-charge>
<semilocal-potentials set="scalar_relativistic">
<slps n="3" l="s" rc="1.46131500999" flavor="Troullier-Martins">
<radfunc>
<data>
  1.881230345681E+00  1.881168836024E+00  1.880985268800E+00  1.880678580717E+00
  1.880243371633E+00  1.879675217932E+00  1.878958697769E+00  1.878074598096E+00
  1.877060887663E+00  1.875856625069E+00  1.874474319444E+00  1.872945058360E+00
  1.871320172204E+00  1.869369450382E+00  1.867386704214E+00  1.865062804745E+00
  1.862821325591E+00  1.860258027861E+00  1.857323873197E+00  1.853961703174E+00
  1.850919308469E+00  1.847521179977E+00  1.843722712231E+00  1.839473231209E+00
  1.834715113787E+00  1.830773612247E+00  1.826478325712E+00  1.821795091449E+00
  1.816686216433E+00  1.811110100343E+00  1.805020819267E+00  1.798367666321E+00
  1.791094645025E+00  1.783139910898E+00  1.774435156225E+00  1.764904932465E+00
  1.758052051505E+00  1.750768630342E+00  1.743026027154E+00  1.734793639458E+00
  1.726038770927E+00  1.716726489340E+00  1.706819475038E+00  1.696277859255E+00
  1.685059051617E+00  1.673117556069E+00  1.660404774479E+00  1.646868797093E+00
  1.632454179035E+00  1.617101702028E+00  1.600748120509E+00  1.583325891377E+00
  1.564762886674E+00  1.544982088636E+00  1.523901266719E+00  1.501432636471E+00
  1.477482500485E+00  1.451950872125E+00  1.424731083364E+00  1.395709378848E+00
  1.364764499373E+00  1.331767259243E+00  1.296580123642E+00  1.259056794216E+00
  1.239370844380E+00  1.219041813608E+00  1.198048779093E+00  1.176370202867E+00
  1.153983923566E+00  1.130867149524E+00  1.106996453437E+00  1.082347768843E+00
  1.056896388726E+00  1.030616966529E+00  1.003483519976E+00  9.754694380492E-01
  9.465474915927E-01  9.166898479952E-01  8.858680904897E-01  8.540532426418E-01
  8.212157986555E-01  7.873257601849E-01  7.523526803933E-01  7.162657160653E-01
  6.790336886389E-01  6.406251550788E-01  6.010084895772E-01  5.601519771155E-01
  5.180239199652E-01  4.745927582413E-01  4.298272056383E-01  3.836964014686E-01
  3.361700800967E-01  2.872187587860E-01  2.368139448642E-01  1.849283629400E-01
  1.315362026718E-01  7.661338727420E-02  2.013786255325E-02 -3.791009423122E-02
 -9.754754697357E-02 -1.587885567942E-01 -2.216438243638E-01 -2.861203221625E-01
 -3.522209212968E-01 -4.199440185015E-01 -4.892831699230E-01 -5.602267391975E-01
 -6.327575681291E-01 -7.068526788330E-01 -7.824830165171E-01 -8.596132420020E-01
 -9.382015826119E-01 -1.018199749162E+00 -1.099552925400E+00 -1.182199834540E+00
 -1.266072885406E+00 -1.351098398456E+00 -1.437196909457E+00 -1.524283546032E+00
 -1.612268469427E+00 -1.701057370363E+00 -1.790552002905E+00 -1.880650732620E+00
 -1.971249062934E+00 -2.062240083945E+00 -2.153514757634E+00 -2.244961909355E+00
 -2.336467735142E+00 -2.427914558571E+00 -2.519178486128E+00 -2.610125534543E+00
 -2.700605753987E+00 -2.790445031651E+00 -2.879433895602E+00 -2.967315178772E+00
 -3.053771009866E+00 -3.138386460820E+00 -3.220739707085E+00 -3.300068384444E+00
 -3.375384907510E+00 -3.446243980931E+00 -3.512184657416E+00 -3.572524352763E+00
 -3.626763528652E+00 -3.674511687301E+00 -3.715534932220E+00 -3.749759134007E+00
 -3.777252252668E+00 -3.798193413516E+00 -3.812833269286E+00 -3.821455130571E+00
 -3.824344092114E+00 -3.821768689791E+00 -3.813976079624E+00 -3.801198700773E+00
 -3.783668559706E+00 -3.761634809319E+00 -3.735380878470E+00 -3.705238509999E+00
 -3.671597211104E+00 -3.634908506962E+00 -3.595684955757E+00 -3.554493971730E+00
 -3.511946860740E+00 -3.468682650485E+00 -3.425346104561E+00 -3.382462145691E+00
 -3.340124864964E+00 -3.298325520057E+00 -3.257056091380E+00 -3.216309637842E+00
 -3.176080039242E+00 -3.136361822342E+00 -3.097150004678E+00 -3.058439924575E+00
 -3.020227085054E+00 -2.982507012331E+00 -2.945275132451E+00 -2.908526667784E+00
 -2.872256554080E+00 -2.836459378178E+00 -2.801129336022E+00 -2.766260210468E+00
 -2.731845368299E+00 -2.697877775861E+00 -2.664350032769E+00 -2.631254423125E+00
 -2.598582983624E+00 -2.566355964993E+00 -2.534525723267E+00 -2.503084541754E+00
 -2.472026107372E+00 -2.441345233485E+00 -2.411037513367E+00 -2.381099312748E+00
 -2.351526944163E+00 -2.322317699249E+00 -2.293467972581E+00 -2.264975288791E+00
 -2.236837093530E+00 -2.209048100753E+00 -2.181604436557E+00 -2.154502033258E+00
 -2.127736305943E+00 -2.101303192029E+00 -2.075198505528E+00 -2.049418166001E+00
 -2.023958135271E+00 -1.998814428831E+00 -1.973983112739E+00 -1.949460302902E+00
 -1.925242164179E+00 -1.901324909595E+00 -1.877704799603E+00 -1.854378141397E+00
 -1.831341288259E+00 -1.808590638932E+00 -1.786122637015E+00 -1.763933770381E+00
 -1.742020570604E+00 -1.720379612403E+00 -1.699007513093E+00 -1.677900932047E+00
 -1.657056570172E+00 -1.636471169385E+00 -1.616141512101E+00 -1.596064420727E+00
 -1.576236757165E+00 -1.556655422319E+00 -1.537317355607E+00 -1.518219534486E+00
 -1.499358973975E+00 -1.480732726187E+00 -1.462337879873E+00 -1.444171559960E+00
 -1.426230927105E+00 -1.408513177250E+00 -1.391015541181E+00 -1.373735284098E+00
 -1.356669705186E+00 -1.339816137191E+00 -1.323171946005E+00 -1.306734530253E+00
 -1.290501320886E+00 -1.274469780777E+00 -1.258637404331E+00 -1.243001717083E+00