<?xml version="1.0" encoding="UTF-8" ?>
<psml version="1.1" energy_unit="hartree" length_unit="bohr"
 uuid="8f26e380-3ee8-11ef-55da-8b919efd9f48"
 xmlns="http://esl.cecam.org/PSML/ns/1.1">
<provenance creator="ATM4.2.7" date="10-JUL-24">
<annotation action="semilocal-pseudopotential-generation" />
<input-file name="INP">
<![CDATA[   pg   Oxygen
        tm2    5.000
   N    vwr 00000000
       0.0
    1    3
    2    0     1.000     1.000
    2    1     3.000     0.000
    3    2     0.000     0.000
   1.01294   1.04369   2.87146   0.00000   1.00000   0.00000
]]>
</input-file>
</provenance>
<pseudo-atom-spec atomic-label="N" atomic-number="7" z-pseudo="5"
 flavor="Troullier-Martins" relativity="dirac" spin-dft="no"
 core-corrections="no">
<annotation pseudo-energy="-9.71520309364" />
<exchange-correlation>
<annotation atom-xc-code="vw" siesta-xc-type="VDW" siesta-xc-authors="DRSLL" />
<libxc-info number-of-functionals="2">
<functional name="XC_GGA_X_OPTB88_VDW" type="XC_EXCHANGE" id="139" />
<functional name="XC_NOT_IMPL" type="XC_EXCHANGE_CORRELATION" id="-1" />
</libxc-info>
</exchange-correlation>
<valence-configuration total-valence-charge="5">
<shell n="2" l="s" occupation="2" />
<shell n="2" l="p" occupation="3" />
</valence-configuration>
</pseudo-atom-spec>
<grid npts="376">
<annotation type="sampled-log-atom"
 recipe="r(i:1..N) = a*(exp(b*(i-1))-1); resampled"
 recipe-cont="a: scale; b: step" scale="0.354107453809E-03"
 step="0.125000000000E-01" delta="0.500000000000E-02" rmax="20" />
<grid-data>
  0.000000000000E+00  5.048302436094E-03  1.012459783301E-02  1.527828389237E-02
  2.048528638279E-02  2.574353883944E-02  3.112566294380E-02  3.622016774735E-02
  4.161127830670E-02  4.719890450306E-02  5.220009842783E-02  5.772727250913E-02
  6.303836541492E-02  6.883511668267E-02  7.422386065491E-02  8.003230237576E-02
  8.521678038206E-02  9.073562849216E-02  9.661041172496E-02  1.028640859236E-01
  1.081561958640E-01  1.137196380832E-01  1.195683240846E-01  1.257168786297E-01
  1.321806763074E-01  1.372450950777E-01  1.425030354033E-01  1.479618921293E-01
  1.536293426726E-01  1.595133578194E-01  1.656222129359E-01  1.719644996063E-01
  1.785491377165E-01  1.853853879988E-01  1.924828650570E-01  1.998515508879E-01
  2.049197812585E-01  2.101163144918E-01  2.154443985901E-01  2.209073637796E-01
  2.265086245913E-01  2.322516819955E-01  2.381401255901E-01  2.441776358440E-01
  2.503679863977E-01  2.567150464216E-01  2.632227830351E-01  2.698952637853E-01
  2.767366591899E-01  2.837512453437E-01  2.909434065914E-01  2.983176382679E-01
  3.058785495081E-01  3.136308661276E-01  3.215794335766E-01  3.297292199687E-01
  3.380853191855E-01  3.466529540611E-01  3.554374796462E-01  3.644443865552E-01
  3.736793043981E-01  3.831480052993E-01  3.928564075051E-01  4.028105790827E-01
  4.078817665552E-01  4.130167417136E-01  4.182163069081E-01  4.234812745815E-01
  4.288124673957E-01  4.342107183603E-01  4.396768709631E-01  4.452117793014E-01
  4.508163082162E-01  4.564913334262E-01  4.622377416659E-01  4.680564308231E-01
  4.739483100800E-01  4.799143000545E-01  4.859553329449E-01  4.920723526747E-01
  4.982663150407E-01  5.045381878623E-01  5.108889511321E-01  5.173195971700E-01
  5.238311307775E-01  5.304245693949E-01  5.371009432605E-01  5.438612955711E-01
  5.507066826458E-01  5.576381740900E-01  5.646568529634E-01  5.717638159490E-01
  5.789601735240E-01  5.862470501341E-01  5.936255843685E-01  6.010969291382E-01
  6.086622518560E-01  6.163227346191E-01  6.240795743933E-01  6.319339832008E-01
  6.398871883088E-01  6.479404324218E-01  6.560949738757E-01  6.643520868341E-01
  6.727130614877E-01  6.811792042558E-01  6.897518379905E-01  6.984323021832E-01
  7.072219531741E-01  7.161221643640E-01  7.251343264291E-01  7.342598475379E-01
  7.435001535719E-01  7.528566883475E-01  7.623309138424E-01  7.719243104235E-01
  7.816383770786E-01  7.914746316505E-01  8.014346110738E-01  8.115198716156E-01
  8.217319891184E-01  8.320725592464E-01  8.425431977346E-01  8.531455406417E-01
  8.638812446052E-01  8.747519871008E-01  8.857594667040E-01  8.969054033561E-01
  9.081915386322E-01  9.196196360139E-01  9.311914811648E-01  9.429088822091E-01
  9.547736700147E-01  9.667876984787E-01  9.789528448175E-01  9.912710098601E-01
  1.003744118345E+00  1.016374119220E+00  1.029162985949E+00  1.042112716819E+00
  1.055225335251E+00  1.068502890118E+00  1.081947456066E+00  1.095561133835E+00
  1.109346050590E+00  1.123304360253E+00  1.137438243837E+00  1.151749909791E+00
  1.166241594342E+00  1.180915561844E+00  1.195774105136E+00  1.210819545894E+00
  1.226054235000E+00  1.241480552905E+00  1.257100910002E+00  1.272917747003E+00
  1.288933535322E+00  1.305150777459E+00  1.321572007390E+00  1.338199790966E+00
  1.355036726312E+00  1.372085444233E+00  1.389348608626E+00  1.406828916896E+00
  1.424529100377E+00  1.442451924758E+00  1.460600190516E+00  1.478976733356E+00
  1.497584424650E+00  1.516426171887E+00  1.535504919129E+00  1.554823647468E+00
  1.574385375495E+00  1.594193159770E+00  1.614250095300E+00  1.634559316022E+00
  1.655123995292E+00  1.675947346384E+00  1.697032622989E+00  1.718383119724E+00
  1.740002172647E+00  1.761893159779E+00  1.784059501633E+00  1.806504661743E+00
  1.829232147212E+00  1.852245509256E+00  1.875548343759E+00  1.899144291837E+00
  1.923037040404E+00  1.947230322751E+00  1.971727919127E+00  1.996533657333E+00
  2.021651413314E+00  2.047085111772E+00  2.072838726773E+00  2.098916282373E+00
  2.125321853242E+00  2.152059565305E+00  2.179133596383E+00  2.206548176849E+00
  2.234307590287E+00  2.262416174162E+00  2.290878320497E+00  2.319698476560E+00
  2.348881145560E+00  2.378430887348E+00  2.408352319130E+00  2.438650116193E+00
  2.469329012627E+00  2.500393802074E+00  2.531849338469E+00  2.563700536805E+00
  2.595952373895E+00  2.628609889155E+00  2.661678185389E+00  2.695162429584E+00
  2.729067853722E+00  2.763399755595E+00  2.798163499631E+00  2.833364517738E+00
  2.869008310144E+00  2.905100446267E+00  2.941646565574E+00  2.978652378472E+00
  3.016123667195E+00  3.054066286707E+00  3.092486165619E+00  3.131389307117E+00
  3.170781789895E+00  3.210669769109E+00  3.251059477336E+00  3.291957225551E+00
  3.333369404109E+00  3.375302483750E+00  3.417763016600E+00  3.460757637205E+00
  3.504293063562E+00  3.548376098169E+00  3.593013629092E+00  3.638212631033E+00
  3.683980166431E+00  3.730323386554E+00  3.777249532627E+00  3.824765936953E+00
  3.872880024069E+00  3.921599311898E+00  3.970931412928E+00  4.020884035400E+00
  4.071464984513E+00  4.122682163643E+00  4.174543575580E+00  4.227057323773E+00
  4.280231613603E+00  4.334074753661E+00  4.388595157047E+00  4.443801342684E+00
  4.499701936653E+00  4.556305673534E+00  4.613621397776E+00  4.671658065079E+00
  4.730424743788E+00  4.789930616318E+00  4.850184980582E+00  4.911197251446E+00
  4.972976962204E+00  5.035533766059E+00  5.098877437640E+00  5.163017874524E+00
  5.227965098786E+00  5.293729258561E+00  5.360320629632E+00  5.427749617038E+00
  5.496026756694E+00  5.565162717042E+00  5.635168300718E+00  5.706054446235E+00
  5.777832229699E+00  5.850512866533E+00  5.924107713236E+00  5.998628269152E+00
  6.074086178269E+00  6.150493231040E+00  6.227861366221E+00  6.306202672741E+00
  6.385529391589E+00  6.465853917726E+00  6.547188802022E+00  6.629546753219E+00
  6.712940639915E+00  6.797383492572E+00  6.882888505560E+00  6.969469039211E+00
  7.057138621908E+00  7.145910952202E+00  7.235799900952E+00  7.326819513487E+00
  7.418984011808E+00  7.512307796805E+00  7.606805450508E+00  7.702491738370E+00
  7.799381611567E+00  7.897490209338E+00  7.996832861352E+00  8.097425090101E+00
  8.199282613324E+00  8.302421346467E+00  8.406857405167E+00  8.512607107771E+00
  8.619686977884E+00  8.728113746954E+00  8.837904356884E+00  8.949075962682E+00
  9.061645935135E+00  9.175631863532E+00  9.291051558406E+00  9.407923054318E+00
  9.526264612678E+00  9.646094724596E+00  9.767432113769E+00  9.890295739412E+00
  1.001470479922E+01  1.014067873235E+01  1.026823722250E+01  1.039740020093E+01
  1.052818784963E+01  1.066062060443E+01  1.079471915822E+01  1.093050446417E+01
  1.106799773901E+01  1.120722046635E+01  1.134819440001E+01  1.149094156747E+01
  1.163548427326E+01  1.178184510246E+01  1.193004692427E+01  1.208011289550E+01
  1.223206646429E+01  1.238593137368E+01  1.254173166537E+01  1.269949168348E+01
  1.285923607834E+01  1.302098981032E+01  1.318477815378E+01  1.335062670099E+01
  1.351856136611E+01  1.368860838927E+01  1.386079434068E+01  1.403514612473E+01
  1.421169098425E+01  1.439045650473E+01  1.457147061865E+01  1.475476160982E+01
  1.494035811785E+01  1.512828914256E+01  1.531858404855E+01  1.551127256980E+01
  1.570638481428E+01  1.590395126867E+01  1.610400280313E+01  1.630657067612E+01
  1.651168653929E+01  1.671938244240E+01  1.692969083836E+01  1.714264458830E+01
  1.735827696665E+01  1.757662166643E+01  1.779771280443E+01  1.802158492660E+01
  1.824827301341E+01  1.847781248533E+01  1.871023920838E+01  1.894558949970E+01
  1.918390013325E+01  1.942520834556E+01  1.966955184153E+01  1.991696880031E+01
</grid-data>
</grid>
<valence-charge total-charge="5" is-unscreening-charge="yes"
 rescaled-to-z-pseudo="no">
<radfunc>
<data>
  1.203543392721E+00  1.205119902897E+00  1.209882233653E+00  1.217969377965E+00
  1.229456140202E+00  1.244421129191E+00  1.263217278481E+00  1.284224475886E+00
  1.309826856262E+00  1.339979376700E+00  1.370048409458E+00  1.406614535730E+00
  1.444995214967E+00  1.490444358045E+00  1.535955700354E+00  1.588446401909E+00
  1.638232358733E+00  1.694186114097E+00  1.756998103530E+00  1.827415013067E+00
  1.889760662244E+00  1.957918630293E+00  2.032340487880E+00  2.113492394040E+00
  2.201850231335E+00  2.273135823916E+00  2.348945033067E+00  2.429474482117E+00
  2.514913824127E+00  2.605442316568E+00  2.701224836616E+00  2.802407286228E+00
  2.909111339613E+00  3.021428492183E+00  3.139413380473E+00  3.263076357792E+00
  3.348654471541E+00  3.436711506473E+00  3.527206897614E+00  3.620085452001E+00
  3.715276018182E+00  3.812690125217E+00  3.912220604672E+00  4.013740212091E+00
  4.117100267699E+00  4.222129339665E+00  4.328631997034E+00  4.436387663357E+00
  4.545149606145E+00  4.654644101200E+00  4.764569814731E+00  4.874597449568E+00
  4.984369704565E+00  5.093501598231E+00  5.201581208243E+00  5.308170877619E+00
  5.412808935395E+00  5.515011974294E+00  5.614277719746E+00  5.710088513135E+00
  5.801915417199E+00  5.889222932678E+00  5.971474292617E+00  6.048137274354E+00
  6.084209575117E+00  6.118690439584E+00  6.151517447548E+00  6.182629680857E+00
  6.211967933523E+00  6.239474919724E+00  6.265095477920E+00  6.288776769263E+00
  6.310468468341E+00  6.330122944278E+00  6.347695430173E+00  6.363144178819E+00
  6.376430602702E+00  6.387519396314E+00  6.396378638907E+00  6.402979875968E+00
  6.407298177838E+00  6.409312174162E+00  6.409004063111E+00  6.406359594628E+00
  6.401368027343E+00  6.394022059209E+00  6.384317732368E+00  6.372254313269E+00
  6.357834149579E+00  6.341062506009E+00  6.321947381728E+00  6.300499312638E+00
  6.276731162324E+00  6.250657906043E+00  6.222296412608E+00  6.191665229417E+00
  6.158784376242E+00  6.123675153574E+00  6.086359971429E+00  6.046862204423E+00
  6.005206078699E+00  5.961416595794E+00  5.915519497937E+00  5.867541278342E+00
  5.817509238991E+00  5.765451597105E+00  5.711397639973E+00  5.655377926185E+00
  5.597424529465E+00  5.537571319477E+00  5.475854272048E+00  5.412311799459E+00
  5.346985089729E+00  5.279918442402E+00  5.211159587221E+00  5.140759971354E+00
  5.068775000706E+00  4.995264221238E+00  4.920291427312E+00  4.843924685865E+00
  4.766236267699E+00  4.687302480380E+00  4.607203401066E+00  4.526022511965E+00
  4.443846245954E+00  4.360763455018E+00  4.276864819378E+00  4.192242220452E+00
  4.106988105798E+00  4.021194878965E+00  3.934954351549E+00  3.848357298754E+00
  3.761493163430E+00  3.674449956939E+00  3.587314408486E+00  3.500172417816E+00
  3.413109869399E+00  3.326213806273E+00  3.239573463291E+00  3.153279804858E+00
  3.067423383638E+00  2.982092495339E+00  2.897372176254E+00  2.813344418751E+00
  2.730087803618E+00  2.647677456250E+00  2.566184963343E+00  2.485678291769E+00
  2.406221728352E+00  2.327875838249E+00  2.250697438796E+00  2.174739552725E+00
  2.100051360904E+00  2.026678211439E+00  1.954661651568E+00  1.884039474548E+00
  1.814845745362E+00  1.747110852547E+00  1.680861559888E+00  1.616121065330E+00
  1.552909067495E+00  1.491241838520E+00  1.431132304060E+00  1.372590129044E+00
  1.315621822322E+00  1.260230858233E+00  1.206417773717E+00  1.154180324688E+00
  1.103513577870E+00  1.054410045948E+00  1.006859799520E+00  9.608505881295E-01
  9.163679601199E-01  8.733953794157E-01  8.319143415928E-01  7.919045317034E-01
  7.533439948753E-01  7.162092573479E-01  6.804754474422E-01  6.461164188627E-01
  6.131048559102E-01  5.814123941759E-01  5.510097245738E-01  5.218666826431E-01
  4.939523952819E-01  4.672354162106E-01  4.416838326949E-01  4.172653598750E-01
  3.939474318858E-01  3.716972776411E-01  3.504820111012E-01  3.302687004413E-01
  3.110244333359E-01  2.927164216948E-01  2.753120905676E-01  2.587791442489E-01
  2.430856224102E-01  2.281999499070E-01  2.140909799106E-01  2.007280429558E-01
  1.880809809269E-01  1.761201847412E-01  1.648166507618E-01  1.541420226305E-01
  1.440686182297E-01  1.345694501289E-01  1.256182424267E-01  1.171894426675E-01
  1.092582369775E-01  1.018005576465E-01  9.479309012964E-02  8.821328903331E-02
  8.203938633772E-02  7.625039115169E-02  7.082608576974E-02  6.574701935711E-02
  6.099449965465E-02  5.655058362539E-02  5.239806792753E-02  4.852047679775E-02
  4.490204999963E-02  4.152773177922E-02  3.838315700585E-02  3.545463450372E-02
  3.272912921293E-02  3.019424351365E-02  2.783819790549E-02  2.564981156428E-02
  2.361848264406E-02  2.173416848569E-02  1.998736575576E-02  1.836909031923E-02
  1.687085725659E-02  1.548466106886E-02  1.420295571223E-02  1.301863468926E-02
  1.192501145897E-02  1.091580009564E-02  9.985096291014E-03  9.127358870019E-03
  8.337391784780E-03  7.610326546565E-03  6.941605222517E-03  6.326963994896E-03
  5.762417224303E-03  5.244242094622E-03  4.768963860662E-03  4.333341651190E-03
  3.934354857088E-03  3.569190134734E-03  3.235228987543E-03  2.930035894856E-03
  2.651347061935E-03  2.397059721602E-03  2.165221939530E-03  1.954022951663E-03
  1.761784192972E-03  1.586950540137E-03  1.428082183230E-03  1.283847265791E-03
  1.153014604356E-03  1.034446817414E-03  9.270939058915E-04  8.299871895243E-04
  7.422336305529E-04  6.630108262322E-04  5.915615820441E-04  5.271895643679E-04
  4.692555453828E-04  4.171727231250E-04  3.704028010427E-04  3.284522473408E-04
  2.908688737151E-04  2.572391298551E-04  2.271851066224E-04  2.003615219287E-04
  1.764530666330E-04  1.551721486328E-04  1.362567086474E-04  1.194681074699E-04
  1.045892558221E-04  9.142283082266E-05  7.978963148091E-05  6.952720475925E-05
  6.048844172395E-05  5.254022297357E-05  4.556236841013E-05  3.944652618010E-05
  3.409511881724E-05  2.942048153521E-05  2.534396103929E-05  2.179511508295E-05
  1.871098713321E-05  1.603539584098E-05  1.371831122529E-05  1.171526136369E-05
  9.986789159401E-06  8.497955367148E-06  7.217878961622E-06  6.119319642921E-06
  5.178294071908E-06  4.373728056577E-06  3.687140051471E-06  3.102354458249E-06
  2.605242349885E-06  2.183487358186E-06  1.826374806544E-06  1.524602239808E-06
  1.270109658547E-06  1.055928022062E-06  8.760443233300E-07  7.252814742550E-07
  5.991916233968E-07  4.939616575424E-07  4.063297357001E-07  3.335117315888E-07
  2.731365448235E-07  2.231893519064E-07  1.819619459925E-07  1.480093851272E-07
  1.201122394372E-07  9.724379467272E-08  7.854163150844E-08  6.328305891342E-08
  5.086392866862E-08  4.078042855623E-08  3.261338159970E-08  2.601520231102E-08
  2.069730502665E-08  1.642348874895E-08  1.299596800724E-08  1.025574945771E-08
  8.072069445173E-09  6.336645927044E-09  4.961080510230E-09  3.873650529777E-09
  3.016315709340E-09  2.342232700516E-09  1.813696755205E-09  1.400441673380E-09
  1.078239463022E-09  8.277500391213E-10  6.335789451361E-10  4.835076557354E-10
  3.678666508714E-10  2.790262597240E-10  2.109843671521E-10  1.590335506840E-10
  1.194931574172E-10  8.949431191061E-11  6.680793357351E-11  4.970759229227E-11
  3.686049388179E-11  2.724110562462E-11  2.006294409969E-11  1.472488497807E-11
  1.076904521825E-11  7.847855888619E-12  5.698408951731E-12  4.122541001225E-12
  2.971425746034E-12  2.133697307795E-12  1.526328491519E-12  1.087650778948E-12
  7.720331120712E-13  5.458405911560E-13  3.843769811107E-13  2.695805014565E-13
  1.882941337872E-13  1.309723673736E-13  9.071815809268E-14  6.256871373099E-14
  4.296800554207E-14  2.937881972290E-14  1.999864594410E-14  1.355250433664E-14
</data>
</radfunc>
</valence-charge>
<semilocal-potentials set="scalar_relativistic">
<slps n="2" l="s" rc="1.00374411834" flavor="Troullier-Martins">
<radfunc>
<data>
 -7.394385262897E+00 -7.262249226904E+00 -6.890848238116E+00 -6.339666000471E+00
 -5.695761526543E+00 -5.040858222228E+00 -4.426552879896E+00 -3.924422884757E+00
 -3.483940930976E+00 -3.119963506343E+00 -2.862932978419E+00 -2.638588094562E+00
 -2.470245884223E+00 -2.327590174447E+00 -2.224436980884E+00 -2.136865989157E+00
 -2.074138673162E+00 -2.019710701671E+00 -1.972390363055E+00 -1.930914438311E+00
 -1.901064146011E+00 -1.873438990798E+00 -1.847358955325E+00 -1.822150451782E+00
 -1.797156338402E+00 -1.778173460666E+00 -1.758713326329E+00 -1.738555406065E+00
 -1.717512704444E+00 -1.695442513789E+00 -1.672258612338E+00 -1.647944499746E+00
 -1.622567083412E+00 -1.596290068362E+00 -1.569386187075E+00 -1.542247361556E+00
 -1.524274923233E+00 -1.506611422309E+00 -1.489468323894E+00 -1.473082561025E+00
 -1.457715840497E+00 -1.443653608116E+00 -1.431203696048E+00 -1.420694610703E+00
 -1.412472418671E+00 -1.406903299260E+00 -1.404367371943E+00 -1.405257965193E+00
 -1.409979746208E+00 -1.418946913856E+00 -1.432581498556E+00 -1.451311772994E+00
 -1.475570748959E+00 -1.505794710203E+00 -1.542421705659E+00 -1.585889902205E+00
 -1.636635672137E+00 -1.695091268249E+00 -1.761681919377E+00 -1.836822161827E+00
 -1.920911207842E+00 -2.014327141633E+00 -2.117419727367E+00 -2.230501612940E+00
 -2.290873525963E+00 -2.353837719846E+00 -2.419417782833E+00 -2.487632625134E+00
 -2.558495963461E+00 -2.632015768809E+00 -2.708193677091E+00 -2.787024362591E+00
 -2.868494874547E+00 -2.952583937657E+00 -3.039261217780E+00 -3.128486554712E+00
 -3.220209164552E+00 -3.314366814937E+00 -3.410884977250E+00 -3.509675960818E+00
 -3.610638035179E+00 -3.713654547566E+00 -3.818593044039E+00 -3.925304404001E+00
 -4.033621999262E+00 -4.143360890351E+00 -4.254317074396E+00 -4.366266800583E+00
 -4.478965970944E+00 -4.592149646056E+00 -4.705531677009E+00 -4.818804486836E+00
 -4.931639026340E+00 -5.043684930919E+00 -5.154570906516E+00 -5.263905374141E+00
 -5.371277403505E+00 -5.476257966994E+00 -5.578401545560E+00 -5.677248117920E+00
 -5.772325563617E+00 -5.863152509046E+00 -5.949241643722E+00 -6.030103524487E+00
 -6.105250902481E+00 -6.174203675398E+00 -6.236493498403E+00 -6.291674728452E+00
 -6.339319963883E+00 -6.379032673219E+00 -6.410462351899E+00 -6.433300883268E+00
 -6.447296239346E+00 -6.452259414605E+00 -6.448073165069E+00 -6.434700279891E+00
 -6.412192275274E+00 -6.380694892965E+00 -6.340457903618E+00 -6.291842777070E+00
 -6.235323821681E+00 -6.171492377842E+00 -6.101057647215E+00 -6.024844494359E+00
 -5.943787797542E+00 -5.858922430487E+00 -5.771367950435E+00 -5.682306847961E+00
 -5.592954988907E+00 -5.504522869814E+00 -5.418165003386E+00 -5.334921599142E+00
 -5.255623456272E+00 -5.180807664895E+00 -5.110585912297E+00 -5.044509555851E+00
 -4.981364515028E+00 -4.919469131811E+00 -4.858403780781E+00 -4.798131562666E+00
 -4.738620731060E+00 -4.679819526587E+00 -4.621736346906E+00 -4.564375062901E+00
 -4.507713088397E+00 -4.451749539027E+00 -4.396474155064E+00 -4.341879293169E+00
 -4.287949875356E+00 -4.234672042985E+00 -4.182052533612E+00 -4.130081964027E+00
 -4.078753619580E+00 -4.028060113726E+00 -3.977993832115E+00 -3.928547520257E+00
 -3.879713904037E+00 -3.831485786797E+00 -3.783856028658E+00 -3.736817535492E+00
 -3.690363348220E+00 -3.644486224337E+00 -3.599180174477E+00 -3.554409405689E+00
 -3.510200727756E+00 -3.466547102795E+00 -3.423441193623E+00 -3.380875604309E+00
 -3.338843110350E+00 -3.297336594229E+00 -3.256349062224E+00 -3.215873652431E+00
 -3.175903603429E+00 -3.136432270487E+00 -3.097453151736E+00 -3.058959584432E+00
 -3.020945291411E+00 -2.983404647422E+00 -2.946331577872E+00 -2.909720137524E+00
 -2.873564459686E+00 -2.837858766410E+00 -2.802597354846E+00 -2.767774608686E+00
 -2.733384994147E+00 -2.699423075569E+00 -2.665883524261E+00 -2.632760975048E+00
 -2.600050182460E+00 -2.567745991520E+00 -2.535843315591E+00 -2.504337139498E+00
 -2.473222510097E+00 -2.442494541648E+00 -2.412148417907E+00 -2.382179379698E+00
 -2.352582728184E+00 -2.323353847801E+00 -2.294488165521E+00 -2.265981165382E+00
 -2.237828389121E+00 -2.210025431377E+00 -2.182567942577E+00 -2.155451629413E+00
 -2.128672255703E+00 -2.102225629567E+00 -2.076107614629E+00 -2.050314127008E+00
 -2.024841133621E+00 -1.999684652145E+00 -1.974840748981E+00 -1.950305538957E+00
 -1.926075186543E+00 -1.902145904623E+00 -1.878513951841E+00 -1.855175633516E+00
 -1.832127300722E+00 -1.809365349847E+00 -1.786886222103E+00 -1.764686402764E+00
 -1.742762420500E+00 -1.721110847401E+00 -1.699728298151E+00 -1.678611429528E+00
 -1.657756939792E+00 -1.637161568256E+00 -1.616822094834E+00 -1.596735339361E+00
 -1.576898161207E+00 -1.557307458773E+00 -1.537960169000E+00 -1.518853266920E+00
 -1.499983765134E+00 -1.481348713387E+00 -1.462945198099E+00 -1.444770341915E+00
 -1.426821303245E+00 -1.409095275822E+00 -1.391589488268E+00 -1.374301203655E+00
 -1.357227719076E+00 -1.340366365224E+00 -1.323714505971E+00 -1.307269537963E+00
 -1.291028890207E+00 -1.274990023671E+00 -1.259150430885E+00 -1.243507635551E+00
 -1.228059192150E+00 -1.212802685566E+00 -1.197735730702E+00 -1.182855972110E+00
 -1.168161083623E+00 -1.153648767987E+00 -1.139316756505E+00 -1.125162808681E+00
 -1.111184711867E+00 -1.097380280918E+00 -1.083747357854E+00 -1.070283811514E+00
 -1.056987537230E+00 -1.043856456492E+00 -1.030888516626E+00 -1.018081690472E+00
 -1.005433976067E+00 -9.929433963285E-01 -9.806079987505E-01 -9.684258550934E-01
 -9.563950610841E-01 -9.445137361178E-01 -9.327800229634E-01 -9.211920874730E-01
 -9.097481182948E-01 -8.984463265896E-01 -8.872849457510E-01 -8.762622311287E-01
 -8.653764597559E-01 -8.546259300790E-01 -8.440089616920E-01 -8.335238950732E-01
 -8.231690913257E-01 -8.129429319207E-01 -8.028438184445E-01 -7.928701723484E-01
 -7.830204347013E-01 -7.732930659464E-01 -7.636865456600E-01 -7.541993723133E-01
 -7.448300630383E-01 -7.355771533949E-01 -7.264391971424E-01 -7.174147660130E-01
 -7.085024494883E-01 -6.997008545788E-01 -6.910086056059E-01 -6.824243439867E-01
 -6.739467280213E-01 -6.655744326832E-01 -6.573061494120E-01 -6.491405859084E-01
 -6.410764659322E-01 -6.331125291030E-01 -6.252475307023E-01 -6.174802414798E-01
 -6.098094474600E-01 -6.022339497534E-01 -5.947525643681E-01 -5.873641220251E-01
 -5.800674679752E-01 -5.728614618187E-01 -5.657449773266E-01 -5.587169022646E-01
 -5.517761382194E-01 -5.449216004265E-01 -5.381522176009E-01 -5.314669317693E-01
 -5.248646981048E-01 -5.183444847635E-01 -5.119052727228E-01 -5.055460556225E-01
 -4.992658396073E-01 -4.930636431711E-01 -4.869384970037E-01 -4.808894438392E-01
 -4.749155383065E-01 -4.690158467811E-01 -4.631894472393E-01 -4.574354291139E-01
 -4.517528931521E-01 -4.461409512746E-01 -4.405987264366E-01 -4.351253524911E-01
 -4.297199740532E-01 -4.243817463663E-01 -4.191098351700E-01 -4.139034165700E-01
 -4.087616769086E-01 -4.036838126382E-01 -3.986690301951E-01 -3.937165458759E-01
 -3.888255857145E-01 -3.839953853614E-01 -3.792251899639E-01 -3.745142540485E-01
 -3.698618414039E-01 -3.652672249663E-01 -3.607296867053E-01 -3.562485175120E-01
 -3.518230170879E-01 -3.474524938355E-01 -3.431362647502E-01 -3.388736553135E-01
 -3.346639993875E-01 -3.305066391106E-01 -3.264009247952E-01 -3.223462148254E-01
 -3.183418755572E-01 -3.143872812193E-01 -3.104818138152E-01 -3.066248630267E-01
 -3.028158261183E-01 -2.990541078431E-01 -2.953391203500E-01 -2.916702830912E-01
 -2.880470227319E-01 -2.844687730606E-01 -2.809349749005E-01 -2.774450760222E-01
 -2.739985310570E-01 -2.705948014122E-01 -2.672333551867E-01 -2.639136670875E-01
 -2.606352183482E-01 -2.573974966473E-01 -2.541999960286E-01 -2.510422168217E-01
</data>
</radfunc>
</slps>
<slps n="2" l="p" rc="1.04211271682" flavor="Troullier-Martins">
<radfunc>
<data>
 -2.276639767625E+01 -2.263426149556E+01 -2.226285831319E+01 -2.171166629441E+01
 -2.106773478849E+01 -2.041277304499E+01 -1.979835688717E+01 -1.929605343636E+01
 -1.885528876801E+01 -1.849087703561E+01 -1.823330316681E+01 -1.800814755710E+01
 -1.783877517073E+01 -1.769465884031E+01 -1.758977748435E+01 -1.749987769709E+01
 -1.743460347483E+01 -1.737691264659E+01 -1.732541416745E+01 -1.727859081776E+01
 -1.724340622506E+01 -1.720928828233E+01 -1.717530893012E+01 -1.714049464661E+01
 -1.710382603294E+01 -1.707447003212E+01 -1.704301260324E+01 -1.700898446197E+01
 -1.697191315330E+01 -1.693132874622E+01 -1.688677036892E+01 -1.683779313130E+01
 -1.678397480638E+01 -1.672492148943E+01 -1.666027134929E+01 -1.658969556059E+01
 -1.653920451482E+01 -1.648586438690E+01 -1.642959614387E+01 -1.637032216493E+01
 -1.630796400850E+01 -1.624243982321E+01 -1.617366144443E+01 -1.610153115801E+01
 -1.602593711763E+01 -1.594675451904E+01 -1.586383818126E+01 -1.577702075126E+01
 -1.568611001020E+01 -1.559088655290E+01 -1.549110196442E+01 -1.538647759087E+01
 -1.527670398626E+01 -1.516144110709E+01 -1.504031931656E+01 -1.491294125201E+01
 -1.477888460225E+01 -1.463770583677E+01 -1.448894492521E+01 -1.433213108350E+01
 -1.416678958141E+01 -1.399244964433E+01 -1.380865347891E+01 -1.361496644608E+01
 -1.351428712645E+01 -1.341098839570E+01 -1.330502767410E+01 -1.319636616202E+01
 -1.308496929216E+01 -1.297080719820E+01 -1.285385519931E+01 -1.273409429940E+01
 -1.261151170017E+01 -1.248610132639E+01 -1.235786436192E+01 -1.222680979462E+01
 -1.209295496782E+01 -1.195632613613E+01 -1.181695902246E+01 -1.167489937343E+01
 -1.153020350935E+01 -1.138293886502E+01 -1.123318451684E+01 -1.108103169169E+01
 -1.092658425196E+01 -1.076995915140E+01 -1.061128685518E+01 -1.045071171771E+01
 -1.028839231064E+01 -1.012450169336E+01 -9.959227617395E+00 -9.792772655634E+00
 -9.625354246639E+00 -9.457204643655E+00 -9.288570757197E+00 -9.119713879451E+00
 -8.950909277965E+00 -8.782445645430E+00 -8.614624391588E+00 -8.447758762656E+00
 -8.282172772923E+00 -8.118199932621E+00 -7.956181756115E+00 -7.796466027760E+00
 -7.639404823971E+00 -7.485352363276E+00 -7.334661694152E+00 -7.187686880884E+00
 -7.044768946047E+00 -6.906238073994E+00 -6.772417541091E+00 -6.643608095848E+00
 -6.520088994909E+00 -6.402111686462E+00 -6.289894844750E+00 -6.183618653094E+00
 -6.083419441485E+00 -5.989381331321E+00 -5.901532722009E+00 -5.819841591698E+00
 -5.744205714564E+00 -5.674447986958E+00 -5.610311178668E+00 -5.551453332378E+00
 -5.497444455683E+00 -5.447764870413E+00 -5.401805833990E+00 -5.358873131216E+00
 -5.318194468165E+00 -5.278931911357E+00 -5.240199800963E+00 -5.201095982909E+00
 -5.160721608378E+00 -5.118242170952E+00 -5.072937492110E+00 -5.024291677808E+00
 -4.972064027703E+00 -4.916406574061E+00 -4.857978751812E+00 -4.798131448225E+00
 -4.738620731060E+00 -4.679819526587E+00 -4.621736346906E+00 -4.564375062901E+00
 -4.507713088397E+00 -4.451749539027E+00 -4.396474155064E+00 -4.341879293169E+00
 -4.287949875356E+00 -4.234672042985E+00 -4.182052533612E+00 -4.130081964027E+00
 -4.078753619580E+00 -4.028060113726E+00 -3.977993832115E+00 -3.928547520257E+00
 -3.879713904037E+00 -3.831485786797E+00 -3.783856028658E+00 -3.736817535492E+00
 -3.690363348220E+00 -3.644486224337E+00 -3.599180174477E+00 -3.554409405689E+00
 -3.510200727756E+00 -3.466547102795E+00 -3.423441193623E+00 -3.380875604309E+00
 -3.338843110350E+00 -3.297336594229E+00 -3.256349062224E+00 -3.215873652431E+00
 -3.175903603429E+00 -3.136432270487E+00 -3.097453151736E+00 -3.058959584432E+00
 -3.020945291411E+00 -2.983404647422E+00 -2.946331577872E+00 -2.909720137524E+00
 -2.873564459686E+00 -2.837858766410E+00 -2.802597354846E+00 -2.767774608686E+00
 -2.733384994147E+00 -2.699423075569E+00 -2.665883524261E+00 -2.632760975048E+00
 -2.600050182460E+00 -2.567745991520E+00 -2.535843315591E+00 -2.504337139498E+00
 -2.473222510097E+00 -2.442494541648E+00 -2.412148417907E+00 -2.382179379698E+00
 -2.352582728184E+00 -2.323353847801E+00 -2.294488165521E+00 -2.265981165382E+00
 -2.237828389121E+00 -2.210025431377E+00 -2.182567942577E+00 -2.155451629413E+00
 -2.128672255703E+00 -2.102225629567E+00 -2.076107614629E+00 -2.050314127008E+00
 -2.024841133621E+00 -1.999684652145E+00 -1.974840748981E+00 -1.950305538957E+00
 -1.926075186543E+00 -1.902145904623E+00 -1.878513951841E+00 -1.855175633516E+00
 -1.832127300722E+00 -1.809365349847E+00 -1.786886222103E+00 -1.764686402764E+00
 -1.742762420500E+00 -1.721110847401E+00 -1.699728298151E+00 -1.678611429528E+00
 -1.657756939792E+00 -1.637161568256E+00 -1.616822094834E+00 -1.596735339361E+00
 -1.576898161207E+00 -1.557307458773E+00 -1.537960169000E+00 -1.518853266920E+00
 -1.499983765134E+00 -1.481348713387E+00 -1.462945198099E+00 -1.444770341915E+00
 -1.426821303245E+00 -1.409095275822E+00 -1.391589488268E+00 -1.374301203655E+00
 -1.357227719076E+00 -1.340366365224E+00 -1.323714505971E+00 -1.307269537963E+00
 -1.291028890207E+00 -1.274990023671E+00 -1.259150430885E+00 -1.243507635551E+00
 -1.228059192150E+00 -1.212802685566E+00 -1.197735730702E+00 -1.182855972110E+00
 -1.168161083623E+00 -1.153648767987E+00 -1.139316756505E+00 -1.125162808681E+00