Siesta Version  : v4.1.5-1-g384057250
Architecture    : gcc
Compiler version: GNU Fortran (Ubuntu 11.4.0-1ubuntu1~22.04) 11.4.0
Compiler flags  : mpifort -O2 -fPIC -ftree-vectorize -fallow-argument-mismatch
PP flags        : -DFC_HAVE_ABORT -DMPI -DSIESTA__FLOOK -DSIESTA__METIS -DSIESTA__MUMPS -DCDF -DNCDF -DNCDF_4 -DNCDF_PARALLEL -DSIESTA__MRRR -DSIESTA__ELPA
Libraries       : libncdf.a libfdict.a  -lflookall -ldl -lnetcdff -lnetcdf -lhdf5_hl -lhdf5 -lhdf5_fortran -lz -lscalapack-openmpi -lopenblas -lmetis -lzmumps -lcmumps -ldmumps -lmumps_common -lpord -lsmumps -lesmumps -lscotch -lscotcherr -fopenmp -lelpa
PARALLEL version
NetCDF support
NetCDF-4 support
NetCDF-4 MPI-IO support
METIS ordering support
Lua support

* Running on 8 nodes in parallel
>> Start of run:   1-FEB-2024  20:49:36

                           ***********************       
                           *  WELCOME TO SIESTA  *       
                           ***********************       

reinit: Reading from standard input
reinit: Dumped input in INPUT_TMP.47005
************************** Dump of input data file ****************************
# mpirun -np 4 siesta-4.1.5 < GC.fdf > GC.out &
SystemLabel      GC
NumberOfAtoms    29
NumberOfSpecies  4
%block ChemicalSpeciesLabel
    1    1  H
    2    7  N
    3   14  Si
    4    8  O
%endblock ChemicalSpeciesLabel
############################################
# This overrides Defaults.fdf configuration
############################################
MD.TypeOfRun                Verlet # CG, Verlet
MD.Steps                    0
MaxSCFIterations            200
SCF.MustConverge            F
AtomicCoordinatesFormat NotScaledCartesianAng
%block AtomicCoordinatesAndAtomicSpecies
    1.46260147423514 2.9602016403181297 -0.0  1  1  H
    0.7561147442351401 2.1701654603181297 -0.0  2  2  N
    -0.9741721657648599 2.6115293703181295 0.0  3  3  Si
    -1.1299518457648599 4.10152163031813 0.0  1  4  H
    -2.49749378576486 1.0526218503181295 -0.0  3  5  Si
    -3.98068141576486 1.2954522103181296 -0.0  1  6  H
    -1.2991029257648599 -0.8606543096818704 -0.0  3  7  Si
    -2.0651283857648597 -2.3933710496818703 -0.0  2  8  N
    -1.4748818357648599 -3.3505840796818704 0.0  1  9  H
    -3.1167507057648596 -2.47383127968187 -0.0  1  10  H
    0.41709713423514017 -0.8054799996818703 0.0  2  11  N
    1.49211975423514 0.5248588403181297 -0.0  3  12  Si
    3.10079307423514 0.5060485803181297 -0.0  4  13  O
    5.6164483 -7.44953905 0.0  1  14  H
    4.58206954 -7.2320376 0.0  2  15  N
    3.29666389 -8.492636 0.0  3  16  Si
    3.80117524 -9.90371886 -0.0  1  17  H
    1.65934232 -8.01362137 0.0  2  18  N
    1.68097912 -6.20463398 -0.0  3  19  Si
    0.54543521 -4.28636135 0.0  3  20  Si
    -1.03431493 -3.94450034 0.0  4  21  O
    1.73226934 -2.87719605 0.0  2  22  N
    1.20957366 -1.92961761 -0.0  1  23  H
    3.50853448 -2.77677601 0.0  3  24  Si
    4.13684451 -1.17938608 0.0  2  25  N
    3.54296161 -0.26248101 0.0  1  26  H
    5.18364407 -1.05231197 -0.0  1  27  H
    4.63288658 -4.07521596 -0.0  2  28  N
    3.79410501 -5.58634043 0.0  3  29  Si
%endblock AtomicCoordinatesAndAtomicSpecies
#############
# Unit Cell
#############
LatticeConstant 1.0 Ang
%block LatticeVectors
    30.00000    0.000000    0.000000
    0.000000    45.00000    0.000000
    0.000000    0.000000    10.00000
%endblock LatticeVectors
%include ../../../../Defaults.fdf
************************** End of input data file *****************************

reinit: -----------------------------------------------------------------------
reinit: System Name: 
reinit: -----------------------------------------------------------------------
reinit: System Label: GC
reinit: -----------------------------------------------------------------------

initatom: Reading input for the pseudopotentials and atomic orbitals ----------
Species number:   1 Atomic number:    1 Label: H
Species number:   2 Atomic number:    7 Label: N
Species number:   3 Atomic number:   14 Label: Si
Species number:   4 Atomic number:    8 Label: O

Ground state valence configuration:   1s01
Reading pseudopotential information in formatted form from H.psf

Pseudopotential generated from a relativistic atomic calculation

Valence configuration for pseudopotential generation:
1s( 1.00) rc: 0.01
2p( 0.00) rc: 0.60
3d( 0.00) rc: 1.99
4f( 0.00) rc: 2.49
Ground state valence configuration:   2s02  2p03
Reading pseudopotential information in formatted form from N.psf

Pseudopotential generated from a relativistic atomic calculation

Valence configuration for pseudopotential generation:
2s( 2.00) rc: 0.94
2p( 3.00) rc: 0.59
3d( 0.00) rc: 3.46
4f( 0.00) rc: 2.47
Ground state valence configuration:   3s02  3p02
Reading pseudopotential information in formatted form from Si.psf

Pseudopotential generated from a relativistic atomic calculation

Valence configuration for pseudopotential generation:
3s( 2.00) rc: 1.67
3p( 2.00) rc: 2.04
3d( 0.00) rc: 2.89
4f( 0.00) rc: 2.49
Ground state valence configuration:   2s02  2p04
Reading pseudopotential information in formatted form from O.psf

Pseudopotential generated from a relativistic atomic calculation

Valence configuration for pseudopotential generation:
2s( 2.00) rc: 0.45
2p( 4.00) rc: 0.92
3d( 0.00) rc: 2.24
4f( 0.00) rc: 0.25
For H, standard SIESTA heuristics set lmxkb to 2
 (one more than the basis l, including polarization orbitals).
Use PS.lmax or PS.KBprojectors blocks to override.
For N, standard SIESTA heuristics set lmxkb to 3
 (one more than the basis l, including polarization orbitals).
Use PS.lmax or PS.KBprojectors blocks to override.
For Si, standard SIESTA heuristics set lmxkb to 3
 (one more than the basis l, including polarization orbitals).
Use PS.lmax or PS.KBprojectors blocks to override.
For O, standard SIESTA heuristics set lmxkb to 3
 (one more than the basis l, including polarization orbitals).
Use PS.lmax or PS.KBprojectors blocks to override.

<basis_specs>
===============================================================================
H                    Z=   1    Mass=  1.0100        Charge= 0.17977+309
Lmxo=0 Lmxkb= 2    BasisType=split      Semic=F
L=0  Nsemic=0  Cnfigmx=1
          i=1  nzeta=2  polorb=1  (1s)
            splnorm:   0.62000    
               vcte:    0.0000    
               rinn:    0.0000    
               qcoe:    0.0000    
               qyuk:    0.0000    
               qwid:   0.10000E-01
                rcs:    0.0000      0.0000    
            lambdas:    1.0000      1.0000    
-------------------------------------------------------------------------------
L=0  Nkbl=1  erefs: 0.17977+309
L=1  Nkbl=1  erefs: 0.17977+309
L=2  Nkbl=1  erefs: 0.17977+309
===============================================================================
</basis_specs>

atom: Called for H                     (Z =   1)

read_vps: Pseudopotential generation method:
read_vps: ATM4.2.7  Troullier-Martins                       
Valence charge for ps generation:    1.00000

xc_check: Exchange-correlation functional:
xc_check: GGA Perdew, Burke & Ernzerhof 1996
V l=0 = -2*Zval/r beyond r=  0.0098
V l=1 = -2*Zval/r beyond r=  0.5817
V l=2 = -2*Zval/r beyond r=  1.9372
All V_l potentials equal beyond r=  1.9372
This should be close to max(r_c) in ps generation
All pots = -2*Zval/r beyond r=  1.9372

VLOCAL1: 99.0% of the norm of Vloc inside     11.567 Ry
VLOCAL1: 99.9% of the norm of Vloc inside     26.362 Ry
atom: Maximum radius for 4*pi*r*r*local-pseudopot. charge    2.25106
atom: Maximum radius for r*vlocal+2*Zval:    1.91306
GHOST: No ghost state for L =  0
GHOST: No ghost state for L =  1
GHOST: No ghost state for L =  2

KBgen: Kleinman-Bylander projectors: 
   l= 0   rc=  2.036604   el= -0.477180   Ekb= -6.081590   kbcos= -0.277285
   l= 1   rc=  2.195416   el=  0.001076   Ekb= -0.926943   kbcos= -0.034643
   l= 2   rc=  2.251056   el=  0.002010   Ekb= -0.130941   kbcos= -0.009788

KBgen: Total number of Kleinman-Bylander projectors:    9
atom: -------------------------------------------------------------------------

atom: SANKEY-TYPE ORBITALS:
atom: Selected multiple-zeta basis: split     

SPLIT: Orbitals with angular momentum L= 0

SPLIT: Basis orbitals for state 1s

SPLIT: PAO cut-off radius determined from an
SPLIT: energy shift=  0.002000 Ry

   izeta = 1
                 lambda =    1.000000
                     rc =    6.518340
                 energy =   -0.475305
                kinetic =    0.912139
    potential(screened) =   -1.387444
       potential(ionic) =   -1.907295

   izeta = 2
                 rmatch =    2.141150
              splitnorm =    0.620000
                 energy =    0.566467
                kinetic =    3.772856
    potential(screened) =   -3.206389
       potential(ionic) =   -3.759093

POLgen: Perturbative polarization orbital with L=  1

POLgen: Polarization orbital for state 1s

   izeta = 1
                     rc =    6.518340
                 energy =    0.533861
                kinetic =    1.121086
    potential(screened) =   -0.587225
       potential(ionic) =   -1.053027
atom: Total number of Sankey-type orbitals:  5

atm_pop: Valence configuration (for local Pseudopot. screening):
 1s( 1.00)                                                            
Vna: chval, zval:    1.00000   1.00000

Vna:  Cut-off radius for the neutral-atom potential:   6.518340

atom: _________________________________________________________________________

<basis_specs>
===============================================================================
N                    Z=   7    Mass=  14.010        Charge= 0.17977+309
Lmxo=1 Lmxkb= 3    BasisType=split      Semic=F
L=0  Nsemic=0  Cnfigmx=2
          i=1  nzeta=2  polorb=0  (2s)
            splnorm:   0.28000    
               vcte:    0.0000    
               rinn:    0.0000    
               qcoe:    0.0000    
               qyuk:    0.0000    
               qwid:   0.10000E-01
                rcs:    0.0000      0.0000    
            lambdas:    1.0000      1.0000    
L=1  Nsemic=0  Cnfigmx=2
          i=1  nzeta=2  polorb=1  (2p)
            splnorm:   0.28000    
               vcte:    0.0000    
               rinn:    0.0000    
               qcoe:    0.0000    
               qyuk:    0.0000    
               qwid:   0.10000E-01
                rcs:    0.0000      0.0000    
            lambdas:    1.0000      1.0000    
-------------------------------------------------------------------------------
L=0  Nkbl=1  erefs: 0.17977+309
L=1  Nkbl=1  erefs: 0.17977+309
L=2  Nkbl=1  erefs: 0.17977+309
L=3  Nkbl=1  erefs: 0.17977+309
===============================================================================
</basis_specs>

atom: Called for N                     (Z =   7)

read_vps: Pseudopotential generation method:
read_vps: ATM4.2.7  Troullier-Martins                       
Valence charge for ps generation:    5.00000

xc_check: Exchange-correlation functional:
xc_check: GGA Perdew, Burke & Ernzerhof 1996
V l=0 = -2*Zval/r beyond r=  1.2889
V l=1 = -2*Zval/r beyond r=  1.2889
V l=2 = -2*Zval/r beyond r=  3.4178
V l=3 = -2*Zval/r beyond r=  2.4084
All V_l potentials equal beyond r=  3.3753
This should be close to max(r_c) in ps generation
All pots = -2*Zval/r beyond r=  3.4178

VLOCAL1: 99.0% of the norm of Vloc inside      3.810 Ry
VLOCAL1: 99.9% of the norm of Vloc inside      8.683 Ry
atom: Maximum radius for 4*pi*r*r*local-pseudopot. charge    4.02088
atom: Maximum radius for r*vlocal+2*Zval:    3.54838
GHOST: No ghost state for L =  0
GHOST: No ghost state for L =  1
GHOST: No ghost state for L =  2
GHOST: No ghost state for L =  3

KBgen: Kleinman-Bylander projectors: 
   l= 0   rc=  3.417763   el= -1.365098   Ekb= -4.433130   kbcos= -0.707855
   l= 1   rc=  3.375302   el= -0.521201   Ekb=-13.264039   kbcos= -0.535594
   l= 2   rc=  3.872880   el=  0.001991   Ekb= -0.641094   kbcos= -0.062456
   l= 3   rc=  3.970931   el=  0.003093   Ekb= -0.474517   kbcos= -0.018236

KBgen: Total number of Kleinman-Bylander projectors:   16
atom: -------------------------------------------------------------------------

atom: SANKEY-TYPE ORBITALS:
atom: Selected multiple-zeta basis: split     

SPLIT: Orbitals with angular momentum L= 0

SPLIT: Basis orbitals for state 2s

SPLIT: PAO cut-off radius determined from an
SPLIT: energy shift=  0.002000 Ry

   izeta = 1
                 lambda =    1.000000
                     rc =    4.730425
                 energy =   -1.363399
                kinetic =    1.245246
    potential(screened) =   -2.608645
       potential(ionic) =   -8.121105

   izeta = 2
                 rmatch =    2.531849
              splitnorm =    0.280000
                 energy =   -0.959908
                kinetic =    2.409435
    potential(screened) =   -3.369343
       potential(ionic) =   -9.427975

SPLIT: Orbitals with angular momentum L= 1

SPLIT: Basis orbitals for state 2p

SPLIT: PAO cut-off radius determined from an
SPLIT: energy shift=  0.002000 Ry

   izeta = 1
                 lambda =    1.000000
                     rc =    5.924108
                 energy =   -0.519262
                kinetic =    3.672940
    potential(screened) =   -4.192202
       potential(ionic) =   -9.518354

   izeta = 2
                 rmatch =    2.531849
              splitnorm =    0.280000
                 energy =   -0.104258
                kinetic =    6.807538
    potential(screened) =   -6.911796
       potential(ionic) =  -13.149920

POLgen: Perturbative polarization orbital with L=  2

POLgen: Polarization orbital for state 2p

   izeta = 1
                     rc =    5.924108
                 energy =    1.427508
                kinetic =    2.872379
    potential(screened) =   -1.444871
       potential(ionic) =   -5.563644
atom: Total number of Sankey-type orbitals: 13

atm_pop: Valence configuration (for local Pseudopot. screening):
 2s( 2.00)                                                            
 2p( 3.00)                                                            
Vna: chval, zval:    5.00000   5.00000

Vna:  Cut-off radius for the neutral-atom potential:   5.924108

atom: _________________________________________________________________________

<basis_specs>
===============================================================================
Si                   Z=  14    Mass=  28.090        Charge= 0.17977+309
Lmxo=1 Lmxkb= 3    BasisType=split      Semic=F
L=0  Nsemic=0  Cnfigmx=3
          i=1  nzeta=2  polorb=0  (3s)
            splnorm:   0.28000    
               vcte:    0.0000    
               rinn:    0.0000    
               qcoe:    0.0000    
               qyuk:    0.0000    
               qwid:   0.10000E-01
                rcs:    0.0000      0.0000    
            lambdas:    1.0000      1.0000    
L=1  Nsemic=0  Cnfigmx=3
          i=1  nzeta=2  polorb=1  (3p)
            splnorm:   0.28000    
               vcte:    0.0000    
               rinn:    0.0000    
               qcoe:    0.0000    
               qyuk:    0.0000    
               qwid:   0.10000E-01
                rcs:    0.0000      0.0000    
            lambdas:    1.0000      1.0000    
-------------------------------------------------------------------------------
L=0  Nkbl=1  erefs: 0.17977+309
L=1  Nkbl=1  erefs: 0.17977+309
L=2  Nkbl=1  erefs: 0.17977+309
L=3  Nkbl=1  erefs: 0.17977+309
===============================================================================
</basis_specs>

atom: Called for Si                    (Z =  14)

read_vps: Pseudopotential generation method:
read_vps: ATM4.2.7  Troullier-Martins                       
Valence charge for ps generation:    4.00000

xc_check: Exchange-correlation functional:
xc_check: GGA Perdew, Burke & Ernzerhof 1996
V l=0 = -2*Zval/r beyond r=  2.7826
V l=1 = -2*Zval/r beyond r=  2.7826
V l=2 = -2*Zval/r beyond r=  2.9253
V l=3 = -2*Zval/r beyond r=  2.7826
All V_l potentials equal beyond r=  2.8530
This should be close to max(r_c) in ps generation
All pots = -2*Zval/r beyond r=  2.9253

VLOCAL1: 99.0% of the norm of Vloc inside      5.333 Ry
VLOCAL1: 99.9% of the norm of Vloc inside     12.154 Ry
atom: Maximum radius for 4*pi*r*r*local-pseudopot. charge    3.39869
atom: Maximum radius for r*vlocal+2*Zval:    2.96205
GHOST: No ghost state for L =  0
GHOST: No ghost state for L =  1
GHOST: No ghost state for L =  2
GHOST: No ghost state for L =  3

KBgen: Kleinman-Bylander projectors: 
   l= 0   rc=  3.075247   el= -0.794092   Ekb=  5.879390   kbcos=  0.167461
   l= 1   rc=  3.153101   el= -0.300068   Ekb=  2.642817   kbcos=  0.058301
   l= 2   rc=  3.273594   el=  0.001958   Ekb= -1.185135   kbcos= -0.104411
   l= 3   rc=  3.232927   el=  0.003046   Ekb= -0.497174   kbcos= -0.015889

KBgen: Total number of Kleinman-Bylander projectors:   16
atom: -------------------------------------------------------------------------

atom: SANKEY-TYPE ORBITALS:
atom: Selected multiple-zeta basis: split     

SPLIT: Orbitals with angular momentum L= 0

SPLIT: Basis orbitals for state 3s

SPLIT: PAO cut-off radius determined from an
SPLIT: energy shift=  0.002000 Ry

   izeta = 1
                 lambda =    1.000000
                     rc =    6.429618
                 energy =   -0.792283
                kinetic =    0.525293
    potential(screened) =   -1.317576
       potential(ionic) =   -3.744923

   izeta = 2
                 rmatch =    3.998416
              splitnorm =    0.280000
                 energy =   -0.583081
                kinetic =    1.069570
    potential(screened) =   -1.652651
       potential(ionic) =   -4.235185

SPLIT: Orbitals with angular momentum L= 1

SPLIT: Basis orbitals for state 3p

SPLIT: PAO cut-off radius determined from an
SPLIT: energy shift=  0.002000 Ry

   izeta = 1
                 lambda =    1.000000
                     rc =    8.464845
                 energy =   -0.298236
                kinetic =    0.785360
    potential(screened) =   -1.083596
       potential(ionic) =   -3.273779

   izeta = 2
                 rmatch =    4.587816
              splitnorm =    0.280000
                 energy =   -0.131871
                kinetic =    1.403687
    potential(screened) =   -1.535557
       potential(ionic) =   -4.015310

POLgen: Perturbative polarization orbital with L=  2

POLgen: Polarization orbital for state 3p

   izeta = 1
                     rc =    8.464845
                 energy =    0.321949
                kinetic =    1.055677
    potential(screened) =   -0.733728
       potential(ionic) =   -2.672950
atom: Total number of Sankey-type orbitals: 13

atm_pop: Valence configuration (for local Pseudopot. screening):
 3s( 2.00)                                                            
 3p( 2.00)                                                            
Vna: chval, zval:    4.00000   4.00000

Vna:  Cut-off radius for the neutral-atom potential:   8.464845

atom: _________________________________________________________________________

<basis_specs>
===============================================================================
O                    Z=   8    Mass=  16.000        Charge= 0.17977+309
Lmxo=1 Lmxkb= 3    BasisType=split      Semic=F
L=0  Nsemic=0  Cnfigmx=2
          i=1  nzeta=2  polorb=0  (2s)
            splnorm:   0.28000    
               vcte:    0.0000    
               rinn:    0.0000    
               qcoe:    0.0000    
               qyuk:    0.0000    
               qwid:   0.10000E-01
                rcs:    0.0000      0.0000    
            lambdas:    1.0000      1.0000    
L=1  Nsemic=0  Cnfigmx=2
          i=1  nzeta=2  polorb=1  (2p)
            splnorm:   0.28000    
               vcte:    0.0000    
               rinn:    0.0000    
               qcoe:    0.0000    
               qyuk:    0.0000    
               qwid:   0.10000E-01
                rcs:    0.0000      0.0000    
            lambdas:    1.0000      1.0000    
-------------------------------------------------------------------------------
L=0  Nkbl=1  erefs: 0.17977+309
L=1  Nkbl=1  erefs: 0.17977+309
L=2  Nkbl=1  erefs: 0.17977+309
L=3  Nkbl=1  erefs: 0.17977+309
===============================================================================
</basis_specs>

atom: Called for O                     (Z =   8)

read_vps: Pseudopotential generation method:
read_vps: ATM4.2.7  Troullier-Martins                       
Valence charge for ps generation:    6.00000

xc_check: Exchange-correlation functional:
xc_check: GGA Perdew, Burke & Ernzerhof 1996
V l=0 = -2*Zval/r beyond r=  1.1000
V l=1 = -2*Zval/r beyond r=  1.1000
V l=2 = -2*Zval/r beyond r=  2.2154
V l=3 = -2*Zval/r beyond r=  1.1000
All V_l potentials equal beyond r=  2.2154
This should be close to max(r_c) in ps generation
All pots = -2*Zval/r beyond r=  2.2154

VLOCAL1: 99.0% of the norm of Vloc inside      8.845 Ry
VLOCAL1: 99.9% of the norm of Vloc inside     20.157 Ry
atom: Maximum radius for 4*pi*r*r*local-pseudopot. charge    2.67231
atom: Maximum radius for r*vlocal+2*Zval:    2.32897
GHOST: No ghost state for L =  0
GHOST: No ghost state for L =  1
GHOST: No ghost state for L =  2
GHOST: No ghost state for L =  3

KBgen: Kleinman-Bylander projectors: 
   l= 0   rc=  2.243238   el= -1.759686   Ekb=**********   kbcos= -0.171774
   l= 1   rc=  2.328968   el= -0.663873   Ekb=-14.506792   kbcos= -0.519897
   l= 2   rc=  2.573941   el=  0.002031   Ekb= -1.137373   kbcos= -0.019581
   l= 3   rc=  2.606321   el=  0.003153   Ekb= -1.013546   kbcos= -0.003122

KBgen: Total number of Kleinman-Bylander projectors:   16
atom: -------------------------------------------------------------------------

atom: SANKEY-TYPE ORBITALS:
atom: Selected multiple-zeta basis: split     

SPLIT: Orbitals with angular momentum L= 0

SPLIT: Basis orbitals for state 2s

SPLIT: PAO cut-off radius determined from an
SPLIT: energy shift=  0.002000 Ry

   izeta = 1
                 lambda =    1.000000
                     rc =    4.243912
                 energy =   -1.758270
                kinetic =    3.286084
    potential(screened) =   -5.044353
       potential(ionic) =  -12.921184

   izeta = 2
                 rmatch =    2.187845
              splitnorm =    0.280000
                 energy =   -0.885018
                kinetic =    8.134434
    potential(screened) =   -9.019452
       potential(ionic) =  -17.710645

SPLIT: Orbitals with angular momentum L= 1

SPLIT: Basis orbitals for state 2p

SPLIT: PAO cut-off radius determined from an
SPLIT: energy shift=  0.002000 Ry

   izeta = 1
                 lambda =    1.000000
                     rc =    5.314825
                 energy =   -0.661986
                kinetic =    4.917472
    potential(screened) =   -5.579458
       potential(ionic) =  -13.236259

   izeta = 2
                 rmatch =    2.160663
              splitnorm =    0.280000
                 energy =   -0.068760
                kinetic =    9.183374
    potential(screened) =   -9.252135
       potential(ionic) =  -18.274251

POLgen: Perturbative polarization orbital with L=  2

POLgen: Polarization orbital for state 2p

   izeta = 1
                     rc =    5.314825
                 energy =    1.970580
                kinetic =    3.886128
    potential(screened) =   -1.915547
       potential(ionic) =   -7.749584
atom: Total number of Sankey-type orbitals: 13

atm_pop: Valence configuration (for local Pseudopot. screening):
 2s( 2.00)                                                            
 2p( 4.00)                                                            
Vna: chval, zval:    6.00000   6.00000

Vna:  Cut-off radius for the neutral-atom potential:   5.314825

atom: _________________________________________________________________________

prinput: Basis input ----------------------------------------------------------

PAO.BasisType split     

%block ChemicalSpeciesLabel
    1    1 H                       # Species index, atomic number, species label
    2    7 N                       # Species index, atomic number, species label
    3   14 Si                      # Species index, atomic number, species label
    4    8 O                       # Species index, atomic number, species label
%endblock ChemicalSpeciesLabel

%block PAO.Basis                 # Define Basis set
H                     1                    # Species label, number of l-shells
 n=1   0   2 P   1                   # n, l, Nzeta, Polarization, NzetaPol
   6.518      2.141   
   1.000      1.000   
N                     2                    # Species label, number of l-shells
 n=2   0   2                         # n, l, Nzeta 
   4.730      2.532   
   1.000      1.000   
 n=2   1   2 P   1                   # n, l, Nzeta, Polarization, NzetaPol
   5.924      2.532   
   1.000      1.000   
Si                    2                    # Species label, number of l-shells
 n=3   0   2                         # n, l, Nzeta 
   6.430      3.998   
   1.000      1.000   
 n=3   1   2 P   1                   # n, l, Nzeta, Polarization, NzetaPol
   8.465      4.588   
   1.000      1.000   
O                     2                    # Species label, number of l-shells
 n=2   0   2                         # n, l, Nzeta 
   4.244      2.188   
   1.000      1.000   
 n=2   1   2 P   1                   # n, l, Nzeta, Polarization, NzetaPol
   5.315      2.161   
   1.000      1.000   
%endblock PAO.Basis

prinput: ----------------------------------------------------------------------

Dumping basis to NetCDF file H.ion.nc
Dumping basis to NetCDF file N.ion.nc
Dumping basis to NetCDF file Si.ion.nc
Dumping basis to NetCDF file O.ion.nc
coor:   Atomic-coordinates input format  =     Cartesian coordinates
coor:                                          (in Angstroms)

siesta: Atomic coordinates (Bohr) and species
siesta:      2.76392   5.59397  -0.00000  1        1
siesta:      1.42885   4.10102  -0.00000  2        2
siesta:     -1.84092   4.93508   0.00000  3        3
siesta:     -2.13530   7.75076   0.00000  1        4
siesta:     -4.71958   1.98917  -0.00000  3        5
siesta:     -7.52240   2.44805  -0.00000  1        6
siesta:     -2.45495  -1.62640  -0.00000  3        7
siesta:     -3.90253  -4.52282  -0.00000  2        8
siesta:     -2.78712  -6.33169   0.00000  1        9
siesta:     -5.88981  -4.67487  -0.00000  1       10
siesta:      0.78820  -1.52214   0.00000  2       11
siesta:      2.81970   0.99184  -0.00000  3       12
siesta:      5.85965   0.95629  -0.00000  4       13
siesta:     10.61355 -14.07759   0.00000  1       14
siesta:      8.65886 -13.66658   0.00000  2       15
siesta:      6.22979 -16.04876   0.00000  3       16
siesta:      7.18318 -18.71532  -0.00000  1       17
siesta:      3.13570 -15.14356   0.00000  2       18
siesta:      3.17659 -11.72506  -0.00000  3       19
siesta:      1.03072  -8.10005   0.00000  3       20
siesta:     -1.95457  -7.45403   0.00000  4       21
siesta:      3.27352  -5.43711   0.00000  2       22
siesta:      2.28576  -3.64645  -0.00000  1       23
siesta:      6.63017  -5.24735   0.00000  3       24
siesta:      7.81751  -2.22872   0.00000  2       25
siesta:      6.69523  -0.49602   0.00000  1       26
siesta:      9.79567  -1.98858  -0.00000  1       27
siesta:      8.75489  -7.70105  -0.00000  2       28
siesta:      7.16982 -10.55666   0.00000  3       29

siesta: System type = molecule  

initatomlists: Number of atoms, orbitals, and projectors:     29   297   394

siesta: ******************** Simulation parameters ****************************
siesta:
siesta: The following are some of the parameters of the simulation.
siesta: A complete list of the parameters used, including default values,
siesta: can be found in file out.fdf
siesta:
redata: Spin configuration                          = spin-orbit
redata: Number of spin components                   = 8
redata: Time-Reversal Symmetry                      = F
redata: Spin spiral                                 = F
############################################################
This spin-orbit implementation uses a local approximation.
From 4.2 and onwards the full non-local approximation is implemented
You are strongly advised to use >=4.2 versions!
############################################################
redata: Long output                                 =   F
redata: Number of Atomic Species                    =        4
redata: Charge density info will appear in .RHO file
redata: Write Mulliken Pop.                         = NO
redata: Matel table size (NRTAB)                    =     1024
redata: Mesh Cutoff                                 =   340.0000 Ry
redata: Net charge of the system                    =     0.0000 |e|
redata: Min. number of SCF Iter                     =        1
redata: Max. number of SCF Iter                     =      200
redata: SCF mix quantity                            = Hamiltonian
redata: Mix DM or H after convergence               =   F
redata: Recompute H after scf cycle                 =   F
redata: Mix DM in first SCF step                    =   T
redata: Write Pulay info on disk                    =   F
redata: New DM Occupancy tolerance                  = 0.000000000001
redata: No kicks to SCF
redata: DM Mixing Weight for Kicks                  =     0.5000
redata: Require Harris convergence for SCF          =   F
redata: Harris energy tolerance for SCF             =     0.000100 eV
redata: Require DM convergence for SCF              =   T
redata: DM tolerance for SCF                        =     0.000008
redata: Require EDM convergence for SCF             =   F
redata: EDM tolerance for SCF                       =     0.001000 eV
redata: Require H convergence for SCF               =   T
redata: Hamiltonian tolerance for SCF               =     0.000001 eV
redata: Require (free) Energy convergence for SCF   =   F
redata: (free) Energy tolerance for SCF             =     0.000100 eV
redata: Using Saved Data (generic)                  =   F
redata: Use continuation files for DM               =   T
redata: Neglect nonoverlap interactions             =   F
redata: Method of Calculation                       = Diagonalization
redata: Electronic Temperature                      =   299.9978 K
redata: Fix the spin of the system                  =   F
redata: Dynamics option                             = Verlet MD run
redata: Initial MD time step                        =        1
redata:   Final MD time step                        =        1
redata: Length of MD time step                      =     0.5000 fs
redata: Initial Temperature of MD run               =     0.0000 K
redata: Perform a MD quench                         =   F
mix.SCF: Pulay mixing                            = Pulay
mix.SCF:    Variant                              = stable
mix.SCF:    History steps                        = 6
mix.SCF:    Linear mixing weight                 =     0.250000
mix.SCF:    Mixing weight                        =     0.250000
mix.SCF:    SVD condition                        = 0.1000E-07
mix.SCF:    Restart steps                        = 24
mix.SCF:    Restart save steps                   = 3
mix.SCF: Spin-component mixing                   all
redata: Save all siesta data in one NC              =   F
redata: ***********************************************************************

%block SCF.Mixers
  Pulay
%endblock SCF.Mixers

%block SCF.Mixer.Pulay
  # Mixing method
  method pulay
  variant stable

  # Mixing options
  weight 0.2500
  weight.linear 0.2500
  history 6
  restart 24
  restart.save 3
%endblock SCF.Mixer.Pulay

Size of DM history Fstack: 3
Total number of electrons:    98.000000
Total ionic charge:    98.000000

* ProcessorY, Blocksize:    2  24


* Orbital distribution balance (max,min):    48    24


Time-reversal symmetry not used.

siesta: k-grid: Number of k-points =     1
siesta: k-grid: Cutoff (effective) =     5.000 Ang
siesta: k-grid: Supercell and displacements
siesta: k-grid:    1   0   0      0.000
siesta: k-grid:    0   1   0      0.000
siesta: k-grid:    0   0   1      0.000

diag: Algorithm                                     = ELPA-1stage
diag: Parallel over k                               =   F
diag: Use parallel 2D distribution                  =   T
diag: Parallel block-size                           = 24
diag: Parallel distribution                         =     2 x     4
diag: Used triangular part                          = Lower
diag: Absolute tolerance                            =  0.100E-15
diag: Orthogonalization factor                      =  0.100E-05
diag: Memory factor                                 =  1.0000


ts: **************************************************************
ts: Save H and S matrices                           =    F
ts: Save DM and EDM matrices                        =    F
ts: Only save the overlap matrix S                  =    F
ts: **************************************************************

************************ Begin: TS CHECKS AND WARNINGS ************************
************************ End: TS CHECKS AND WARNINGS **************************


                     ====================================
                        Begin MD step =      1
                     ====================================

outcoor: Atomic coordinates (Ang):                          
    1.46260147    2.96020164    0.00000000   1       1  H
    0.75611474    2.17016546    0.00000000   2       2  N
   -0.97417217    2.61152937    0.00000000   3       3  Si
   -1.12995185    4.10152163    0.00000000   1       4  H
   -2.49749379    1.05262185    0.00000000   3       5  Si
   -3.98068142    1.29545221    0.00000000   1       6  H
   -1.29910293   -0.86065431    0.00000000   3       7  Si
   -2.06512839   -2.39337105    0.00000000   2       8  N
   -1.47488184   -3.35058408    0.00000000   1       9  H
   -3.11675071   -2.47383128    0.00000000   1      10  H
    0.41709713   -0.80548000    0.00000000   2      11  N
    1.49211975    0.52485884    0.00000000   3      12  Si
    3.10079307    0.50604858    0.00000000   4      13  O
    5.61644830   -7.44953905    0.00000000   1      14  H
    4.58206954   -7.23203760    0.00000000   2      15  N
    3.29666389   -8.49263600    0.00000000   3      16  Si
    3.80117524   -9.90371886    0.00000000   1      17  H
    1.65934232   -8.01362137    0.00000000   2      18  N
    1.68097912   -6.20463398    0.00000000   3      19  Si
    0.54543521   -4.28636135    0.00000000   3      20  Si
   -1.03431493   -3.94450034    0.00000000   4      21  O
    1.73226934   -2.87719605    0.00000000   2      22  N
    1.20957366   -1.92961761    0.00000000   1      23  H
    3.50853448   -2.77677601    0.00000000   3      24  Si
    4.13684451   -1.17938608    0.00000000   2      25  N
    3.54296161   -0.26248101    0.00000000   1      26  H
    5.18364407   -1.05231197    0.00000000   1      27  H
    4.63288658   -4.07521596    0.00000000   2      28  N
    3.79410501   -5.58634043    0.00000000   3      29  Si

outcell: Unit cell vectors (Ang):
       30.000000    0.000000    0.000000
        0.000000   45.000000    0.000000
        0.000000    0.000000   10.000000

outcell: Cell vector modules (Ang)   :   30.000000   45.000000   10.000000
outcell: Cell angles (23,13,12) (deg):     90.0000     90.0000     90.0000
outcell: Cell volume (Ang**3)        :  13500.0000
<dSpData1D:S at geom step 1
  <sparsity:sparsity for geom step 1
    nrows_g=297 nrows=48 sparsity=.1443 nnzs=12726, refcount: 8>
  <dData1D:(new from dSpData1D) n=12726, refcount: 1>
refcount: 1>
new_DM -- step:     1
Initializing Density Matrix...

Attempting to read DM from file... Failed...
DM filled with atomic data:
<dSpData2D:DM initialized from atoms
  <sparsity:sparsity for geom step 1
    nrows_g=297 nrows=48 sparsity=.1443 nnzs=12726, refcount: 9>
  <dData2D:DM n=12726 m=8, refcount: 1>
refcount: 1>
     spin moment: S , {S} =   56.00000   0.00000   0.00000  56.00000
No. of atoms with KB's overlaping orbs in proc 0. Max # of overlaps:      27     231

Initializing spin-orbit part of the Hamiltonian
  Adding spin-orbit effects for H 
  Adding spin-orbit effects for N 
  Adding spin-orbit effects for Si
  Adding spin-orbit effects for O 


New grid distribution:   1
           1       1:  180    1:  125    1:   15
           2       1:  180    1:  125   16:   30
           3       1:  180    1:  125   31:   45
           4       1:  180    1:  125   46:   60
           5       1:  180  126:  250    1:   15
           6       1:  180  126:  250   16:   30
           7       1:  180  126:  250   31:   45
           8       1:  180  126:  250   46:   60

InitMesh: MESH =   360 x   500 x   120 =    21600000
InitMesh: (bp) =   180 x   250 x    60 =     2700000
InitMesh: Mesh cutoff (required, used) =   340.000   341.206 Ry
ExtMesh (bp) on 0 =   288 x   225 x   123 =     7970400
New grid distribution:   2
           1      23:  180   26:  223    1:   60
           2      23:  180    1:   25    1:   60
           3       1:   22  199:  223    1:   60
           4       1:   22  238:  250    1:   60
           5       1:   22    1:  198    1:   60
           6      23:  180  224:  237    1:   60
           7      23:  180  238:  250    1:   60
           8       1:   22  224:  237    1:   60
New grid distribution:   3
           1      35:  180   19:  206    1:   60
           2      35:  180    1:   18    1:   60
           3       1:   34    1:   32    1:   60
           4       1:   35  229:  250    1:   60
           5       1:   34   33:  206    1:   60
           6      36:  180  207:  232    1:   60
           7      36:  180  233:  250    1:   60
           8       1:   35  207:  228    1:   60
Setting up quadratic distribution...
ExtMesh (bp) on 0 =   266 x   298 x   168 =    13317024
PhiOnMesh: Number of (b)points on node 0 =              1877040
PhiOnMesh: nlist on node 0 =              1703443

stepf: Fermi-Dirac step function

siesta: Program's energy decomposition (eV):
siesta: Ebs     =      -542.621763
siesta: Eions   =      3585.165840
siesta: Ena     =       405.861078
siesta: Ekin    =      3454.528565
siesta: Enl     =     -3386.558178
siesta: Eso     =        -0.003479
siesta: Edftu   =         0.000000
siesta: DEna    =       158.641918
siesta: DUscf   =        88.912079
siesta: DUext   =         0.000000
siesta: Exc     =     -1222.341210
siesta: eta*DQ  =         0.000000
siesta: Emadel  =         0.000000
siesta: Emeta   =         0.000000
siesta: Emolmec =         0.000000
siesta: Ekinion =         0.000000
siesta: Eharris =     -3976.644791
siesta: Etot    =     -4086.125069
siesta: FreeEng =     -4086.126517

        iscf     Eharris(eV)        E_KS(eV)     FreeEng(eV)     dDmax    Ef(eV) dHmax(eV)
   scf:    1    -3976.644791    -4086.125069    -4086.126517  0.959874 -4.924346 24.003829
     spin moment: S , {S} =    2.00809   0.00000  -0.00000   2.00809
timer: Routine,Calls,Time,% = IterSCF        1      19.917  29.47
   scf:    2    -4139.749628    -4126.556360    -4126.562224  0.484075 -4.028629 10.727474
     spin moment: S , {S} =    2.04026  -0.00000   0.00000   2.04026
   scf:    3    -4055.022444    -4108.934764    -4108.937542  0.603225 -3.938599 17.355318
     spin moment: S , {S} =    3.98437  -0.00000  -0.00000   3.98437
   scf:    4    -4138.418004    -4133.319099    -4133.319177  0.590485 -3.752074  6.182728
     spin moment: S , {S} =    0.00043  -0.00000  -0.00000   0.00043
   scf:    5    -4135.375708    -4134.660046    -4134.660047  0.072863 -3.505809  5.150873
     spin moment: S , {S} =    0.00009  -0.00000   0.00000   0.00009
   scf:    6    -4135.527007    -4135.150878    -4135.150878  0.046086 -3.383546  3.364772
     spin moment: S , {S} =    0.00004  -0.00000  -0.00000   0.00004
   scf:    7    -4135.699638    -4135.433652    -4135.433652  0.026425 -3.468949  1.710204
     spin moment: S , {S} =    0.00002   0.00000   0.00000   0.00002
   scf:    8    -4135.691510    -4135.563072    -4135.563072  0.020614 -3.587719  0.598822
     spin moment: S , {S} =    0.00000   0.00000  -0.00000   0.00000
   scf:    9    -4135.601056    -4135.581801    -4135.581801  0.006165 -3.578604  0.525499
     spin moment: S , {S} =    0.00000   0.00000   0.00000   0.00000
   scf:   10    -4135.641706    -4135.609533    -4135.609533  0.016605 -3.623533  0.178488
     spin moment: S , {S} =    0.00000   0.00000   0.00000  -0.00000
   scf:   11    -4135.613953    -4135.611733    -4135.611733  0.005156 -3.612655  0.078492
     spin moment: S , {S} =    0.00000   0.00000  -0.00000  -0.00000
   scf:   12    -4135.613138    -4135.612436    -4135.612436  0.002736 -3.605163  0.043609
     spin moment: S , {S} =    0.00000   0.00000  -0.00000   0.00000
   scf:   13    -4135.613385    -4135.612888    -4135.612888  0.002196 -3.604815  0.030804
     spin moment: S , {S} =    0.00000   0.00000  -0.00000   0.00000
   scf:   14    -4135.613470    -4135.613162    -4135.613162  0.001898 -3.601932  0.026252
     spin moment: S , {S} =    0.00000   0.00000  -0.00000   0.00000
   scf:   15    -4135.613750    -4135.613424    -4135.613424  0.002440 -3.602587  0.016784
     spin moment: S , {S} =    0.00000   0.00000  -0.00000   0.00000
   scf:   16    -4135.613861    -4135.613594    -4135.613594  0.003156 -3.603732  0.007879
     spin moment: S , {S} =    0.00000   0.00000  -0.00000   0.00000
   scf:   17    -4135.613633    -4135.613611    -4135.613611  0.000763 -3.604234  0.005233
     spin moment: S , {S} =    0.00000   0.00000  -0.00000   0.00000
   scf:   18    -4135.613630    -4135.613619    -4135.613619  0.000624 -3.604260  0.002965
     spin moment: S , {S} =    0.00000   0.00000  -0.00000   0.00000
   scf:   19    -4135.613627    -4135.613622    -4135.613622  0.000374 -3.602672  0.001508
     spin moment: S , {S} =    0.00000   0.00000  -0.00000  -0.00000
   scf:   20    -4135.613624    -4135.613623    -4135.613623  0.000150 -3.602746  0.000734
     spin moment: S , {S} =    0.00000   0.00000  -0.00000  -0.00000
   scf:   21    -4135.613624    -4135.613623    -4135.613623  0.000085 -3.602722  0.000618
     spin moment: S , {S} =    0.00000   0.00000  -0.00000  -0.00000
   scf:   22    -4135.613624    -4135.613623    -4135.613623  0.000084 -3.602661  0.000305
     spin moment: S , {S} =    0.00000   0.00000  -0.00000  -0.00000
   scf:   23    -4135.613624    -4135.613623    -4135.613623  0.000038 -3.602613  0.000149
     spin moment: S , {S} =    0.00000   0.00000  -0.00000  -0.00000
   scf:   24    -4135.613623    -4135.613623    -4135.613623  0.000010 -3.602628  0.000153
     spin moment: S , {S} =    0.00000   0.00000  -0.00000  -0.00000
mix: Pulay -- resetting history
   scf:   25    -4135.613623    -4135.613623    -4135.613623  0.000005 -3.602628  0.000129
     spin moment: S , {S} =    0.00000   0.00000  -0.00000  -0.00000
   scf:   26    -4135.613623    -4135.613623    -4135.613623  0.000012 -3.602633  0.000071
     spin moment: S , {S} =    0.00000  -0.00000  -0.00000  -0.00000
   scf:   27    -4135.613623    -4135.613623    -4135.613623  0.000008 -3.602627  0.000034
     spin moment: S , {S} =    0.00000   0.00000  -0.00000  -0.00000
   scf:   28    -4135.613623    -4135.613623    -4135.613623  0.000008 -3.602625  0.000010
     spin moment: S , {S} =    0.00000   0.00000  -0.00000   0.00000
   scf:   29    -4135.613623    -4135.613623    -4135.613623  0.000002 -3.602625  0.000004
     spin moment: S , {S} =    0.00000   0.00000  -0.00000   0.00000
   scf:   30    -4135.613623    -4135.613623    -4135.613623  0.000000 -3.602625  0.000003
     spin moment: S , {S} =    0.00000   0.00000  -0.00000   0.00000
   scf:   31    -4135.613623    -4135.613623    -4135.613623  0.000000 -3.602625  0.000002
     spin moment: S , {S} =    0.00000   0.00000  -0.00000   0.00000
   scf:   32    -4135.613623    -4135.613623    -4135.613623  0.000000 -3.602625  0.000001
     spin moment: S , {S} =    0.00000   0.00000  -0.00000   0.00000

SCF Convergence by DM+H criterion
max |DM_out - DM_in|         :     0.0000001353
max |H_out - H_in|      (eV) :     0.0000009373
SCF cycle converged after 32 iterations

Using DM_out to compute the final energy and forces
No. of atoms with KB's overlaping orbs in proc 0. Max # of overlaps:      27     231

siesta: E_KS(eV) =            -4135.6136

siesta: E_KS - E_eggbox =     -4135.6136
     spin moment: S , {S} =    0.00000   0.00000  -0.00000   0.00000

siesta: Atomic forces (eV/Ang):
     1    0.032114    0.026735    0.000000
     2    0.658413   -0.383533   -0.000000
     3   -0.664538    0.139169   -0.000000
     4    0.132279    0.217341    0.000000
     5    0.388976    0.243824    0.000000
     6    0.034993   -0.022178   -0.000000
     7   -2.183857   -0.505097   -0.000000
     8   -7.652573   13.426764   -0.000000
     9  -17.612063   23.542615   -0.000000
    10   -0.294895    0.611949    0.000000
    11   -0.252243    2.634395   -0.000000
    12   -1.854296    1.224033    0.000000
    13  -13.266351   19.887341   -0.000000
    14   -0.023280    0.032254   -0.000000
    15   -0.126679   -0.096951    0.000000
    16   -0.022450    0.028276   -0.000000
    17   -0.017153    0.026682    0.000000
    18   -0.037545   -0.042941   -0.000000
    19   -0.401972   -0.042527   -0.000000
    20    2.389485   -0.470463   -0.000000
    21   26.311219  -40.415628    0.000000
    22    1.035531   -3.294446    0.000000
    23   -0.376306    0.228730   -0.000000
    24    0.829180    0.618137    0.000000
    25    5.458084   -9.874460   -0.000000
    26    4.495652   -7.775093   -0.000000
    27    0.156649   -0.578889    0.000000
    28    0.065716   -1.062529   -0.000000
    29    0.430230    0.451492    0.000000
----------------------------------------
   Tot   -2.367682   -1.224999   -0.000000
----------------------------------------
   Max   40.415628
   Res    6.987993    sqrt( Sum f_i^2 / 3N )
----------------------------------------
   Max   40.415628    constrained

Stress tensor Voigt[x,y,z,yz,xz,xy] (kbar):       -3.45       -7.87       -0.03        0.00       -0.00        5.65
(Free)E + p*V (eV/cell)    -4103.7308
Target enthalpy (eV/cell)    -4135.6136

siesta: Stress tensor (static) (eV/Ang**3):
        -0.002154    0.003527   -0.000000
         0.003527   -0.004911   -0.000000
        -0.000000    0.000000   -0.000020

siesta: Pressure (static):          3.78388063  kBar

siesta: Stress tensor (total) (eV/Ang**3):
        -0.002154    0.003527   -0.000000
         0.003527   -0.004911   -0.000000
        -0.000000    0.000000   -0.000020

siesta: Pressure (total):          3.78388063  kBar

siesta: Temp_ion =       0.000 K

siesta: Eigenvalues (eV):
ik =     1
  -26.9506  -26.9506  -26.0172  -26.0172  -21.7124  -21.7124  -21.0527  -21.0527  -20.9721  -20.9721
  -20.0771  -20.0771  -19.5719  -19.5719  -19.2247  -19.2247  -19.1050  -19.1050  -18.8902  -18.8902
  -15.5847  -15.5847  -14.8048  -14.8048  -14.3090  -14.3090  -13.4752  -13.4752  -13.1352  -13.1352
  -12.9040  -12.9040  -12.7042  -12.7042  -12.3930  -12.3930  -12.0043  -12.0043  -11.9412  -11.9412
  -10.9744  -10.9744  -10.6817  -10.6817  -10.4894  -10.4894  -10.2005  -10.2005   -9.8662   -9.8662
   -9.7161   -9.7161   -9.3214   -9.3214   -9.2241   -9.2241   -8.8245   -8.8245   -8.7816   -8.7816
   -8.7423   -8.7423   -8.5736   -8.5736   -8.4407   -8.4407   -8.1853   -8.1853   -8.1323   -8.1323
   -7.8665   -7.8665   -7.6499   -7.6499   -7.3240   -7.3240   -7.2812   -7.2812   -6.5518   -6.5518
   -6.5185   -6.5185   -6.2223   -6.2223   -5.9112   -5.9112   -5.8886   -5.8886   -5.4589   -5.4589
   -5.2835   -5.2835   -5.2357   -5.2357   -5.1437   -5.1437   -4.1620   -4.1620   -3.0437   -3.0437
   -2.3433   -2.3433   -2.2735   -2.2735   -2.0963   -2.0963   -2.0497   -2.0497   -1.9396   -1.9396
   -1.7568   -1.7568   -1.4888   -1.4888   -1.3852   -1.3852   -1.1274   -1.1274   -0.8314   -0.8314
   -0.7597   -0.7597   -0.6115   -0.6115   -0.2099   -0.2099   -0.1686   -0.1686    0.5925    0.5925
    0.6194    0.6194    0.6453    0.6454    0.7577    0.7577    0.8704    0.8704    1.2910    1.2910
    1.5580    1.5580    1.5593    1.5593    1.6537    1.6537    1.7704    1.7704    2.2309    2.2309
    2.4631    2.4631    2.7084    2.7084    2.7252    2.7252    2.8242    2.8242    3.0416    3.0416
    3.1633    3.1633    3.4820    3.4820    3.5782    3.5782    3.7447    3.7447    3.7730    3.7730
    4.1876    4.1876    4.2718    4.2718    4.3962    4.3962    4.5087    4.5087    4.6074    4.6074
    4.7019    4.7019    4.9348    4.9348    5.0988    5.0988    5.3283    5.3283    5.5239    5.5239
    5.6577    5.6577    5.7907    5.7907    5.8573    5.8573    5.9022    5.9022    6.0672    6.0672
    6.2628    6.2628    6.5847    6.5847    6.6110    6.6110    6.8246    6.8246    6.9239    6.9239
    7.3006    7.3006    7.3314    7.3314    7.4752    7.4752    7.6127    7.6127    7.8245    7.8245
    7.8478    7.8478    7.9435    7.9435    8.0890    8.0890    8.2780    8.2780    8.4762    8.4762
    8.5900    8.5900    8.7935    8.7935    8.8697    8.8697    8.8936    8.8936    9.2195    9.2195
    9.3300    9.3300    9.3510    9.3510    9.8181    9.8181    9.8432    9.8432   10.2083   10.2083
   10.3729   10.3729   10.3943   10.3943   10.4939   10.4939   10.9135   10.9135   11.1454   11.1454
   11.3440   11.3440   11.4520   11.4520   11.4749   11.4749   11.6939   11.6939   12.0560   12.0560
   12.5375   12.5375   12.6113   12.6113   12.7581   12.7581   12.8819   12.8819   13.0112   13.0112
   13.1349   13.1349   13.5857   13.5857   13.7668   13.7668   14.0987   14.0987   14.2384   14.2384
   14.2874   14.2874   14.7418   14.7418   14.8455   14.8455   15.2768   15.2768   15.4107   15.4107
   15.6443   15.6443   15.6990   15.6990   16.5195   16.5195   16.8580   16.8580   16.9741   16.9741
   17.6125   17.6125   17.7222   17.7222   17.7241   17.7241   18.2474   18.2474   18.2556   18.2556
   18.7639   18.7639   19.1172   19.1172   19.5333   19.5333   19.9692   19.9692   20.5113   20.5113
   20.8222   20.8222   21.1018   21.1018   21.5574   21.5574   21.8067   21.8067   22.2456   22.2456
   22.6253   22.6253   23.1796   23.1796   23.8131   23.8131   24.2754   24.2754   24.5306   24.5306
   25.0589   25.0589   25.4083   25.4083   25.5611   25.5611   26.4629   26.4629   27.4563   27.4563
   27.6999   27.6999   28.0040   28.0040   28.9049   28.9049   29.2368   29.2368   29.8197   29.8197
   30.1448   30.1448   30.5365   30.5365   30.8048   30.8048   31.0329   31.0329   31.1838   31.1838
   31.3466   31.3466   31.6401   31.6401   32.1718   32.1718   32.2833   32.2833   33.1671   33.1671
   33.4787   33.4787   34.2474   34.2474   34.8987   34.8987   35.2549   35.2549   35.5993   35.5993
   36.0967   36.0967   36.6146   36.6146   36.9288   36.9288   37.0021   37.0021   37.2385   37.2385
   38.0382   38.0382   38.6661   38.6661   38.7418   38.7418   39.5067   39.5067   39.9192   39.9192
   40.1313   40.1313   40.5427   40.5427   40.9141   40.9141   41.0145   41.0145   41.2029   41.2029
   42.2736   42.2736   42.4693   42.4693   43.1750   43.1750   43.1900   43.1900   43.2474   43.2474
   43.7171   43.7171   43.8761   43.8761   44.1809   44.1809   44.4281   44.4281   44.9521   44.9521
   45.5439   45.5439   46.1022   46.1022   46.2467   46.2467   46.6647   46.6647   46.9010   46.9010
   47.0578   47.0578   47.3591   47.3591   47.4468   47.4468   48.0300   48.0300   48.3771   48.3771
   49.2082   49.2082   49.2439   49.2439   49.5329   49.5329   50.2157   50.2157   50.7157   50.7157
   51.5335   51.5335   51.6718   51.6719   52.8198   52.8198   54.0862   54.0862   54.3560   54.3560
   55.0318   55.0318   55.2326   55.2326   55.6372   55.6372   55.7750   55.7750   56.0957   56.0957
   56.8878   56.8878   57.2738   57.2738   57.7536   57.7536   59.4025   59.4025   59.7762   59.7762
   60.3452   60.3452   60.3818   60.3818   60.6610   60.6610   61.0372   61.0372   61.9155   61.9155
   62.0349   62.0349   63.6496   63.6496   65.0835   65.0835   65.5973   65.5973   66.0908   66.0908
   67.7944   67.7944   68.5835   68.5835   69.2872   69.2872   71.0115   71.0115   71.5745   71.5745
   74.3403   74.3403   74.6175   74.6175   75.7666   75.7666   79.4706   79.4706   82.4355   82.4355
   86.6831   86.6831   89.3464   89.3464   91.9776   91.9776   93.2006   93.2006   93.6727   93.6727
   95.0736   95.0736   98.5579   98.5579  101.5461  101.5461  103.0601  103.0601  103.3491  103.3491
  106.7110  106.7110  113.5633  113.5633  114.1076  114.1076  121.1488  121.1488  126.9590  126.9590
  128.6231  128.6231  132.3953  132.3953  140.5463  140.5463  145.0851  145.0851  149.6863  149.6863
  163.9796  163.9796  208.9896  208.9896
siesta: Fermi energy =      -3.602625 eV

siesta: Program's energy decomposition (eV):
siesta: Ebs     =     -1146.962283
siesta: Eions   =      3585.165840
siesta: Ena     =       405.861078
siesta: Ekin    =      2970.030731
siesta: Enl     =     -2853.438244
siesta: Eso     =        -0.004441
siesta: Edftu   =         0.000000
siesta: DEna    =        48.214527
siesta: DUscf   =        14.966054
siesta: DUext   =         0.000000
siesta: Exc     =     -1136.077489
siesta: eta*DQ  =         0.000000
siesta: Emadel  =         0.000000
siesta: Emeta   =         0.000000
siesta: Emolmec =         0.000000
siesta: Ekinion =         0.000000
siesta: Eharris =     -4135.613623
siesta: Etot    =     -4135.613623
siesta: FreeEng =     -4135.613623

siesta: Final energy (eV):
siesta:  Band Struct. =   -1146.962283
siesta:       Kinetic =    2970.030731
siesta:       Hartree =   17035.835866
siesta:       Edftu   =       0.000000
siesta:       Eso     =      -0.004441
siesta:    Ext. field =       0.000000
siesta:   Exch.-corr. =   -1136.077489
siesta:  Ion-electron =  -36713.231799
siesta:       Ion-ion =   13707.833508
siesta:       Ekinion =       0.000000
siesta:         Total =   -4135.613623
siesta:         Fermi =      -3.602625

siesta: Atomic forces (eV/Ang):
siesta:      1    0.032114    0.026735    0.000000
siesta:      2    0.658413   -0.383533   -0.000000
siesta:      3   -0.664538    0.139169   -0.000000
siesta:      4    0.132279    0.217341    0.000000
siesta:      5    0.388976    0.243824    0.000000
siesta:      6    0.034993   -0.022178   -0.000000
siesta:      7   -2.183857   -0.505097   -0.000000
siesta:      8   -7.652573   13.426764   -0.000000
siesta:      9  -17.612063   23.542615   -0.000000
siesta:     10   -0.294895    0.611949    0.000000
siesta:     11   -0.252243    2.634395   -0.000000
siesta:     12   -1.854296    1.224033    0.000000
siesta:     13  -13.266351   19.887341   -0.000000
siesta:     14   -0.023280    0.032254   -0.000000
siesta:     15   -0.126679   -0.096951    0.000000
siesta:     16   -0.022450    0.028276   -0.000000
siesta:     17   -0.017153    0.026682    0.000000
siesta:     18   -0.037545   -0.042941   -0.000000
siesta:     19   -0.401972   -0.042527   -0.000000
siesta:     20    2.389485   -0.470463   -0.000000
siesta:     21   26.311219  -40.415628    0.000000
siesta:     22    1.035531   -3.294446    0.000000
siesta:     23   -0.376306    0.228730   -0.000000
siesta:     24    0.829180    0.618137    0.000000
siesta:     25    5.458084   -9.874460   -0.000000
siesta:     26    4.495652   -7.775093   -0.000000
siesta:     27    0.156649   -0.578889    0.000000
siesta:     28    0.065716   -1.062529   -0.000000
siesta:     29    0.430230    0.451492    0.000000
siesta: ----------------------------------------
siesta:    Tot   -2.367682   -1.224999   -0.000000

siesta: Stress tensor (static) (eV/Ang**3):
siesta:    -0.002154    0.003527   -0.000000
siesta:     0.003527   -0.004911   -0.000000
siesta:    -0.000000    0.000000   -0.000020

siesta: Cell volume =      13500.000000 Ang**3

siesta: Pressure (static):
siesta:                Solid            Molecule  Units
siesta:           0.00002572         -0.00000179  Ry/Bohr**3
siesta:           0.00236169         -0.00016431  eV/Ang**3
siesta:           3.78388063         -0.26325987  kBar
(Free)E+ p_basis*V_orbitals  =       -4115.763206
(Free)Eharris+ p_basis*V_orbitals  =       -4115.763206
     spin moment: S , {S} =    0.00000   0.00000  -0.00000   0.00000

siesta: Electric dipole (a.u.)  =   -0.064267    1.335323    0.000000
siesta: Electric dipole (Debye) =   -0.163350    3.394055    0.000000

cite: Please see "GC.bib" for an exhaustive BiBTeX file.
cite: Please clearly indicate Siesta version in published work: v4.1.5-1-g384057250
cite: This calculation has made use of the following articles
cite: which are encouraged to be cited in a published work.
        Primary SIESTA paper
          DOI: www.doi.org/10.1088/0953-8984/14/11/302
        Spin-orbit coupling (on-site approximation)
          DOI: www.doi.org/10.1088/0953-8984/19/19/489001


WARNING: alloc-realloc-dealloc name mismatch
         Name: atomlist isa
         Size:              -116. Bytes
         Node:     0
         Subsequent mismatches will not be reported
>> End of run:   1-FEB-2024  20:56:24
Job completed
