Siesta Version  : v4.1.5-1-g384057250
Architecture    : gcc
Compiler version: GNU Fortran (Debian 10.2.1-6) 10.2.1 20210110
Compiler flags  : mpifort -O2 -fPIC -ftree-vectorize -fallow-argument-mismatch
PP flags        : -DFC_HAVE_ABORT -DMPI -DSIESTA__FLOOK -DSIESTA__METIS -DSIESTA__MUMPS -DCDF -DNCDF -DNCDF_4 -DNCDF_PARALLEL -DSIESTA__MRRR -DSIESTA__ELPA
Libraries       : libncdf.a libfdict.a  -lflookall -ldl -lnetcdff -lnetcdf -lhdf5_hl -lhdf5 -lhdf5_fortran -lz -lscalapack-openmpi -lopenblas -lmetis -lzmumps -lcmumps -ldmumps -lmumps_common -lpord -lsmumps -lesmumps -lscotch -lscotcherr -fopenmp -lelpa
PARALLEL version
NetCDF support
NetCDF-4 support
NetCDF-4 MPI-IO support
METIS ordering support
Lua support

* Running on 6 nodes in parallel
>> Start of run:  22-MAY-2023  10:22:25

                           ***********************       
                           *  WELCOME TO SIESTA  *       
                           ***********************       

reinit: Reading from standard input
reinit: Dumped input in INPUT_TMP.48094
************************** Dump of input data file ****************************
SystemLabel      AT
NumberOfAtoms    30
NumberOfSpecies  4
%block ChemicalSpeciesLabel
    1    1  H
    2    7  N
    3   14  Si
    4    8  O
%endblock ChemicalSpeciesLabel
# Single point calculation
MD.TypeOfRun                CG
MD.Steps                    0
SCF.MustConverge            F # In case it does not. There can be 2 very close atoms
AtomicCoordinatesFormat NotScaledCartesianAng
%block AtomicCoordinatesAndAtomicSpecies
2.582377650    -5.776830440   0.000000000       1
1.654759240    -5.269361980   0.000000000       2
0.063128840    -6.101704590   0.000000000       3
0.119223240    -7.596849500   0.000000000       1
-1.376892050   -5.182603740   0.000000000       2
-0.824371900   -3.460866440   0.000000000       3
-1.170571480   -1.270002100   0.000000000       3
-2.706933680   -0.417515780   0.000000000       2
-2.754569660   0.634858620    0.000000000       1
-3.637675640   -0.909967860   0.000000000       1
0.218091790    -0.234193970   0.000000000       2
1.872004100    -0.697162300   0.000000000       3
2.828001130    0.461464770    0.000000000       1
2.648150080    -2.255024470   0.000000000       2
1.391921380    -3.454727220   0.000000000       3
1.852452355    7.503598560    0.000000000       2
0.525080835    8.713802860    0.000000000       3
1.165082105    10.075121100   0.000000000       1
-1.560665105   8.043271510    0.000000000       3
-3.590227705   9.173387700    0.000000000       3
-3.435991935   10.333617910   0.940305280       1
-4.576162425   8.151467080    0.512613700       1
-4.006442665   9.649613550    -1.366678340      1
-1.494169685   5.769294890    0.000000000       3
-2.533218415   4.576235390    0.000000000       4
0.162821895    5.135319700    0.000000000       2
0.144804525    4.072874870    0.000000000       1
1.786424965    5.732389910    0.000000000       3
2.981441135    4.717964710    0.000000000       4
2.852489725    7.849105660    0.000000000       1
%endblock AtomicCoordinatesAndAtomicSpecies
%include ../../../Defaults.fdf
************************** End of input data file *****************************

reinit: -----------------------------------------------------------------------
reinit: System Name: 
reinit: -----------------------------------------------------------------------
reinit: System Label: AT
reinit: -----------------------------------------------------------------------

initatom: Reading input for the pseudopotentials and atomic orbitals ----------
Species number:   1 Atomic number:    1 Label: H
Species number:   2 Atomic number:    7 Label: N
Species number:   3 Atomic number:   14 Label: Si
Species number:   4 Atomic number:    8 Label: O

Ground state valence configuration:   1s01
Reading pseudopotential information in formatted form from H.psf

Pseudopotential generated from a relativistic atomic calculation

Valence configuration for pseudopotential generation:
1s( 1.00) rc: 0.01
2p( 0.00) rc: 0.60
3d( 0.00) rc: 1.99
4f( 0.00) rc: 2.49
Ground state valence configuration:   2s02  2p03
Reading pseudopotential information in formatted form from N.psf

Pseudopotential generated from a relativistic atomic calculation

Valence configuration for pseudopotential generation:
2s( 2.00) rc: 0.94
2p( 3.00) rc: 0.59
3d( 0.00) rc: 3.46
4f( 0.00) rc: 2.47
Ground state valence configuration:   3s02  3p02
Reading pseudopotential information in formatted form from Si.psf

Pseudopotential generated from a relativistic atomic calculation

Valence configuration for pseudopotential generation:
3s( 2.00) rc: 1.67
3p( 2.00) rc: 2.04
3d( 0.00) rc: 2.89
4f( 0.00) rc: 2.49
Ground state valence configuration:   2s02  2p04
Reading pseudopotential information in formatted form from O.psf

Pseudopotential generated from a relativistic atomic calculation

Valence configuration for pseudopotential generation:
2s( 2.00) rc: 0.45
2p( 4.00) rc: 0.92
3d( 0.00) rc: 2.24
4f( 0.00) rc: 0.25
For H, standard SIESTA heuristics set lmxkb to 2
 (one more than the basis l, including polarization orbitals).
Use PS.lmax or PS.KBprojectors blocks to override.
For N, standard SIESTA heuristics set lmxkb to 3
 (one more than the basis l, including polarization orbitals).
Use PS.lmax or PS.KBprojectors blocks to override.
For Si, standard SIESTA heuristics set lmxkb to 3
 (one more than the basis l, including polarization orbitals).
Use PS.lmax or PS.KBprojectors blocks to override.
For O, standard SIESTA heuristics set lmxkb to 3
 (one more than the basis l, including polarization orbitals).
Use PS.lmax or PS.KBprojectors blocks to override.

<basis_specs>
===============================================================================
H                    Z=   1    Mass=  1.0100        Charge= 0.17977+309
Lmxo=0 Lmxkb= 2    BasisType=split      Semic=F
L=0  Nsemic=0  Cnfigmx=1
          i=1  nzeta=2  polorb=1  (1s)
            splnorm:   0.62000    
               vcte:    0.0000    
               rinn:    0.0000    
               qcoe:    0.0000    
               qyuk:    0.0000    
               qwid:   0.10000E-01
                rcs:    0.0000      0.0000    
            lambdas:    1.0000      1.0000    
-------------------------------------------------------------------------------
L=0  Nkbl=1  erefs: 0.17977+309
L=1  Nkbl=1  erefs: 0.17977+309
L=2  Nkbl=1  erefs: 0.17977+309
===============================================================================
</basis_specs>

atom: Called for H                     (Z =   1)

read_vps: Pseudopotential generation method:
read_vps: ATM4.2.7  Troullier-Martins                       
Valence charge for ps generation:    1.00000

xc_check: Exchange-correlation functional:
xc_check: GGA Perdew, Burke & Ernzerhof 1996
V l=0 = -2*Zval/r beyond r=  0.0098
V l=1 = -2*Zval/r beyond r=  0.5817
V l=2 = -2*Zval/r beyond r=  1.9372
All V_l potentials equal beyond r=  1.9372
This should be close to max(r_c) in ps generation
All pots = -2*Zval/r beyond r=  1.9372

VLOCAL1: 99.0% of the norm of Vloc inside     11.567 Ry
VLOCAL1: 99.9% of the norm of Vloc inside     26.362 Ry
atom: Maximum radius for 4*pi*r*r*local-pseudopot. charge    2.25106
atom: Maximum radius for r*vlocal+2*Zval:    1.91306
GHOST: No ghost state for L =  0
GHOST: No ghost state for L =  1
GHOST: No ghost state for L =  2

KBgen: Kleinman-Bylander projectors: 
   l= 0   rc=  2.036604   el= -0.477180   Ekb= -6.081590   kbcos= -0.277285
   l= 1   rc=  2.195416   el=  0.001076   Ekb= -0.926943   kbcos= -0.034643
   l= 2   rc=  2.251056   el=  0.002010   Ekb= -0.130941   kbcos= -0.009788

KBgen: Total number of Kleinman-Bylander projectors:    9
atom: -------------------------------------------------------------------------

atom: SANKEY-TYPE ORBITALS:
atom: Selected multiple-zeta basis: split     

SPLIT: Orbitals with angular momentum L= 0

SPLIT: Basis orbitals for state 1s

SPLIT: PAO cut-off radius determined from an
SPLIT: energy shift=  0.002000 Ry

   izeta = 1
                 lambda =    1.000000
                     rc =    6.518340
                 energy =   -0.475305
                kinetic =    0.912139
    potential(screened) =   -1.387444
       potential(ionic) =   -1.907295

   izeta = 2
                 rmatch =    2.141150
              splitnorm =    0.620000
                 energy =    0.566467
                kinetic =    3.772856
    potential(screened) =   -3.206389
       potential(ionic) =   -3.759093

POLgen: Perturbative polarization orbital with L=  1

POLgen: Polarization orbital for state 1s

   izeta = 1
                     rc =    6.518340
                 energy =    0.533861
                kinetic =    1.121086
    potential(screened) =   -0.587225
       potential(ionic) =   -1.053027
atom: Total number of Sankey-type orbitals:  5

atm_pop: Valence configuration (for local Pseudopot. screening):
 1s( 1.00)                                                            
Vna: chval, zval:    1.00000   1.00000

Vna:  Cut-off radius for the neutral-atom potential:   6.518340

atom: _________________________________________________________________________

<basis_specs>
===============================================================================
N                    Z=   7    Mass=  14.010        Charge= 0.17977+309
Lmxo=1 Lmxkb= 3    BasisType=split      Semic=F
L=0  Nsemic=0  Cnfigmx=2
          i=1  nzeta=2  polorb=0  (2s)
            splnorm:   0.28000    
               vcte:    0.0000    
               rinn:    0.0000    
               qcoe:    0.0000    
               qyuk:    0.0000    
               qwid:   0.10000E-01
                rcs:    0.0000      0.0000    
            lambdas:    1.0000      1.0000    
L=1  Nsemic=0  Cnfigmx=2
          i=1  nzeta=2  polorb=1  (2p)
            splnorm:   0.28000    
               vcte:    0.0000    
               rinn:    0.0000    
               qcoe:    0.0000    
               qyuk:    0.0000    
               qwid:   0.10000E-01
                rcs:    0.0000      0.0000    
            lambdas:    1.0000      1.0000    
-------------------------------------------------------------------------------
L=0  Nkbl=1  erefs: 0.17977+309
L=1  Nkbl=1  erefs: 0.17977+309
L=2  Nkbl=1  erefs: 0.17977+309
L=3  Nkbl=1  erefs: 0.17977+309
===============================================================================
</basis_specs>

atom: Called for N                     (Z =   7)

read_vps: Pseudopotential generation method:
read_vps: ATM4.2.7  Troullier-Martins                       
Valence charge for ps generation:    5.00000

xc_check: Exchange-correlation functional:
xc_check: GGA Perdew, Burke & Ernzerhof 1996
V l=0 = -2*Zval/r beyond r=  1.2889
V l=1 = -2*Zval/r beyond r=  1.2889
V l=2 = -2*Zval/r beyond r=  3.4178
V l=3 = -2*Zval/r beyond r=  2.4084
All V_l potentials equal beyond r=  3.3753
This should be close to max(r_c) in ps generation
All pots = -2*Zval/r beyond r=  3.4178

VLOCAL1: 99.0% of the norm of Vloc inside      3.810 Ry
VLOCAL1: 99.9% of the norm of Vloc inside      8.683 Ry
atom: Maximum radius for 4*pi*r*r*local-pseudopot. charge    4.02088
atom: Maximum radius for r*vlocal+2*Zval:    3.54838
GHOST: No ghost state for L =  0
GHOST: No ghost state for L =  1
GHOST: No ghost state for L =  2
GHOST: No ghost state for L =  3

KBgen: Kleinman-Bylander projectors: 
   l= 0   rc=  3.417763   el= -1.365098   Ekb= -4.433130   kbcos= -0.707855
   l= 1   rc=  3.375302   el= -0.521201   Ekb=-13.264039   kbcos= -0.535594
   l= 2   rc=  3.872880   el=  0.001991   Ekb= -0.641094   kbcos= -0.062456
   l= 3   rc=  3.970931   el=  0.003093   Ekb= -0.474517   kbcos= -0.018236

KBgen: Total number of Kleinman-Bylander projectors:   16
atom: -------------------------------------------------------------------------

atom: SANKEY-TYPE ORBITALS:
atom: Selected multiple-zeta basis: split     

SPLIT: Orbitals with angular momentum L= 0

SPLIT: Basis orbitals for state 2s

SPLIT: PAO cut-off radius determined from an
SPLIT: energy shift=  0.002000 Ry

   izeta = 1
                 lambda =    1.000000
                     rc =    4.730425
                 energy =   -1.363399
                kinetic =    1.245246
    potential(screened) =   -2.608645
       potential(ionic) =   -8.121105

   izeta = 2
                 rmatch =    2.531849
              splitnorm =    0.280000
                 energy =   -0.959908
                kinetic =    2.409435
    potential(screened) =   -3.369343
       potential(ionic) =   -9.427975

SPLIT: Orbitals with angular momentum L= 1

SPLIT: Basis orbitals for state 2p

SPLIT: PAO cut-off radius determined from an
SPLIT: energy shift=  0.002000 Ry

   izeta = 1
                 lambda =    1.000000
                     rc =    5.924108
                 energy =   -0.519262
                kinetic =    3.672940
    potential(screened) =   -4.192202
       potential(ionic) =   -9.518354

   izeta = 2
                 rmatch =    2.531849
              splitnorm =    0.280000
                 energy =   -0.104258
                kinetic =    6.807538
    potential(screened) =   -6.911796
       potential(ionic) =  -13.149920

POLgen: Perturbative polarization orbital with L=  2

POLgen: Polarization orbital for state 2p

   izeta = 1
                     rc =    5.924108
                 energy =    1.427508
                kinetic =    2.872379
    potential(screened) =   -1.444871
       potential(ionic) =   -5.563644
atom: Total number of Sankey-type orbitals: 13

atm_pop: Valence configuration (for local Pseudopot. screening):
 2s( 2.00)                                                            
 2p( 3.00)                                                            
Vna: chval, zval:    5.00000   5.00000

Vna:  Cut-off radius for the neutral-atom potential:   5.924108

atom: _________________________________________________________________________

<basis_specs>
===============================================================================
Si                   Z=  14    Mass=  28.090        Charge= 0.17977+309
Lmxo=1 Lmxkb= 3    BasisType=split      Semic=F
L=0  Nsemic=0  Cnfigmx=3
          i=1  nzeta=2  polorb=0  (3s)
            splnorm:   0.28000    
               vcte:    0.0000    
               rinn:    0.0000    
               qcoe:    0.0000    
               qyuk:    0.0000    
               qwid:   0.10000E-01
                rcs:    0.0000      0.0000    
            lambdas:    1.0000      1.0000    
L=1  Nsemic=0  Cnfigmx=3
          i=1  nzeta=2  polorb=1  (3p)
            splnorm:   0.28000    
               vcte:    0.0000    
               rinn:    0.0000    
               qcoe:    0.0000    
               qyuk:    0.0000    
               qwid:   0.10000E-01
                rcs:    0.0000      0.0000    
            lambdas:    1.0000      1.0000    
-------------------------------------------------------------------------------
L=0  Nkbl=1  erefs: 0.17977+309
L=1  Nkbl=1  erefs: 0.17977+309
L=2  Nkbl=1  erefs: 0.17977+309
L=3  Nkbl=1  erefs: 0.17977+309
===============================================================================
</basis_specs>

atom: Called for Si                    (Z =  14)

read_vps: Pseudopotential generation method:
read_vps: ATM4.2.7  Troullier-Martins                       
Valence charge for ps generation:    4.00000

xc_check: Exchange-correlation functional:
xc_check: GGA Perdew, Burke & Ernzerhof 1996
V l=0 = -2*Zval/r beyond r=  2.7826
V l=1 = -2*Zval/r beyond r=  2.7826
V l=2 = -2*Zval/r beyond r=  2.9253
V l=3 = -2*Zval/r beyond r=  2.7826
All V_l potentials equal beyond r=  2.8530
This should be close to max(r_c) in ps generation
All pots = -2*Zval/r beyond r=  2.9253

VLOCAL1: 99.0% of the norm of Vloc inside      5.333 Ry
VLOCAL1: 99.9% of the norm of Vloc inside     12.154 Ry
atom: Maximum radius for 4*pi*r*r*local-pseudopot. charge    3.39869
atom: Maximum radius for r*vlocal+2*Zval:    2.96205
GHOST: No ghost state for L =  0
GHOST: No ghost state for L =  1
GHOST: No ghost state for L =  2
GHOST: No ghost state for L =  3

KBgen: Kleinman-Bylander projectors: 
   l= 0   rc=  3.075247   el= -0.794092   Ekb=  5.879390   kbcos=  0.167461
   l= 1   rc=  3.153101   el= -0.300068   Ekb=  2.642817   kbcos=  0.058301
   l= 2   rc=  3.273594   el=  0.001958   Ekb= -1.185135   kbcos= -0.104411
   l= 3   rc=  3.232927   el=  0.003046   Ekb= -0.497174   kbcos= -0.015889

KBgen: Total number of Kleinman-Bylander projectors:   16
atom: -------------------------------------------------------------------------

atom: SANKEY-TYPE ORBITALS:
atom: Selected multiple-zeta basis: split     

SPLIT: Orbitals with angular momentum L= 0

SPLIT: Basis orbitals for state 3s

SPLIT: PAO cut-off radius determined from an
SPLIT: energy shift=  0.002000 Ry

   izeta = 1
                 lambda =    1.000000
                     rc =    6.429618
                 energy =   -0.792283
                kinetic =    0.525293
    potential(screened) =   -1.317576
       potential(ionic) =   -3.744923

   izeta = 2
                 rmatch =    3.998416
              splitnorm =    0.280000
                 energy =   -0.583081
                kinetic =    1.069570
    potential(screened) =   -1.652651
       potential(ionic) =   -4.235185

SPLIT: Orbitals with angular momentum L= 1

SPLIT: Basis orbitals for state 3p

SPLIT: PAO cut-off radius determined from an
SPLIT: energy shift=  0.002000 Ry

   izeta = 1
                 lambda =    1.000000
                     rc =    8.464845
                 energy =   -0.298236
                kinetic =    0.785360
    potential(screened) =   -1.083596
       potential(ionic) =   -3.273779

   izeta = 2
                 rmatch =    4.587816
              splitnorm =    0.280000
                 energy =   -0.131871
                kinetic =    1.403687
    potential(screened) =   -1.535557
       potential(ionic) =   -4.015310

POLgen: Perturbative polarization orbital with L=  2

POLgen: Polarization orbital for state 3p

   izeta = 1
                     rc =    8.464845
                 energy =    0.321949
                kinetic =    1.055677
    potential(screened) =   -0.733728
       potential(ionic) =   -2.672950
atom: Total number of Sankey-type orbitals: 13

atm_pop: Valence configuration (for local Pseudopot. screening):
 3s( 2.00)                                                            
 3p( 2.00)                                                            
Vna: chval, zval:    4.00000   4.00000

Vna:  Cut-off radius for the neutral-atom potential:   8.464845

atom: _________________________________________________________________________

<basis_specs>
===============================================================================
O                    Z=   8    Mass=  16.000        Charge= 0.17977+309
Lmxo=1 Lmxkb= 3    BasisType=split      Semic=F
L=0  Nsemic=0  Cnfigmx=2
          i=1  nzeta=2  polorb=0  (2s)
            splnorm:   0.28000    
               vcte:    0.0000    
               rinn:    0.0000    
               qcoe:    0.0000    
               qyuk:    0.0000    
               qwid:   0.10000E-01
                rcs:    0.0000      0.0000    
            lambdas:    1.0000      1.0000    
L=1  Nsemic=0  Cnfigmx=2
          i=1  nzeta=2  polorb=1  (2p)
            splnorm:   0.28000    
               vcte:    0.0000    
               rinn:    0.0000    
               qcoe:    0.0000    
               qyuk:    0.0000    
               qwid:   0.10000E-01
                rcs:    0.0000      0.0000    
            lambdas:    1.0000      1.0000    
-------------------------------------------------------------------------------
L=0  Nkbl=1  erefs: 0.17977+309
L=1  Nkbl=1  erefs: 0.17977+309
L=2  Nkbl=1  erefs: 0.17977+309
L=3  Nkbl=1  erefs: 0.17977+309
===============================================================================
</basis_specs>

atom: Called for O                     (Z =   8)

read_vps: Pseudopotential generation method:
read_vps: ATM4.2.7  Troullier-Martins                       
Valence charge for ps generation:    6.00000

xc_check: Exchange-correlation functional:
xc_check: GGA Perdew, Burke & Ernzerhof 1996
V l=0 = -2*Zval/r beyond r=  1.1000
V l=1 = -2*Zval/r beyond r=  1.1000
V l=2 = -2*Zval/r beyond r=  2.2154
V l=3 = -2*Zval/r beyond r=  1.1000
All V_l potentials equal beyond r=  2.2154
This should be close to max(r_c) in ps generation
All pots = -2*Zval/r beyond r=  2.2154

VLOCAL1: 99.0% of the norm of Vloc inside      8.845 Ry
VLOCAL1: 99.9% of the norm of Vloc inside     20.157 Ry
atom: Maximum radius for 4*pi*r*r*local-pseudopot. charge    2.67231
atom: Maximum radius for r*vlocal+2*Zval:    2.32897
GHOST: No ghost state for L =  0
GHOST: No ghost state for L =  1
GHOST: No ghost state for L =  2
GHOST: No ghost state for L =  3

KBgen: Kleinman-Bylander projectors: 
   l= 0   rc=  2.243238   el= -1.759686   Ekb=**********   kbcos= -0.171774
   l= 1   rc=  2.328968   el= -0.663873   Ekb=-14.506792   kbcos= -0.519897
   l= 2   rc=  2.573941   el=  0.002031   Ekb= -1.137373   kbcos= -0.019581
   l= 3   rc=  2.606321   el=  0.003153   Ekb= -1.013546   kbcos= -0.003122

KBgen: Total number of Kleinman-Bylander projectors:   16
atom: -------------------------------------------------------------------------

atom: SANKEY-TYPE ORBITALS:
atom: Selected multiple-zeta basis: split     

SPLIT: Orbitals with angular momentum L= 0

SPLIT: Basis orbitals for state 2s

SPLIT: PAO cut-off radius determined from an
SPLIT: energy shift=  0.002000 Ry

   izeta = 1
                 lambda =    1.000000
                     rc =    4.243912
                 energy =   -1.758270
                kinetic =    3.286084
    potential(screened) =   -5.044353
       potential(ionic) =  -12.921184

   izeta = 2
                 rmatch =    2.187845
              splitnorm =    0.280000
                 energy =   -0.885018
                kinetic =    8.134434
    potential(screened) =   -9.019452
       potential(ionic) =  -17.710645

SPLIT: Orbitals with angular momentum L= 1

SPLIT: Basis orbitals for state 2p

SPLIT: PAO cut-off radius determined from an
SPLIT: energy shift=  0.002000 Ry

   izeta = 1
                 lambda =    1.000000
                     rc =    5.314825
                 energy =   -0.661986
                kinetic =    4.917472
    potential(screened) =   -5.579458
       potential(ionic) =  -13.236259

   izeta = 2
                 rmatch =    2.160663
              splitnorm =    0.280000
                 energy =   -0.068760
                kinetic =    9.183374
    potential(screened) =   -9.252135
       potential(ionic) =  -18.274251

POLgen: Perturbative polarization orbital with L=  2

POLgen: Polarization orbital for state 2p

   izeta = 1
                     rc =    5.314825
                 energy =    1.970580
                kinetic =    3.886128
    potential(screened) =   -1.915547
       potential(ionic) =   -7.749584
atom: Total number of Sankey-type orbitals: 13

atm_pop: Valence configuration (for local Pseudopot. screening):
 2s( 2.00)                                                            
 2p( 4.00)                                                            
Vna: chval, zval:    6.00000   6.00000

Vna:  Cut-off radius for the neutral-atom potential:   5.314825

atom: _________________________________________________________________________

prinput: Basis input ----------------------------------------------------------

PAO.BasisType split     

%block ChemicalSpeciesLabel
    1    1 H                       # Species index, atomic number, species label
    2    7 N                       # Species index, atomic number, species label
    3   14 Si                      # Species index, atomic number, species label
    4    8 O                       # Species index, atomic number, species label
%endblock ChemicalSpeciesLabel

%block PAO.Basis                 # Define Basis set
H                     1                    # Species label, number of l-shells
 n=1   0   2 P   1                   # n, l, Nzeta, Polarization, NzetaPol
   6.518      2.141   
   1.000      1.000   
N                     2                    # Species label, number of l-shells
 n=2   0   2                         # n, l, Nzeta 
   4.730      2.532   
   1.000      1.000   
 n=2   1   2 P   1                   # n, l, Nzeta, Polarization, NzetaPol
   5.924      2.532   
   1.000      1.000   
Si                    2                    # Species label, number of l-shells
 n=3   0   2                         # n, l, Nzeta 
   6.430      3.998   
   1.000      1.000   
 n=3   1   2 P   1                   # n, l, Nzeta, Polarization, NzetaPol
   8.465      4.588   
   1.000      1.000   
O                     2                    # Species label, number of l-shells
 n=2   0   2                         # n, l, Nzeta 
   4.244      2.188   
   1.000      1.000   
 n=2   1   2 P   1                   # n, l, Nzeta, Polarization, NzetaPol
   5.315      2.161   
   1.000      1.000   
%endblock PAO.Basis

prinput: ----------------------------------------------------------------------

Dumping basis to NetCDF file H.ion.nc
Dumping basis to NetCDF file N.ion.nc
Dumping basis to NetCDF file Si.ion.nc
Dumping basis to NetCDF file O.ion.nc
coor:   Atomic-coordinates input format  =     Cartesian coordinates
coor:                                          (in Angstroms)

siesta: Atomic coordinates (Bohr) and species
siesta:      4.87999 -10.91663   0.00000  1        1
siesta:      3.12704  -9.95765   0.00000  2        2
siesta:      0.11930 -11.53056   0.00000  3        3
siesta:      0.22530 -14.35597   0.00000  1        4
siesta:     -2.60195  -9.79371   0.00000  2        5
siesta:     -1.55784  -6.54009   0.00000  3        6
siesta:     -2.21206  -2.39996   0.00000  3        7
siesta:     -5.11537  -0.78899   0.00000  2        8
siesta:     -5.20538   1.19971   0.00000  1        9
siesta:     -6.87421  -1.71959   0.00000  1       10
siesta:      0.41213  -0.44256   0.00000  2       11
siesta:      3.53758  -1.31745   0.00000  3       12
siesta:      5.34415   0.87204   0.00000  1       13
siesta:      5.00428  -4.26138   0.00000  2       14
siesta:      2.63035  -6.52849   0.00000  3       15
siesta:      3.50063  14.17975   0.00000  2       16
siesta:      0.99226  16.46671   0.00000  3       17
siesta:      2.20169  19.03923   0.00000  1       18
siesta:     -2.94923  15.19959   0.00000  3       19
siesta:     -6.78455  17.33520   0.00000  3       20
siesta:     -6.49309  19.52772   1.77692  1       21
siesta:     -8.64770  15.40405   0.96870  1       22
siesta:     -7.57108  18.23513  -2.58265  1       23
siesta:     -2.82357  10.90239   0.00000  3       24
siesta:     -4.78709   8.64784   0.00000  4       25
siesta:      0.30769   9.70435   0.00000  2       26
siesta:      0.27364   7.69662   0.00000  1       27
siesta:      3.37586  10.83265   0.00000  3       28
siesta:      5.63411   8.91566   0.00000  4       29
siesta:      5.39043  14.83267   0.00000  1       30

siesta: Automatic unit cell vectors (Ang):
siesta:   15.863138    0.000000    0.000000
siesta:    0.000000   27.312097    0.000000
siesta:    0.000000    0.000000   10.224979

siesta: System type = molecule  

initatomlists: Number of atoms, orbitals, and projectors:     30   302   403

siesta: ******************** Simulation parameters ****************************
siesta:
siesta: The following are some of the parameters of the simulation.
siesta: A complete list of the parameters used, including default values,
siesta: can be found in file out.fdf
siesta:
redata: Spin configuration                          = spin-orbit
redata: Number of spin components                   = 8
redata: Time-Reversal Symmetry                      = F
redata: Spin spiral                                 = F
############################################################
This spin-orbit implementation uses a local approximation.
From 4.2 and onwards the full non-local approximation is implemented
You are strongly advised to use >=4.2 versions!
############################################################
redata: Long output                                 =   F
redata: Number of Atomic Species                    =        4
redata: Charge density info will appear in .RHO file
redata: Write Mulliken Pop.                         = Atomic and Orbital charges
redata: Matel table size (NRTAB)                    =     1024
redata: Mesh Cutoff                                 =   340.0000 Ry
redata: Net charge of the system                    =     0.0000 |e|
redata: Min. number of SCF Iter                     =        1
redata: Max. number of SCF Iter                     =      200
redata: SCF mix quantity                            = Hamiltonian
redata: Mix DM or H after convergence               =   F
redata: Recompute H after scf cycle                 =   F
redata: Mix DM in first SCF step                    =   T
redata: Write Pulay info on disk                    =   F
redata: New DM Occupancy tolerance                  = 0.000000000001
redata: No kicks to SCF
redata: DM Mixing Weight for Kicks                  =     0.5000
redata: Require Harris convergence for SCF          =   F
redata: Harris energy tolerance for SCF             =     0.000100 eV
redata: Require DM convergence for SCF              =   T
redata: DM tolerance for SCF                        =     0.000008
redata: Require EDM convergence for SCF             =   F
redata: EDM tolerance for SCF                       =     0.001000 eV
redata: Require H convergence for SCF               =   T
redata: Hamiltonian tolerance for SCF               =     0.000001 eV
redata: Require (free) Energy convergence for SCF   =   F
redata: (free) Energy tolerance for SCF             =     0.000100 eV
redata: Using Saved Data (generic)                  =   F
redata: Use continuation files for DM               =   F
redata: Neglect nonoverlap interactions             =   F
redata: Method of Calculation                       = Diagonalization
redata: Electronic Temperature                      =   299.9978 K
redata: Fix the spin of the system                  =   F
redata: Dynamics option                             = Single-point calculation
mix.SCF: Pulay mixing                            = Pulay
mix.SCF:    Variant                              = stable
mix.SCF:    History steps                        = 6
mix.SCF:    Linear mixing weight                 =     0.250000
mix.SCF:    Mixing weight                        =     0.250000
mix.SCF:    SVD condition                        = 0.1000E-07
mix.SCF:    Restart steps                        = 24
mix.SCF:    Restart save steps                   = 3
mix.SCF: Spin-component mixing                   all
redata: Save all siesta data in one NC              =   F
redata: ***********************************************************************

%block SCF.Mixers
  Pulay
%endblock SCF.Mixers

%block SCF.Mixer.Pulay
  # Mixing method
  method pulay
  variant stable

  # Mixing options
  weight 0.2500
  weight.linear 0.2500
  history 6
  restart 24
  restart.save 3
%endblock SCF.Mixer.Pulay

DM_history_depth set to one: no extrapolation allowed by default for geometry relaxation
Size of DM history Fstack: 1
Total number of electrons:    98.000000
Total ionic charge:    98.000000

* ProcessorY, Blocksize:    2  24


* Orbital distribution balance (max,min):    62    48


Time-reversal symmetry not used.

siesta: k-grid: Number of k-points =     1
siesta: k-grid: Cutoff (effective) =     5.112 Ang
siesta: k-grid: Supercell and displacements
siesta: k-grid:    1   0   0      0.000
siesta: k-grid:    0   1   0      0.000
siesta: k-grid:    0   0   1      0.000

diag: Algorithm                                     = ELPA-1stage
diag: Parallel over k                               =   F
diag: Use parallel 2D distribution                  =   T
diag: Parallel block-size                           = 24
diag: Parallel distribution                         =     2 x     3
diag: Used triangular part                          = Lower
diag: Absolute tolerance                            =  0.100E-15
diag: Orthogonalization factor                      =  0.100E-05
diag: Memory factor                                 =  1.0000


ts: **************************************************************
ts: Save H and S matrices                           =    F
ts: Save DM and EDM matrices                        =    F
ts: Only save the overlap matrix S                  =    F
ts: **************************************************************

************************ Begin: TS CHECKS AND WARNINGS ************************
************************ End: TS CHECKS AND WARNINGS **************************


                     ====================================
                        Single-point calculation
                     ====================================

outcoor: Atomic coordinates (Ang):                          
    2.58237765   -5.77683044    0.00000000   1       1  H
    1.65475924   -5.26936198    0.00000000   2       2  N
    0.06312884   -6.10170459    0.00000000   3       3  Si
    0.11922324   -7.59684950    0.00000000   1       4  H
   -1.37689205   -5.18260374    0.00000000   2       5  N
   -0.82437190   -3.46086644    0.00000000   3       6  Si
   -1.17057148   -1.27000210    0.00000000   3       7  Si
   -2.70693368   -0.41751578    0.00000000   2       8  N
   -2.75456966    0.63485862    0.00000000   1       9  H
   -3.63767564   -0.90996786    0.00000000   1      10  H
    0.21809179   -0.23419397    0.00000000   2      11  N
    1.87200410   -0.69716230    0.00000000   3      12  Si
    2.82800113    0.46146477    0.00000000   1      13  H
    2.64815008   -2.25502447    0.00000000   2      14  N
    1.39192138   -3.45472722    0.00000000   3      15  Si
    1.85245236    7.50359856    0.00000000   2      16  N
    0.52508084    8.71380286    0.00000000   3      17  Si
    1.16508210   10.07512110    0.00000000   1      18  H
   -1.56066510    8.04327151    0.00000000   3      19  Si
   -3.59022771    9.17338770    0.00000000   3      20  Si
   -3.43599194   10.33361791    0.94030528   1      21  H
   -4.57616242    8.15146708    0.51261370   1      22  H
   -4.00644266    9.64961355   -1.36667834   1      23  H
   -1.49416968    5.76929489    0.00000000   3      24  Si
   -2.53321841    4.57623539    0.00000000   4      25  O
    0.16282189    5.13531970    0.00000000   2      26  N
    0.14480452    4.07287487    0.00000000   1      27  H
    1.78642496    5.73238991    0.00000000   3      28  Si
    2.98144113    4.71796471    0.00000000   4      29  O
    2.85248972    7.84910566    0.00000000   1      30  H

outcell: Unit cell vectors (Ang):
       15.863138    0.000000    0.000000
        0.000000   27.312097    0.000000
        0.000000    0.000000   10.224979

outcell: Cell vector modules (Ang)   :   15.863138   27.312097   10.224979
outcell: Cell angles (23,13,12) (deg):     90.0000     90.0000     90.0000
outcell: Cell volume (Ang**3)        :   4430.0292
<dSpData1D:S at geom step 0
  <sparsity:sparsity for geom step 0
    nrows_g=302 nrows=62 sparsity=.1122 nnzs=10236, refcount: 8>
  <dData1D:(new from dSpData1D) n=10236, refcount: 1>
refcount: 1>
new_DM -- step:     1
Initializing Density Matrix...
DM filled with atomic data:
<dSpData2D:DM initialized from atoms
  <sparsity:sparsity for geom step 0
    nrows_g=302 nrows=62 sparsity=.1122 nnzs=10236, refcount: 9>
  <dData2D:DM n=10236 m=8, refcount: 1>
refcount: 1>
     spin moment: S , {S} =   56.00000   0.00000   0.00000  56.00000
No. of atoms with KB's overlaping orbs in proc 0. Max # of overlaps:      24     149

Initializing spin-orbit part of the Hamiltonian
  Adding spin-orbit effects for H 
  Adding spin-orbit effects for N 
  Adding spin-orbit effects for Si
  Adding spin-orbit effects for O 


New grid distribution:   1
           1       1:   90    1:   80    1:   20
           2       1:   90    1:   80   21:   40
           3       1:   90    1:   80   41:   60
           4       1:   90   81:  160    1:   20
           5       1:   90   81:  160   21:   40
           6       1:   90   81:  160   41:   60

InitMesh: MESH =   180 x   320 x   120 =     6912000
InitMesh: (bp) =    90 x   160 x    60 =      864000
InitMesh: Mesh cutoff (required, used) =   340.000   355.851 Ry
ExtMesh (bp) on 0 =   194 x   188 x   128 =     4668416
New grid distribution:   2
           1      14:   90   38:   58    1:   60
           2       1:   11   59:  160    1:   60
           3       1:   13    1:   58    1:   60
           4      12:   90   59:  139    1:   60
           5      14:   90    1:   37    1:   60
           6      12:   90  140:  160    1:   60
New grid distribution:   3
           1       1:   19   62:  160    1:   60
           2      23:   90   37:   61    1:   60
           3       1:   22    1:   61    1:   60
           4      20:   90   62:  130    1:   60
           5      23:   90    1:   36    1:   60
           6      20:   90  131:  160    1:   60
Setting up quadratic distribution...
ExtMesh (bp) on 0 =   181 x   129 x   168 =     3922632
PhiOnMesh: Number of (b)points on node 0 =                97020
PhiOnMesh: nlist on node 0 =              1806864

stepf: Fermi-Dirac step function

siesta: Program's energy decomposition (eV):
siesta: Ebs     =      -628.405971
siesta: Eions   =      3553.971015
siesta: Ena     =       377.804943
siesta: Ekin    =      3183.440563
siesta: Enl     =     -2998.362022
siesta: Eso     =        -0.003900
siesta: Edftu   =         0.000000
siesta: DEna    =       130.437869
siesta: DUscf   =        76.687868
siesta: DUext   =         0.000000
siesta: Exc     =     -1171.391563
siesta: eta*DQ  =         0.000000
siesta: Emadel  =         0.000000
siesta: Emeta   =         0.000000
siesta: Emolmec =         0.000000
siesta: Ekinion =         0.000000
siesta: Eharris =     -3882.507092
siesta: Etot    =     -3955.357258
siesta: FreeEng =     -3955.361459

        iscf     Eharris(eV)        E_KS(eV)     FreeEng(eV)     dDmax    Ef(eV) dHmax(eV)
   scf:    1    -3882.507092    -3955.357258    -3955.361459  0.971417 -4.940688 21.528834
     spin moment: S , {S} =    2.03169   0.00003   0.00001   2.03169
timer: Routine,Calls,Time,% = IterSCF        1       5.639  21.97
   scf:    2    -3998.325586    -3989.469696    -3989.469697  0.457171 -4.357157 10.676989
     spin moment: S , {S} =    2.00011  -0.00001   0.00004   2.00011
   scf:    3    -3981.403755    -3992.132455    -3992.169437  0.415891 -4.257689  8.875667
     spin moment: S , {S} =    0.96269   0.00002   0.00000   0.96269
   scf:    4    -4000.678690    -3997.451484    -3997.451485  0.159750 -3.954563  6.376030
     spin moment: S , {S} =    0.00010   0.00001  -0.00000   0.00010
   scf:    5    -3998.816259    -3998.203415    -3998.203416  0.036111 -3.883799  3.691836
     spin moment: S , {S} =    0.00005   0.00000  -0.00000   0.00005
   scf:    6    -3998.832779    -3998.528217    -3998.528217  0.022964 -3.890335  1.986782
     spin moment: S , {S} =    0.00003   0.00000  -0.00000   0.00003
   scf:    7    -3998.886109    -3998.699888    -3998.699888  0.022961 -3.942207  0.701813
     spin moment: S , {S} =    0.00001   0.00000  -0.00000   0.00001
   scf:    8    -3998.800530    -3998.748306    -3998.748306  0.010679 -3.978029  0.390892
     spin moment: S , {S} =    0.00000   0.00000  -0.00000   0.00000
   scf:    9    -3998.790096    -3998.768199    -3998.768200  0.007012 -3.993138  0.275172
     spin moment: S , {S} =    0.00000   0.00000  -0.00000  -0.00000
   scf:   10    -3998.812295    -3998.785934    -3998.785961  0.016457 -4.010030  0.146706
     spin moment: S , {S} =    0.00006   0.00000   0.00000  -0.00006
   scf:   11    -3998.788917    -3998.787401    -3998.787433  0.004254 -4.001557  0.034270
     spin moment: S , {S} =    0.00001   0.00000   0.00000  -0.00001
   scf:   12    -3998.788027    -3998.787707    -3998.787743  0.001544 -4.000377  0.026870
     spin moment: S , {S} =    0.00000   0.00000   0.00000  -0.00000
   scf:   13    -3998.788092    -3998.787892    -3998.787928  0.001345 -3.999141  0.020654
     spin moment: S , {S} =    0.00000   0.00000   0.00000   0.00000
   scf:   14    -3998.788226    -3998.788046    -3998.788083  0.001589 -3.998411  0.015687
     spin moment: S , {S} =    0.00000   0.00000   0.00000   0.00000
   scf:   15    -3998.788248    -3998.788136    -3998.788174  0.001464 -3.998020  0.010276
     spin moment: S , {S} =    0.00000   0.00000   0.00000  -0.00000
   scf:   16    -3998.788230    -3998.788177    -3998.788215  0.001062 -3.998038  0.005911
     spin moment: S , {S} =    0.00000   0.00000   0.00000  -0.00000
   scf:   17    -3998.788221    -3998.788195    -3998.788232  0.000909 -3.998134  0.003363
     spin moment: S , {S} =    0.00000   0.00000   0.00000  -0.00000
   scf:   18    -3998.788204    -3998.788199    -3998.788236  0.000403 -3.998224  0.001640
     spin moment: S , {S} =    0.00000   0.00000   0.00000  -0.00000
   scf:   19    -3998.788201    -3998.788199    -3998.788236  0.000207 -3.998223  0.000761
     spin moment: S , {S} =    0.00000   0.00000   0.00000  -0.00000
   scf:   20    -3998.788200    -3998.788200    -3998.788237  0.000057 -3.998226  0.000528
     spin moment: S , {S} =    0.00000   0.00000   0.00000  -0.00000
   scf:   21    -3998.788200    -3998.788200    -3998.788237  0.000052 -3.998229  0.000296
     spin moment: S , {S} =    0.00000   0.00000   0.00000  -0.00000
   scf:   22    -3998.788200    -3998.788200    -3998.788237  0.000040 -3.998240  0.000171
     spin moment: S , {S} =    0.00000   0.00000   0.00000  -0.00000
   scf:   23    -3998.788200    -3998.788200    -3998.788237  0.000010 -3.998246  0.000131
     spin moment: S , {S} =    0.00000   0.00000   0.00000  -0.00000
   scf:   24    -3998.788200    -3998.788200    -3998.788237  0.000007 -3.998248  0.000106
     spin moment: S , {S} =    0.00000   0.00000   0.00000  -0.00000
mix: Pulay -- resetting history
   scf:   25    -3998.788200    -3998.788200    -3998.788237  0.000011 -3.998246  0.000047
     spin moment: S , {S} =    0.00000   0.00000   0.00000  -0.00000
   scf:   26    -3998.788200    -3998.788200    -3998.788237  0.000005 -3.998244  0.000016
     spin moment: S , {S} =    0.00000   0.00000   0.00000  -0.00000
   scf:   27    -3998.788200    -3998.788200    -3998.788237  0.000002 -3.998244  0.000008
     spin moment: S , {S} =    0.00000   0.00000   0.00000  -0.00000
   scf:   28    -3998.788200    -3998.788200    -3998.788237  0.000001 -3.998244  0.000006
     spin moment: S , {S} =    0.00000   0.00000   0.00000   0.00000
   scf:   29    -3998.788200    -3998.788200    -3998.788237  0.000001 -3.998244  0.000006
     spin moment: S , {S} =    0.00000   0.00000  -0.00000   0.00000
   scf:   30    -3998.788200    -3998.788200    -3998.788237  0.000000 -3.998244  0.000004
     spin moment: S , {S} =    0.00000   0.00000  -0.00000   0.00000
   scf:   31    -3998.788200    -3998.788200    -3998.788237  0.000000 -3.998244  0.000003
     spin moment: S , {S} =    0.00000   0.00000  -0.00000   0.00000
   scf:   32    -3998.788200    -3998.788200    -3998.788237  0.000000 -3.998244  0.000002
     spin moment: S , {S} =    0.00000   0.00000  -0.00000   0.00000
   scf:   33    -3998.788200    -3998.788200    -3998.788237  0.000000 -3.998244  0.000001
     spin moment: S , {S} =    0.00000   0.00000  -0.00000   0.00000

SCF Convergence by DM+H criterion
max |DM_out - DM_in|         :     0.0000002800
max |H_out - H_in|      (eV) :     0.0000008880
SCF cycle converged after 33 iterations

Using DM_out to compute the final energy and forces
No. of atoms with KB's overlaping orbs in proc 0. Max # of overlaps:      24     149

siesta: E_KS(eV) =            -3998.7882

siesta: E_KS - E_eggbox =     -3998.7882
     spin moment: S , {S} =    0.00000   0.00000  -0.00000   0.00000

siesta: Atomic forces (eV/Ang):
     1   -0.035551   -0.009877    0.000002
     2   -0.004811   -0.045113   -0.000002
     3   -0.002384    0.042316    0.000004
     4   -0.057111   -0.013131    0.000001
     5    0.016732   -0.037168   -0.000003
     6    0.030012    0.004889   -0.000000
     7   -0.104356    0.118520    0.000010
     8    0.070991   -0.062147   -0.000037
     9    0.013775    0.001791    0.000058
    10    0.098588    0.021302    0.000008
    11   -0.032712   -0.015937   -0.000012
    12    0.066027    0.069146   -0.000000
    13   -0.083453   -0.098973   -0.000001
    14   -0.013489   -0.057809    0.000001
    15   -0.000197    0.065640   -0.000000
    16    0.029901    0.023884    0.008392
    17   -0.002440   -0.048463   -0.039798
    18   -0.197055    0.043713    0.008263
    19   -0.000544    0.028714   -0.041149
    20    0.043552   -0.050568    0.027205
    21   -0.136808   -0.023714   -0.007372
    22   -0.030427    0.059136    0.027588
    23    0.032873    0.024790   -0.052743
    24    0.066971   -0.120101   -0.026621
    25   -4.919821    1.374707    0.003150
    26   -0.064124    0.090447    0.006525
    27    0.042180   -0.080506    0.002795
    28   -0.013053   -0.125994   -0.000873
    29    3.829654   -2.478606   -0.001099
    30   -0.013189    0.162759    0.008276
----------------------------------------
   Tot   -1.370272   -1.136352   -0.077433
----------------------------------------
   Max    4.919821
   Res    0.723884    sqrt( Sum f_i^2 / 3N )
----------------------------------------
   Max    4.919821    constrained

Stress tensor Voigt[x,y,z,yz,xz,xy] (kbar):       -1.76       -0.27       -0.21       -0.04        0.05        0.28
(Free)E + p*V (eV/cell)    -3996.7186
Target enthalpy (eV/cell)    -3998.7882

mulliken: Atomic and Orbital Populations:

Species: H                   

Atom      Orb        Charge      Spin       Svec
----------------------------------------------------------------
    1  1 1s         0.50868   0.00000     -0.000  -0.000   0.000
    1  2 1s         0.18804   0.00000      0.000   0.000   0.000
    1  3 2Ppy       0.02795   0.00000      0.000  -0.000   0.000
    1  4 2Ppz       0.03999   0.00000     -0.000  -0.000  -0.000
    1  5 2Ppx       0.02507   0.00000     -0.000  -0.000   0.000
    1     Total     0.78972   0.00000     -0.000  -0.000   0.000

    4  1 1s         1.02402   0.00000     -0.000   0.000  -0.000
    4  2 1s         0.09512   0.00000      0.000  -0.000   0.000
    4  3 2Ppy       0.03903   0.00000      0.000  -0.000  -0.000
    4  4 2Ppz       0.01991   0.00000     -0.000   0.000   0.000
    4  5 2Ppx       0.01356   0.00000      0.000   0.000  -0.000
    4     Total     1.19164   0.00000     -0.000   0.000  -0.000

    9  1 1s         0.47537   0.00000      0.000   0.000   0.000
    9  2 1s         0.19566   0.00000      0.000  -0.000   0.000
    9  3 2Ppy       0.02391   0.00000     -0.000   0.000  -0.000
    9  4 2Ppz       0.04811   0.00000     -0.000  -0.000   0.000
    9  5 2Ppx       0.01203   0.00000      0.000  -0.000   0.000
    9     Total     0.75508   0.00000      0.000  -0.000   0.000

   10  1 1s         0.48209   0.00000      0.000  -0.000  -0.000
   10  2 1s         0.19604   0.00000     -0.000   0.000   0.000
   10  3 2Ppy       0.00691   0.00000     -0.000   0.000  -0.000
   10  4 2Ppz       0.05298   0.00000      0.000   0.000   0.000
   10  5 2Ppx       0.02900   0.00000      0.000   0.000   0.000
   10     Total     0.76702   0.00000      0.000  -0.000   0.000

   13  1 1s         1.00991   0.00000      0.000   0.000   0.000
   13  2 1s         0.09970   0.00000     -0.000  -0.000   0.000
   13  3 2Ppy       0.02536   0.00000     -0.000  -0.000   0.000
   13  4 2Ppz       0.01430   0.00000     -0.000  -0.000  -0.000
   13  5 2Ppx       0.01761   0.00000     -0.000  -0.000   0.000
   13     Total     1.16688   0.00000      0.000   0.000   0.000

   18  1 1s         1.05013   0.00000     -0.000  -0.000  -0.000
   18  2 1s         0.08392   0.00000      0.000   0.000   0.000
   18  3 2Ppy       0.02781   0.00000     -0.000  -0.000   0.000
   18  4 2Ppz       0.01891   0.00000      0.000  -0.000  -0.000
   18  5 2Ppx       0.01767   0.00000     -0.000  -0.000   0.000
   18     Total     1.19843   0.00000     -0.000  -0.000  -0.000

   21  1 1s         1.06629   0.00000      0.000  -0.000  -0.000
   21  2 1s         0.08292   0.00000     -0.000   0.000   0.000
   21  3 2Ppy       0.02229   0.00000     -0.000  -0.000   0.000
   21  4 2Ppz       0.02109   0.00000     -0.000   0.000   0.000
   21  5 2Ppx       0.01159   0.00000     -0.000   0.000  -0.000
   21     Total     1.20418   0.00000     -0.000  -0.000  -0.000

   22  1 1s         1.05238   0.00000      0.000  -0.000  -0.000
   22  2 1s         0.08341   0.00000     -0.000  -0.000   0.000
   22  3 2Ppy       0.02011   0.00000      0.000   0.000   0.000
   22  4 2Ppz       0.01768   0.00000      0.000   0.000  -0.000
   22  5 2Ppx       0.01709   0.00000     -0.000  -0.000   0.000
   22     Total     1.19068   0.00000      0.000  -0.000  -0.000

   23  1 1s         1.06497   0.00000      0.000  -0.000  -0.000
   23  2 1s         0.08210   0.00000     -0.000  -0.000   0.000
   23  3 2Ppy       0.01685   0.00000      0.000   0.000  -0.000
   23  4 2Ppz       0.02462   0.00000     -0.000  -0.000   0.000
   23  5 2Ppx       0.01349   0.00000     -0.000   0.000   0.000
   23     Total     1.20202   0.00000      0.000  -0.000  -0.000

   27  1 1s         0.46238   0.00000     -0.000   0.000   0.000
   27  2 1s         0.19065   0.00000     -0.000  -0.000   0.000
   27  3 2Ppy       0.02089   0.00000     -0.000   0.000  -0.000
   27  4 2Ppz       0.02518   0.00000      0.000   0.000  -0.000
   27  5 2Ppx       0.02908   0.00000      0.000  -0.000   0.000
   27     Total     0.72818   0.00000     -0.000   0.000   0.000

   30  1 1s         0.48357   0.00000     -0.000  -0.000   0.000
   30  2 1s         0.18900   0.00000     -0.000   0.000   0.000
   30  3 2Ppy       0.02653   0.00000      0.000  -0.000  -0.000
   30  4 2Ppz       0.03451   0.00000      0.000  -0.000   0.000
   30  5 2Ppx       0.02315   0.00000      0.000  -0.000   0.000
   30     Total     0.75676   0.00000     -0.000  -0.000   0.000

----------------------------------------------------------------
Total              10.95060   0.00000      0.000  -0.000  -0.000


Species: N                   

Atom      Orb        Charge      Spin       Svec
----------------------------------------------------------------
    2  1 2s         1.38103   0.00000     -0.000  -0.000  -0.000
    2  2 2s         0.12663   0.00000      0.000   0.000   0.000
    2  3 2py        1.06830   0.00000      0.000  -0.000  -0.000
    2  4 2pz        1.49534   0.00000      0.000   0.000  -0.000
    2  5 2px        1.01734   0.00000      0.000  -0.000  -0.000
    2  6 2py        0.19600   0.00000     -0.000   0.000   0.000
    2  7 2pz        0.01430   0.00000     -0.000   0.000   0.000
    2  8 2px        0.20996   0.00000     -0.000   0.000   0.000
    2  9 3Pdxy      0.00674   0.00000      0.000   0.000   0.000
    2 10 3Pdyz      0.00607   0.00000     -0.000   0.000   0.000
    2 11 3Pdz2      0.00151   0.00000      0.000   0.000   0.000
    2 12 3Pdxz      0.00304   0.00000     -0.000  -0.000   0.000
    2 13 3Pdx2-y2   0.00297   0.00000     -0.000  -0.000  -0.000
    2     Total     5.52922   0.00000      0.000   0.000  -0.000

    5  1 2s         1.55809   0.00000      0.000   0.000  -0.000
    5  2 2s         0.08116   0.00000     -0.000   0.000   0.000
    5  3 2py        0.90446   0.00000     -0.000  -0.000  -0.000
    5  4 2pz        1.22242   0.00000     -0.000   0.000  -0.000
    5  5 2px        1.14202   0.00000      0.000  -0.000  -0.000
    5  6 2py        0.23017   0.00000      0.000   0.000   0.000
    5  7 2pz        0.05522   0.00000      0.000  -0.000   0.000
    5  8 2px        0.14625   0.00000      0.000   0.000   0.000
    5  9 3Pdxy      0.00854   0.00000     -0.000   0.000  -0.000
    5 10 3Pdyz      0.00701   0.00000     -0.000   0.000   0.000
    5 11 3Pdz2      0.00189   0.00000      0.000  -0.000   0.000
    5 12 3Pdxz      0.01129   0.00000      0.000   0.000   0.000
    5 13 3Pdx2-y2   0.00920   0.00000      0.000  -0.000   0.000
    5     Total     5.37772   0.00000      0.000   0.000  -0.000

    8  1 2s         1.28478   0.00000     -0.000  -0.000  -0.000
    8  2 2s         0.17161   0.00000      0.000   0.000   0.000
    8  3 2py        1.06500   0.00000      0.000   0.000  -0.000
    8  4 2pz        1.57017   0.00000      0.000  -0.000  -0.000
    8  5 2px        1.00406   0.00000      0.000   0.000  -0.000
    8  6 2py        0.19427   0.00000     -0.000  -0.000   0.000
    8  7 2pz        0.02727   0.00000     -0.000  -0.000   0.000
    8  8 2px        0.22861   0.00000     -0.000  -0.000   0.000
    8  9 3Pdxy      0.00271   0.00000     -0.000   0.000   0.000
    8 10 3Pdyz      0.00083   0.00000      0.000  -0.000  -0.000
    8 11 3Pdz2      0.00271   0.00000     -0.000   0.000   0.000
    8 12 3Pdxz      0.00243   0.00000      0.000  -0.000  -0.000
    8 13 3Pdx2-y2   0.00430   0.00000     -0.000  -0.000  -0.000
    8     Total     5.55876   0.00000      0.000   0.000  -0.000

   11  1 2s         1.45800   0.00000      0.000   0.000   0.000
   11  2 2s         0.11417   0.00000     -0.000  -0.000   0.000
   11  3 2py        1.22646   0.00000     -0.000  -0.000   0.000
   11  4 2pz        1.28919   0.00000      0.000  -0.000   0.000
   11  5 2px        0.80052   0.00000     -0.000  -0.000   0.000
   11  6 2py        0.11003   0.00000      0.000   0.000  -0.000
   11  7 2pz        0.04579   0.00000     -0.000  -0.000  -0.000
   11  8 2px        0.31727   0.00000     -0.000   0.000  -0.000
   11  9 3Pdxy      0.00736   0.00000      0.000   0.000   0.000
   11 10 3Pdyz      0.00603   0.00000      0.000  -0.000   0.000
   11 11 3Pdz2      0.00053   0.00000      0.000   0.000  -0.000
   11 12 3Pdxz      0.00496   0.00000      0.000  -0.000  -0.000
   11 13 3Pdx2-y2   0.00516   0.00000      0.000  -0.000   0.000
   11     Total     5.38549   0.00000      0.000  -0.000   0.000

   14  1 2s         1.50651   0.00000     -0.000  -0.000   0.000
   14  2 2s         0.10230   0.00000      0.000   0.000   0.000
   14  3 2py        0.84451   0.00000      0.000   0.000   0.000
   14  4 2pz        1.23734   0.00000     -0.000   0.000   0.000
   14  5 2px        1.17680   0.00000      0.000  -0.000   0.000
   14  6 2py        0.27722   0.00000     -0.000  -0.000  -0.000
   14  7 2pz        0.05441   0.00000     -0.000  -0.000  -0.000
   14  8 2px        0.13211   0.00000     -0.000  -0.000   0.000
   14  9 3Pdxy      0.00950   0.00000     -0.000  -0.000   0.000
   14 10 3Pdyz      0.00490   0.00000      0.000   0.000  -0.000
   14 11 3Pdz2      0.00147   0.00000      0.000   0.000   0.000
   14 12 3Pdxz      0.01066   0.00000     -0.000  -0.000  -0.000
   14 13 3Pdx2-y2   0.00791   0.00000     -0.000   0.000   0.000
   14     Total     5.36564   0.00000      0.000   0.000   0.000

   16  1 2s         1.37875   0.00000     -0.000  -0.000  -0.000
   16  2 2s         0.12583   0.00000      0.000  -0.000   0.000
   16  3 2py        0.99135   0.00000      0.000  -0.000   0.000
   16  4 2pz        1.54747   0.00000      0.000   0.000  -0.000
   16  5 2px        1.08036   0.00000      0.000   0.000  -0.000
   16  6 2py        0.23953   0.00000     -0.000  -0.000  -0.000
   16  7 2pz        0.00319   0.00000      0.000  -0.000   0.000
   16  8 2px        0.18045   0.00000     -0.000  -0.000   0.000
   16  9 3Pdxy      0.00153   0.00000     -0.000   0.000   0.000
   16 10 3Pdyz      0.00476   0.00000     -0.000   0.000  -0.000
   16 11 3Pdz2      0.00088   0.00000     -0.000   0.000   0.000
   16 12 3Pdxz      0.00237   0.00000      0.000  -0.000  -0.000
   16 13 3Pdx2-y2   0.00609   0.00000      0.000   0.000   0.000
   16     Total     5.56257   0.00000      0.000  -0.000  -0.000

   26  1 2s         1.37243   0.00000      0.000  -0.000   0.000
   26  2 2s         0.12569   0.00000     -0.000   0.000  -0.000
   26  3 2py        1.11416   0.00000     -0.000  -0.000  -0.000
   26  4 2pz        1.53004   0.00000      0.000  -0.000  -0.000
   26  5 2px        0.94587   0.00000      0.000   0.000   0.000
   26  6 2py        0.16906   0.00000      0.000   0.000   0.000
   26  7 2pz        0.00495   0.00000     -0.000   0.000   0.000
   26  8 2px        0.26527   0.00000     -0.000   0.000   0.000
   26  9 3Pdxy      0.00065   0.00000     -0.000  -0.000   0.000
   26 10 3Pdyz      0.00080   0.00000      0.000  -0.000  -0.000
   26 11 3Pdz2     -0.00128   0.00000     -0.000  -0.000  -0.000
   26 12 3Pdxz      0.00468   0.00000     -0.000   0.000  -0.000
   26 13 3Pdx2-y2   0.00216   0.00000     -0.000  -0.000   0.000
   26     Total     5.53447   0.00000      0.000  -0.000  -0.000

----------------------------------------------------------------
Total              49.26448   0.00000      0.000  -0.000   0.000


Species: Si                  

Atom      Orb        Charge      Spin       Svec
----------------------------------------------------------------
    3  1 3s         0.55110   0.00000      0.000  -0.000   0.000
    3  2 3s         0.38741   0.00000     -0.000   0.000   0.000
    3  3 3py        0.08205   0.00000     -0.000  -0.000   0.000
    3  4 3pz        0.53629   0.00000     -0.000  -0.000   0.000
    3  5 3px        0.36844   0.00000     -0.000  -0.000   0.000
    3  6 3py        0.49880   0.00000      0.000   0.000  -0.000
    3  7 3pz        0.17586   0.00000     -0.000   0.000   0.000
    3  8 3px        0.23718   0.00000      0.000   0.000   0.000
    3  9 3Pdxy      0.10817   0.00000      0.000   0.000   0.000
    3 10 3Pdyz      0.05211   0.00000      0.000  -0.000   0.000
    3 11 3Pdz2      0.01015   0.00000     -0.000   0.000  -0.000
    3 12 3Pdxz      0.13302   0.00000     -0.000  -0.000   0.000
    3 13 3Pdx2-y2   0.32443   0.00000      0.000  -0.000   0.000
    3     Total     3.46501   0.00000     -0.000  -0.000   0.000

    6  1 3s         0.66188   0.00000     -0.000  -0.000   0.000
    6  2 3s         0.37033   0.00000      0.000   0.000  -0.000
    6  3 3py        0.13105   0.00000      0.000   0.000  -0.000
    6  4 3pz        0.69518   0.00000     -0.000  -0.000   0.000
    6  5 3px        0.49073   0.00000     -0.000  -0.000   0.000
    6  6 3py        0.46528   0.00000     -0.000  -0.000   0.000
    6  7 3pz        0.24290   0.00000      0.000  -0.000   0.000
    6  8 3px        0.24552   0.00000      0.000   0.000   0.000
    6  9 3Pdxy      0.18490   0.00000      0.000   0.000   0.000
    6 10 3Pdyz      0.14711   0.00000     -0.000  -0.000  -0.000
    6 11 3Pdz2      0.01169   0.00000     -0.000   0.000  -0.000
    6 12 3Pdxz      0.03654   0.00000      0.000  -0.000  -0.000
    6 13 3Pdx2-y2   0.18862   0.00000      0.000   0.000  -0.000
    6     Total     3.87173   0.00000     -0.000  -0.000   0.000

    7  1 3s         0.62629   0.00000     -0.000   0.000  -0.000
    7  2 3s         0.36977   0.00000      0.000   0.000  -0.000
    7  3 3py        0.37307   0.00000      0.000   0.000  -0.000
    7  4 3pz        0.49291   0.00000     -0.000  -0.000  -0.000
    7  5 3px        0.07998   0.00000      0.000   0.000  -0.000
    7  6 3py        0.30313   0.00000     -0.000  -0.000   0.000
    7  7 3pz        0.20835   0.00000      0.000   0.000  -0.000
    7  8 3px        0.42186   0.00000     -0.000  -0.000   0.000
    7  9 3Pdxy      0.20446   0.00000     -0.000   0.000  -0.000
    7 10 3Pdyz      0.14277   0.00000      0.000  -0.000  -0.000
    7 11 3Pdz2      0.01067   0.00000     -0.000  -0.000  -0.000
    7 12 3Pdxz      0.15054   0.00000      0.000  -0.000  -0.000
    7 13 3Pdx2-y2   0.24170   0.00000     -0.000  -0.000  -0.000
    7     Total     3.62551   0.00000      0.000   0.000  -0.000

   12  1 3s         0.52932   0.00000      0.000   0.000  -0.000
   12  2 3s         0.40157   0.00000     -0.000  -0.000  -0.000
   12  3 3py        0.23028   0.00000     -0.000  -0.000  -0.000
   12  4 3pz        0.43798   0.00000      0.000  -0.000  -0.000
   12  5 3px        0.29027   0.00000     -0.000  -0.000  -0.000
   12  6 3py        0.39504   0.00000      0.000  -0.000  -0.000
   12  7 3pz        0.17008   0.00000     -0.000   0.000  -0.000
   12  8 3px        0.34389   0.00000      0.000   0.000  -0.000
   12  9 3Pdxy      0.38685   0.00000     -0.000   0.000  -0.000
   12 10 3Pdyz      0.08034   0.00000     -0.000   0.000  -0.000
   12 11 3Pdz2      0.01044   0.00000      0.000  -0.000  -0.000
   12 12 3Pdxz      0.09261   0.00000     -0.000   0.000  -0.000
   12 13 3Pdx2-y2   0.16491   0.00000      0.000  -0.000  -0.000
   12     Total     3.53359   0.00000     -0.000  -0.000  -0.000

   15  1 3s         0.66123   0.00000     -0.000   0.000  -0.000
   15  2 3s         0.36704   0.00000      0.000  -0.000   0.000
   15  3 3py       -0.03271   0.00000     -0.000   0.000  -0.000
   15  4 3pz        0.51066   0.00000      0.000  -0.000  -0.000
   15  5 3px        0.38888   0.00000     -0.000  -0.000  -0.000
   15  6 3py        0.47443   0.00000     -0.000  -0.000   0.000
   15  7 3pz        0.20018   0.00000     -0.000   0.000  -0.000
   15  8 3px        0.34010   0.00000      0.000   0.000  -0.000
   15  9 3Pdxy      0.14147   0.00000     -0.000  -0.000   0.000
   15 10 3Pdyz      0.12585   0.00000      0.000  -0.000  -0.000
   15 11 3Pdz2      0.01386   0.00000     -0.000   0.000   0.000
   15 12 3Pdxz      0.12465   0.00000     -0.000   0.000   0.000
   15 13 3Pdx2-y2   0.30195   0.00000     -0.000   0.000  -0.000
   15     Total     3.61760   0.00000     -0.000   0.000  -0.000

   17  1 3s         0.73162   0.00000      0.000   0.000  -0.000
   17  2 3s         0.35636   0.00000     -0.000   0.000   0.000
   17  3 3py        0.09589   0.00000      0.000  -0.000  -0.000
   17  4 3pz        0.62652   0.00000     -0.000  -0.000   0.000
   17  5 3px        0.35538   0.00000     -0.000   0.000  -0.000
   17  6 3py        0.45309   0.00000     -0.000  -0.000   0.000
   17  7 3pz        0.15100   0.00000      0.000   0.000   0.000
   17  8 3px        0.33537   0.00000      0.000  -0.000   0.000
   17  9 3Pdxy      0.15106   0.00000      0.000  -0.000   0.000
   17 10 3Pdyz      0.02343   0.00000      0.000  -0.000  -0.000
   17 11 3Pdz2      0.00916   0.00000     -0.000   0.000  -0.000
   17 12 3Pdxz      0.12873   0.00000      0.000   0.000  -0.000
   17 13 3Pdx2-y2   0.12694   0.00000      0.000   0.000  -0.000
   17     Total     3.54456   0.00000      0.000   0.000   0.000

   19  1 3s         0.86249   0.00000      0.000   0.000   0.000
   19  2 3s         0.31292   0.00000     -0.000  -0.000  -0.000
   19  3 3py        0.44648   0.00000      0.000   0.000   0.000
   19  4 3pz        0.66017   0.00000      0.000   0.000  -0.000
   19  5 3px        0.35331   0.00000     -0.000  -0.000  -0.000
   19  6 3py        0.32162   0.00000      0.000  -0.000  -0.000
   19  7 3pz        0.26821   0.00000      0.000  -0.000  -0.000
   19  8 3px        0.35638   0.00000      0.000   0.000   0.000
   19  9 3Pdxy      0.09340   0.00000     -0.000   0.000   0.000
   19 10 3Pdyz      0.02938   0.00000     -0.000   0.000  -0.000
   19 11 3Pdz2      0.01454   0.00000      0.000  -0.000  -0.000
   19 12 3Pdxz      0.05650   0.00000     -0.000   0.000  -0.000
   19 13 3Pdx2-y2   0.13126   0.00000      0.000   0.000   0.000
   19     Total     3.90664   0.00000      0.000   0.000   0.000

   20  1 3s         0.54047   0.00000      0.000   0.000   0.000
   20  2 3s         0.44402   0.00000     -0.000  -0.000   0.000
   20  3 3py        0.31072   0.00000     -0.000  -0.000  -0.000
   20  4 3pz        0.25490   0.00000     -0.000   0.000  -0.000
   20  5 3px        0.45508   0.00000      0.000   0.000  -0.000
   20  6 3py        0.38733   0.00000      0.000   0.000   0.000
   20  7 3pz        0.42310   0.00000      0.000  -0.000   0.000
   20  8 3px        0.27761   0.00000      0.000  -0.000   0.000
   20  9 3Pdxy      0.06998   0.00000     -0.000  -0.000  -0.000
   20 10 3Pdyz      0.08424   0.00000     -0.000  -0.000  -0.000
   20 11 3Pdz2      0.05093   0.00000     -0.000  -0.000  -0.000
   20 12 3Pdxz      0.07242   0.00000      0.000   0.000  -0.000
   20 13 3Pdx2-y2   0.04582   0.00000      0.000   0.000   0.000
   20     Total     3.41662   0.00000     -0.000   0.000   0.000

   24  1 3s         0.60530   0.00000     -0.000  -0.000  -0.000
   24  2 3s         0.36950   0.00000      0.000   0.000  -0.000
   24  3 3py        0.27064   0.00000     -0.000   0.000  -0.000
   24  4 3pz        0.40999   0.00000     -0.000  -0.000  -0.000
   24  5 3px        0.16822   0.00000      0.000  -0.000   0.000
   24  6 3py        0.39796   0.00000      0.000   0.000  -0.000
   24  7 3pz        0.19293   0.00000     -0.000  -0.000  -0.000
   24  8 3px        0.36000   0.00000     -0.000   0.000  -0.000
   24  9 3Pdxy      0.14237   0.00000      0.000   0.000  -0.000
   24 10 3Pdyz      0.14035   0.00000     -0.000  -0.000  -0.000
   24 11 3Pdz2      0.01526   0.00000     -0.000  -0.000  -0.000
   24 12 3Pdxz      0.12127   0.00000     -0.000  -0.000  -0.000
   24 13 3Pdx2-y2   0.34910   0.00000     -0.000  -0.000  -0.000
   24     Total     3.54288   0.00000     -0.000  -0.000  -0.000

   28  1 3s         0.43356   0.00000      0.000  -0.000  -0.000
   28  2 3s         0.37776   0.00000     -0.000  -0.000  -0.000
   28  3 3py        0.16088   0.00000     -0.000  -0.000  -0.000
   28  4 3pz        0.39960   0.00000      0.000  -0.000  -0.000
   28  5 3px        0.16758   0.00000      0.000   0.000  -0.000
   28  6 3py        0.36863   0.00000      0.000   0.000  -0.000
   28  7 3pz        0.20465   0.00000     -0.000   0.000  -0.000
   28  8 3px        0.38527   0.00000     -0.000  -0.000  -0.000
   28  9 3Pdxy      0.14394   0.00000     -0.000  -0.000  -0.000
   28 10 3Pdyz      0.12371   0.00000     -0.000  -0.000  -0.000
   28 11 3Pdz2      0.01558   0.00000      0.000  -0.000  -0.000
   28 12 3Pdxz      0.15670   0.00000      0.000   0.000  -0.000
   28 13 3Pdx2-y2   0.35128   0.00000     -0.000   0.000  -0.000
   28     Total     3.28912   0.00000      0.000   0.000  -0.000

----------------------------------------------------------------
Total              85.07774   0.00000      0.000  -0.000  -0.000


Species: O                   

Atom      Orb        Charge      Spin       Svec
----------------------------------------------------------------
   25  1 2s         1.74117   0.00000     -0.000  -0.000   0.000
   25  2 2s         0.06821   0.00000      0.000   0.000   0.000
   25  3 2py        1.46800   0.00000     -0.000   0.000   0.000
   25  4 2pz        1.51138   0.00000      0.000   0.000   0.000
   25  5 2px        1.59206   0.00000     -0.000   0.000   0.000
   25  6 2py        0.03346   0.00000      0.000  -0.000   0.000
   25  7 2pz       -0.00062   0.00000     -0.000  -0.000   0.000
   25  8 2px        0.02306   0.00000      0.000  -0.000   0.000
   25  9 3Pdxy      0.00722   0.00000     -0.000   0.000  -0.000
   25 10 3Pdyz      0.00618   0.00000     -0.000  -0.000  -0.000
   25 11 3Pdz2      0.00135   0.00000     -0.000   0.000  -0.000
   25 12 3Pdxz      0.00441   0.00000     -0.000   0.000  -0.000
   25 13 3Pdx2-y2   0.00736   0.00000     -0.000   0.000  -0.000
   25     Total     6.46321   0.00000     -0.000   0.000   0.000

   29  1 2s         1.73524   0.00000     -0.000  -0.000  -0.000
   29  2 2s         0.07284   0.00000      0.000   0.000   0.000
   29  3 2py        1.48349   0.00000      0.000   0.000   0.000
   29  4 2pz        1.52837   0.00000     -0.000   0.000   0.000
   29  5 2px        1.52533   0.00000      0.000  -0.000   0.000
   29  6 2py        0.04236   0.00000     -0.000   0.000   0.000
   29  7 2pz        0.00535   0.00000      0.000  -0.000   0.000
   29  8 2px        0.03751   0.00000      0.000   0.000   0.000
   29  9 3Pdxy      0.00816   0.00000     -0.000  -0.000  -0.000
   29 10 3Pdyz      0.00485   0.00000      0.000  -0.000  -0.000
   29 11 3Pdz2      0.00139   0.00000     -0.000   0.000   0.000
   29 12 3Pdxz      0.00627   0.00000      0.000  -0.000  -0.000
   29 13 3Pdx2-y2   0.00787   0.00000      0.000   0.000   0.000
   29     Total     6.45904   0.00000     -0.000  -0.000   0.000

----------------------------------------------------------------
Total              98.00000   0.00000      0.000  -0.000   0.000


siesta: Eigenvalues (eV):
ik =     1
  -22.9285  -22.9285  -22.5424  -22.5424  -21.9789  -21.9789  -21.2521  -21.2521  -21.0554  -21.0554
  -20.7650  -20.7650  -19.4621  -19.4621  -19.2756  -19.2756  -18.6709  -18.6709  -15.3162  -15.3162
  -14.3785  -14.3785  -13.6813  -13.6813  -13.6563  -13.6563  -13.3031  -13.3031  -12.9465  -12.9465
  -12.5312  -12.5312  -12.0311  -12.0311  -12.0273  -12.0273  -11.5610  -11.5610  -11.4946  -11.4946
  -10.9563  -10.9563  -10.7636  -10.7636  -10.2395  -10.2395   -9.8386   -9.8386   -9.5776   -9.5776
   -9.3396   -9.3396   -9.1818   -9.1818   -9.1630   -9.1630   -8.8708   -8.8708   -8.7283   -8.7283
   -8.4044   -8.4044   -8.2126   -8.2126   -8.1780   -8.1780   -8.1295   -8.1295   -7.9696   -7.9696
   -7.9348   -7.9348   -7.3747   -7.3747   -7.3737   -7.3737   -7.3188   -7.3188   -6.8304   -6.8304
   -6.7848   -6.7848   -6.6486   -6.6486   -6.4194   -6.4194   -6.3789   -6.3789   -6.1660   -6.1660
   -5.9494   -5.9494   -5.7833   -5.7833   -5.5945   -5.5945   -4.2662   -4.2662   -3.7303   -3.7303
   -2.8493   -2.8493   -2.4749   -2.4749   -2.2570   -2.2570   -2.1843   -2.1843   -2.0882   -2.0882
   -1.9649   -1.9649   -1.6954   -1.6954   -1.6171   -1.6171   -1.5923   -1.5923   -1.3927   -1.3927
   -1.0932   -1.0932   -0.6587   -0.6587   -0.3976   -0.3976   -0.2756   -0.2756   -0.2096   -0.2096
   -0.2054   -0.2054   -0.0727   -0.0727    0.2584    0.2584    0.4030    0.4030    0.5361    0.5361
    0.5799    0.5799    0.7241    0.7241    1.0594    1.0594    1.2285    1.2285    1.2831    1.2831
    1.3522    1.3522    1.5441    1.5441    1.8688    1.8688    2.0204    2.0204    2.1914    2.1914
    2.5025    2.5025    2.6211    2.6211    2.6641    2.6641    2.8378    2.8378    2.9728    2.9728
    3.0003    3.0003    3.0881    3.0881    3.1187    3.1187    3.2632    3.2632    3.5497    3.5497
    3.7565    3.7565    3.9115    3.9115    4.1750    4.1750    4.2911    4.2911    4.3870    4.3870
    4.4546    4.4546    4.6299    4.6299    4.6797    4.6797    4.8451    4.8451    4.9957    4.9957
    5.0914    5.0914    5.2665    5.2665    5.4508    5.4508    5.5835    5.5835    5.8507    5.8507
    5.8924    5.8924    6.0182    6.0182    6.0993    6.0993    6.3213    6.3213    6.4246    6.4246
    6.5237    6.5237    6.6774    6.6774    6.7917    6.7917    6.9793    6.9793    7.1458    7.1458
    7.2070    7.2070    7.5388    7.5388    7.7109    7.7109    7.7613    7.7613    7.8782    7.8782
    7.9963    7.9963    8.2748    8.2748    8.3240    8.3240    8.3876    8.3876    8.5011    8.5011
    8.5446    8.5446    8.9484    8.9484    8.9592    8.9592    9.3567    9.3567    9.6399    9.6399
    9.6655    9.6655    9.8741    9.8741    9.8903    9.8903    9.9171    9.9171    9.9860    9.9860
   10.0019   10.0019   10.4496   10.4496   10.6531   10.6531   10.9500   10.9500   11.1015   11.1015
   11.3580   11.3580   11.3858   11.3858   11.5215   11.5215   11.7548   11.7548   11.8351   11.8351
   11.9401   11.9401   12.3019   12.3019   12.4676   12.4676   12.6688   12.6688   12.7579   12.7579
   12.8899   12.8899   13.1165   13.1165   13.2928   13.2928   13.3141   13.3141   13.4321   13.4321
   13.6685   13.6685   13.9517   13.9517   14.3545   14.3545   14.5610   14.5610   14.7876   14.7876
   14.8184   14.8184   15.1788   15.1788   15.5538   15.5538   16.0743   16.0743   16.2977   16.2977
   16.4255   16.4255   16.8406   16.8406   16.8885   16.8885   17.1864   17.1864   17.3761   17.3761
   17.9416   17.9416   18.0418   18.0418   18.3607   18.3607   18.6116   18.6116   18.7565   18.7565
   18.8032   18.8032   19.7699   19.7699   19.9599   19.9599   20.3480   20.3480   20.4233   20.4233
   20.9007   20.9007   21.0927   21.0927   21.3014   21.3014   21.7045   21.7045   22.2543   22.2543
   22.4869   22.4869   22.8318   22.8318   22.9880   22.9880   23.0643   23.0643   23.0739   23.0739
   24.2999   24.2999   24.6762   24.6762   25.1208   25.1208   25.6290   25.6290   25.8811   25.8811
   26.1715   26.1715   26.6222   26.6222   27.0244   27.0244   27.9531   27.9531   28.1536   28.1536
   28.5058   28.5058   28.5667   28.5667   29.8034   29.8034   30.1732   30.1732   30.5985   30.5985
   30.8035   30.8035   30.8625   30.8625   31.3297   31.3297   31.4957   31.4957   31.6431   31.6431
   31.8697   31.8697   32.3959   32.3959   32.6243   32.6243   33.4590   33.4590   33.7707   33.7707
   34.0957   34.0957   34.2625   34.2625   34.4523   34.4523   35.0173   35.0173   35.4717   35.4717
   35.9408   35.9408   36.2812   36.2812   36.3869   36.3869   37.2078   37.2078   37.4322   37.4322
   37.7506   37.7506   37.9680   37.9680   38.5334   38.5334   38.8703   38.8703   38.9513   38.9513
   39.8528   39.8528   40.5669   40.5669   40.8366   40.8366   41.4598   41.4598   41.5794   41.5794
   41.8749   41.8749   41.9463   41.9463   42.3540   42.3540   42.9109   42.9109   43.3412   43.3412
   43.9232   43.9232   44.5883   44.5883   44.7731   44.7731   44.9904   44.9904   45.2793   45.2793
   45.3580   45.3580   45.8116   45.8116   46.5010   46.5010   46.5977   46.5977   47.1354   47.1354
   47.7924   47.7924   48.0231   48.0231   48.8460   48.8460   48.9209   48.9209   49.2306   49.2306
   49.9354   49.9354   50.2337   50.2337   50.4272   50.4272   50.6468   50.6468   50.9982   50.9982
   52.0513   52.0513   52.2582   52.2582   54.0251   54.0251   54.2619   54.2619   54.8979   54.8979
   55.2322   55.2322   55.4592   55.4592   56.2851   56.2851   56.4601   56.4601   56.9279   56.9279
   56.9959   56.9959   57.8397   57.8397   58.8985   58.8985   59.0093   59.0093   59.7330   59.7330
   60.4802   60.4802   61.4049   61.4049   61.6759   61.6759   62.2900   62.2900   62.9454   62.9454
   65.6696   65.6696   66.3496   66.3496   67.1475   67.1475   67.4402   67.4402   68.1767   68.1767
   69.0129   69.0129   71.4310   71.4310   73.7037   73.7037   79.3376   79.3376   91.6900   91.6900
   92.4862   92.4862   92.9898   92.9898   95.6120   95.6120   97.8545   97.8545  100.4599  100.4599
  100.9394  100.9394  103.0522  103.0522  113.5491  113.5491  120.4634  120.4634  123.1147  123.1147
  135.7625  135.7625  140.5307  140.5307
siesta: Fermi energy =      -3.998244 eV

siesta: Program's energy decomposition (eV):
siesta: Ebs     =     -1118.469682
siesta: Eions   =      3553.971015
siesta: Ena     =       377.804943
siesta: Ekin    =      2751.297888
siesta: Enl     =     -2532.146305
siesta: Eso     =        -0.004696
siesta: Edftu   =         0.000000
siesta: DEna    =        37.152436
siesta: DUscf   =        14.113981
siesta: DUext   =         0.000000
siesta: Exc     =     -1093.035432
siesta: eta*DQ  =         0.000000
siesta: Emadel  =         0.000000
siesta: Emeta   =         0.000000
siesta: Emolmec =         0.000000
siesta: Ekinion =         0.000000
siesta: Eharris =     -3998.788200
siesta: Etot    =     -3998.788200
siesta: FreeEng =     -3998.788237

siesta: Final energy (eV):
siesta:  Band Struct. =   -1118.469682
siesta:       Kinetic =    2751.297888
siesta:       Hartree =    7202.854259
siesta:       Edftu   =       0.000000
siesta:       Eso     =      -0.004696
siesta:    Ext. field =       0.000000
siesta:   Exch.-corr. =   -1093.035432
siesta:  Ion-electron =  -16856.896633
siesta:       Ion-ion =    3996.996414
siesta:       Ekinion =       0.000000
siesta:         Total =   -3998.788200
siesta:         Fermi =      -3.998244

siesta: Atomic forces (eV/Ang):
siesta:      1   -0.035551   -0.009877    0.000002
siesta:      2   -0.004811   -0.045113   -0.000002
siesta:      3   -0.002384    0.042316    0.000004
siesta:      4   -0.057111   -0.013131    0.000001
siesta:      5    0.016732   -0.037168   -0.000003
siesta:      6    0.030012    0.004889   -0.000000
siesta:      7   -0.104356    0.118520    0.000010
siesta:      8    0.070991   -0.062147   -0.000037
siesta:      9    0.013775    0.001791    0.000058
siesta:     10    0.098588    0.021302    0.000008
siesta:     11   -0.032712   -0.015937   -0.000012
siesta:     12    0.066027    0.069146   -0.000000
siesta:     13   -0.083453   -0.098973   -0.000001
siesta:     14   -0.013489   -0.057809    0.000001
siesta:     15   -0.000197    0.065640   -0.000000
siesta:     16    0.029901    0.023884    0.008392
siesta:     17   -0.002440   -0.048463   -0.039798
siesta:     18   -0.197055    0.043713    0.008263
siesta:     19   -0.000544    0.028714   -0.041149
siesta:     20    0.043552   -0.050568    0.027205
siesta:     21   -0.136808   -0.023714   -0.007372
siesta:     22   -0.030427    0.059136    0.027588
siesta:     23    0.032873    0.024790   -0.052743
siesta:     24    0.066971   -0.120101   -0.026621
siesta:     25   -4.919821    1.374707    0.003150
siesta:     26   -0.064124    0.090447    0.006525
siesta:     27    0.042180   -0.080506    0.002795
siesta:     28   -0.013053   -0.125994   -0.000873
siesta:     29    3.829654   -2.478606   -0.001099
siesta:     30   -0.013189    0.162759    0.008276
siesta: ----------------------------------------
siesta:    Tot   -1.370272   -1.136352   -0.077433

siesta: Stress tensor (static) (eV/Ang**3):
siesta:    -0.001099    0.000175    0.000030
siesta:     0.000175   -0.000169   -0.000027
siesta:     0.000030   -0.000027   -0.000134

siesta: Cell volume =       4430.029201 Ang**3

siesta: Pressure (static):
siesta:                Solid            Molecule  Units
siesta:           0.00000509         -0.00001159  Ry/Bohr**3
siesta:           0.00046718         -0.00106448  eV/Ang**3
siesta:           0.74851747         -1.70549972  kBar
(Free)E+ p_basis*V_orbitals  =       -3977.660152
(Free)Eharris+ p_basis*V_orbitals  =       -3977.660152
     spin moment: S , {S} =    0.00000   0.00000  -0.00000   0.00000

siesta: Electric dipole (a.u.)  =   -0.305280    2.585526   -0.013003
siesta: Electric dipole (Debye) =   -0.775945    6.571757   -0.033051

cite: Please see "AT.bib" for an exhaustive BiBTeX file.
cite: Please clearly indicate Siesta version in published work: v4.1.5-1-g384057250
cite: This calculation has made use of the following articles
cite: which are encouraged to be cited in a published work.
        Primary SIESTA paper
          DOI: www.doi.org/10.1088/0953-8984/14/11/302
        Spin-orbit coupling (on-site approximation)
          DOI: www.doi.org/10.1088/0953-8984/19/19/489001


WARNING: alloc-realloc-dealloc name mismatch
         Name: atomlist isa
         Size:              -120. Bytes
         Node:     0
         Subsequent mismatches will not be reported
>> End of run:  22-MAY-2023  10:24:30
Job completed
