<?xml version="1.0" encoding="UTF-8" ?>
<psml version="1.1" energy_unit="hartree" length_unit="bohr"
 uuid="b2c727b0-3e65-11ef-7b18-4b3656dbbbdf"
 xmlns="http://esl.cecam.org/PSML/ns/1.1">
<provenance creator="ATM4.2.7" date="10-JUL-24">
<annotation action="semilocal-pseudopotential-generation" />
<input-file name="INP">
<![CDATA[   pg  C
        tm2    2.000
   C    pbr 00000000
       0.0
    1    3
    2    0     1.000     1.000
    2    1     1.000     1.000
    3    2     0.000     0.000
   1.10338   0.99940   0.96341   0.00000   1.00000   0.00000
]]>
</input-file>
</provenance>
<pseudo-atom-spec atomic-label="C" atomic-number="6" z-pseudo="4"
 flavor="Troullier-Martins" relativity="dirac" spin-dft="no"
 core-corrections="no">
<annotation pseudo-energy="-5.36299164732" />
<exchange-correlation>
<annotation atom-xc-code="pb" siesta-xc-type="GGA" siesta-xc-authors="PBE" />
<libxc-info number-of-functionals="2">
<functional name="XC_GGA_X_PBE" type="XC_EXCHANGE" id="101" />
<functional name="XC_GGA_C_PBE" type="XC_CORRELATION" id="130" />
</libxc-info>
</exchange-correlation>
<valence-configuration total-valence-charge="4">
<shell n="2" l="s" occupation="2" />
<shell n="2" l="p" occupation="2" />
</valence-configuration>
</pseudo-atom-spec>
<grid npts="376">
<annotation type="sampled-log-atom"
 recipe="r(i:1..N) = a*(exp(b*(i-1))-1); resampled"
 recipe-cont="a: scale; b: step" scale="0.413125362778E-03"
 step="0.125000000000E-01" delta="0.500000000000E-02" rmax="20" />
<grid-data>
  0.000000000000E+00  5.011754802073E-03  1.010916406402E-02  1.528428587985E-02
  2.051294588609E-02  2.579306902283E-02  3.080490455088E-02  3.585705078143E-02
  4.120333662099E-02  4.674450415624E-02  5.235966953373E-02  5.790983282241E-02
  6.324301618788E-02  6.906387791697E-02  7.447503532343E-02  8.030763612978E-02
  8.551367796568E-02  9.105548065289E-02  9.695469890584E-02  1.032343840481E-01
  1.085485054922E-01  1.141350877691E-01  1.200081002442E-01  1.261822285081E-01
  1.326729110971E-01  1.377583943340E-01  1.430382040414E-01  1.485197658220E-01
  1.542107890253E-01  1.601192775907E-01  1.662535413039E-01  1.726222074842E-01
  1.792342331180E-01  1.860989174560E-01  1.932259150919E-01  2.006252495407E-01
  2.057145602314E-01  2.109327074357E-01  2.162829526653E-01  2.217686399978E-01
  2.273931981662E-01  2.331601427026E-01  2.390730781349E-01  2.451357002404E-01
  2.513517983552E-01  2.577252577429E-01  2.642600620232E-01  2.709602956615E-01
  2.778301465218E-01  2.848739084847E-01  2.920959841306E-01  2.995008874919E-01
  3.070932468743E-01  3.148778077495E-01  3.228594357215E-01  3.310431195676E-01
  3.394339743566E-01  3.480372446459E-01  3.568583077594E-01  3.659026771488E-01
  3.751760058394E-01  3.846840899635E-01  3.944328723831E-01  4.044284464046E-01
  4.095207264967E-01  4.146770595872E-01  4.198982513636E-01  4.251851176477E-01
  4.305384845232E-01  4.359591884645E-01  4.414480764677E-01  4.470060061826E-01
  4.526338460471E-01  4.583324754226E-01  4.641027847315E-01  4.699456755965E-01
  4.758620609811E-01  4.818528653325E-01  4.879190247262E-01  4.940614870118E-01
  5.002812119616E-01  5.065791714203E-01  5.129563494569E-01  5.194137425184E-01
  5.259523595855E-01  5.325732223306E-01  5.392773652769E-01  5.460658359603E-01
  5.529396950933E-01  5.599000167303E-01  5.669478884357E-01  5.740844114538E-01
  5.813107008809E-01  5.886278858393E-01  5.960371096542E-01  6.035395300317E-01
  6.111363192404E-01  6.188286642941E-01  6.266177671372E-01  6.345048448330E-01
  6.424911297534E-01  6.505778697716E-01  6.587663284573E-01  6.670577852738E-01
  6.754535357780E-01  6.839548918231E-01  6.925631817632E-01  7.012797506612E-01
  7.101059604987E-01  7.190431903889E-01  7.280928367922E-01  7.372563137342E-01
  7.465350530269E-01  7.559305044921E-01  7.654441361883E-01  7.750774346398E-01
  7.848319050690E-01  7.947090716318E-01  8.047104776556E-01  8.148376858804E-01
  8.250922787031E-01  8.354758584246E-01  8.459900475006E-01  8.566364887943E-01
  8.674168458339E-01  8.783328030721E-01  8.893860661494E-01  9.005783621608E-01
  9.119114399251E-01  9.233870702589E-01  9.350070462527E-01  9.467731835515E-01
  9.586873206382E-01  9.707513191208E-01  9.829670640237E-01  9.953364640819E-01
  1.007861452039E+00  1.020543984951E+00  1.033386044488E+00  1.046389637249E+00
  1.059556795071E+00  1.072889575350E+00  1.086390061359E+00  1.100060362577E+00
  1.113902615017E+00  1.127918981558E+00  1.142111652287E+00  1.156482844837E+00
  1.171034804735E+00  1.185769805757E+00  1.200690150274E+00  1.215798169622E+00
  1.231096224459E+00  1.246586705138E+00  1.262272032077E+00  1.278154656141E+00
  1.294237059022E+00  1.310521753628E+00  1.327011284476E+00  1.343708228089E+00
  1.360615193398E+00  1.377734822151E+00  1.395069789325E+00  1.412622803543E+00
  1.430396607500E+00  1.448393978389E+00  1.466617728335E+00  1.485070704837E+00
  1.503755791210E+00  1.522675907036E+00  1.541834008622E+00  1.561233089460E+00
  1.580876180697E+00  1.600766351605E+00  1.620906710064E+00  1.641300403046E+00
  1.661950617106E+00  1.682860578884E+00  1.704033555602E+00  1.725472855583E+00
  1.747181828758E+00  1.769163867202E+00  1.791422405650E+00  1.813960922046E+00
  1.836782938077E+00  1.859892019732E+00  1.883291777850E+00  1.906985868692E+00
  1.930977994508E+00  1.955271904115E+00  1.979871393487E+00  2.004780306344E+00
  2.030002534754E+00  2.055542019743E+00  2.081402751905E+00  2.107588772034E+00
  2.134104171748E+00  2.160953094132E+00  2.188139734386E+00  2.215668340476E+00
  2.243543213804E+00  2.271768709876E+00  2.300349238982E+00  2.329289266888E+00
  2.358593315533E+00  2.388265963734E+00  2.418311847902E+00  2.448735662769E+00
  2.479542162116E+00  2.510736159523E+00  2.542322529114E+00  2.574306206324E+00
  2.606692188669E+00  2.639485536522E+00  2.672691373913E+00  2.706314889320E+00
  2.740361336487E+00  2.774836035239E+00  2.809744372319E+00  2.845091802225E+00
  2.880883848065E+00  2.917126102420E+00  2.953824228214E+00  2.990983959606E+00
  3.028611102878E+00  3.066711537348E+00  3.105291216287E+00  3.144356167848E+00
  3.183912496009E+00  3.223966381527E+00  3.264524082903E+00  3.305591937361E+00
  3.347176361835E+00  3.389283853978E+00  3.431920993170E+00  3.475094441551E+00
  3.518810945061E+00  3.563077334491E+00  3.607900526556E+00  3.653287524970E+00
  3.699245421544E+00  3.745781397293E+00  3.792902723558E+00  3.840616763142E+00
  3.888930971461E+00  3.937852897708E+00  3.987390186033E+00  4.037550576739E+00
  4.088341907489E+00  4.139772114531E+00  4.191849233940E+00  4.244581402872E+00
  4.297976860836E+00  4.352043950980E+00  4.406791121398E+00  4.462226926445E+00
  4.518360028080E+00  4.575199197214E+00  4.632753315082E+00  4.691031374633E+00
  4.750042481932E+00  4.809795857584E+00  4.870300838176E+00  4.931566877735E+00
  4.993603549203E+00  5.056420545938E+00  5.120027683221E+00  5.184434899798E+00
  5.249652259429E+00  5.315689952456E+00  5.382558297406E+00  5.450267742592E+00
  5.518828867753E+00  5.588252385704E+00  5.658549144012E+00  5.729730126687E+00
  5.801806455904E+00  5.874789393735E+00  5.948690343913E+00  6.023520853612E+00
  6.099292615250E+00  6.176017468321E+00  6.253707401237E+00  6.332374553211E+00
  6.412031216143E+00  6.492689836549E+00  6.574363017504E+00  6.657063520608E+00
  6.740804267982E+00  6.825598344289E+00  6.911458998776E+00  6.998399647344E+00
  7.086433874648E+00  7.175575436213E+00  7.265838260591E+00  7.357236451531E+00
  7.449784290187E+00  7.543496237347E+00  7.638386935693E+00  7.734471212089E+00
  7.831764079900E+00  7.930280741335E+00  8.030036589820E+00  8.131047212412E+00
  8.233328392226E+00  8.336896110903E+00  8.441766551110E+00  8.547956099068E+00
  8.655481347109E+00  8.764359096272E+00  8.874606358927E+00  8.986240361432E+00
  9.099278546828E+00  9.213738577561E+00  9.329638338245E+00  9.446995938451E+00
  9.565829715545E+00  9.686158237545E+00  9.808000306028E+00  9.931374959066E+00
  1.005630147420E+01  1.018279937145E+01  1.031088841637E+01  1.044058862313E+01
  1.057192025766E+01  1.070490384079E+01  1.083956015147E+01  1.097591023004E+01
  1.111397538146E+01  1.125377717869E+01  1.139533746606E+01  1.153867836265E+01
  1.168382226575E+01  1.183079185441E+01  1.197961009291E+01  1.213030023442E+01
  1.228288582457E+01  1.243739070517E+01  1.259383901793E+01  1.275225520820E+01
  1.291266402885E+01  1.307509054407E+01  1.323956013335E+01  1.340609849538E+01
  1.357473165213E+01  1.374548595287E+01  1.391838807831E+01  1.409346504475E+01
  1.427074420834E+01  1.445025326929E+01  1.463202027626E+01  1.481607363073E+01
  1.500244209139E+01  1.519115477871E+01  1.538224117941E+01  1.557573115115E+01
  1.577165492712E+01  1.597004312082E+01  1.617092673079E+01  1.637433714552E+01
  1.658030614829E+01  1.678886592219E+01  1.700004905509E+01  1.721388854479E+01
  1.743041780416E+01  1.764967066632E+01  1.787168138998E+01  1.809648466477E+01
  1.832411561666E+01  1.855460981344E+01  1.878800327032E+01  1.902433245547E+01
  1.926363429584E+01  1.950594618280E+01  1.975130597809E+01  1.999975201968E+01
</grid-data>
</grid>
<valence-charge total-charge="4" is-unscreening-charge="yes"
 rescaled-to-z-pseudo="no">
<radfunc>
<data>
  6.116219482321E-01  6.121552770460E-01  6.137911949300E-01  6.165779932576E-01
  6.205420210529E-01  6.257110680667E-01  6.316950009259E-01  6.387816016341E-01
  6.474239685054E-01  6.576092064077E-01  6.691898998565E-01  6.818649903406E-01
  6.951773854218E-01  7.109522172138E-01  7.267601239678E-01  7.450064174893E-01
  7.623265401487E-01  7.818087533353E-01  8.036996939170E-01  8.282675354791E-01
  8.500430821088E-01  8.738746014903E-01  8.999277707558E-01  9.283752219657E-01
  9.593952218417E-01  9.844579106044E-01  1.011147512404E+00  1.039541229042E+00
  1.069715137556E+00  1.101743167896E+00  1.135695903281E+00  1.171639186163E+00
  1.209632513573E+00  1.249727207470E+00  1.291964348735E+00  1.336372468053E+00
  1.367191315078E+00  1.398981059494E+00  1.431737462766E+00  1.465451956600E+00
  1.500111219759E+00  1.535696743477E+00  1.572184389642E+00  1.609543946818E+00
  1.647738690307E+00  1.686724953551E+00  1.726451719476E+00  1.766860241645E+00
  1.807883706472E+00  1.849446949083E+00  1.891466236730E+00  1.933849134866E+00
  1.976494472001E+00  2.019292420239E+00  2.062124708709E+00  2.104864987040E+00
  2.147379355181E+00  2.189527074361E+00  2.231161471422E+00  2.272131045175E+00
  2.312280778558E+00  2.351453654138E+00  2.389492362845E+00  2.426241186674E+00
  2.444084161403E+00  2.461548025502E+00  2.478614681262E+00  2.495266526394E+00
  2.511486522209E+00  2.527258260916E+00  2.542566031390E+00  2.557394882673E+00
  2.571730684490E+00  2.585560183939E+00  2.598871057549E+00  2.611651957815E+00
  2.623892553330E+00  2.635583561593E+00  2.646716773587E+00  2.657285069215E+00
  2.667282422692E+00  2.676703897057E+00  2.685545626978E+00  2.693804789107E+00
  2.701479559335E+00  2.708569056377E+00  2.715073271259E+00  2.720992982401E+00
  2.726329656182E+00  2.731085333023E+00  2.735262499262E+00  2.738863945306E+00
  2.741892610776E+00  2.744351417662E+00  2.746243092748E+00  2.747569980883E+00
  2.748333850964E+00  2.748535696825E+00  2.748175535516E+00  2.747252205796E+00
  2.745763169943E+00  2.743704322295E+00  2.741069808179E+00  2.737851857155E+00
  2.734040634683E+00  2.729624116492E+00  2.724587990018E+00  2.718915587345E+00
  2.712587854013E+00  2.705583357988E+00  2.697878342829E+00  2.689446828846E+00
  2.680260765569E+00  2.670290238370E+00  2.659503731412E+00  2.647868448338E+00
  2.635350691201E+00  2.621916297121E+00  2.607531130964E+00  2.592161631014E+00
  2.575775403158E+00  2.558341857416E+00  2.539832878880E+00  2.520223523048E+00
  2.499492723302E+00  2.477623995767E+00  2.454606123925E+00  2.430433802207E+00
  2.405108214147E+00  2.378637516665E+00  2.351037197364E+00  2.322330266546E+00
  2.292547239645E+00  2.261725859031E+00  2.229910496324E+00  2.197151167457E+00
  2.163502116494E+00  2.129020185154E+00  2.093763647460E+00  2.057791602273E+00
  2.021163142824E+00  1.983936798934E+00  1.946170145759E+00  1.907919682806E+00
  1.869241061366E+00  1.830189525934E+00  1.790820057435E+00  1.751187118222E+00
  1.711344612646E+00  1.671345746053E+00  1.631242904214E+00  1.591087541832E+00
  1.550930073682E+00  1.510819772116E+00  1.470804670313E+00  1.430931471606E+00
  1.391245465120E+00  1.351790447891E+00  1.312608653613E+00  1.273740688122E+00
  1.235225466578E+00  1.197100143706E+00  1.159400082827E+00  1.122158866823E+00
  1.085408221257E+00  1.049178013736E+00  1.013496225633E+00  9.783889421546E-01
  9.438803463435E-01  9.099927198233E-01  8.767464496071E-01  8.441600407207E-01
  8.122501343656E-01  7.810315313346E-01  7.505172203823E-01  7.207184112467E-01
  6.916445720131E-01  6.633034705043E-01  6.357012193814E-01  6.088423246349E-01
  5.827297371468E-01  5.573649070060E-01  5.327478402599E-01  5.088771577903E-01
  4.857501560064E-01  4.633628690533E-01  4.417101322427E-01  4.207856464188E-01
  4.005820429849E-01  3.810909493240E-01  3.623030543605E-01  3.442081740087E-01
  3.267953163016E-01  3.100527459573E-01  2.939680481900E-01  2.785281915744E-01
  2.637195897840E-01  2.495281620448E-01  2.359393921385E-01  2.229383858502E-01
  2.105099267078E-01  1.986385299198E-01  1.873084944115E-01  1.765039528765E-01
  1.662089197720E-01  1.564073371964E-01  1.470831186027E-01  1.382201903062E-01
  1.298025307591E-01  1.218142075727E-01  1.142394122760E-01  1.070624928080E-01
  1.002679837501E-01  9.384063431137E-02  8.776543408550E-02  8.202763660735E-02
  7.661278074124E-02  7.150670993995E-02  6.669558941914E-02  6.216592129718E-02
  5.790455775574E-02  5.389871228119E-02  5.013596905184E-02  4.660429054018E-02
  4.329202340318E-02  4.018790273787E-02  3.728105478222E-02  3.456099814438E-02
  3.201764364585E-02  2.964129286594E-02  2.742263547643E-02  2.535274545610E-02
  2.342307627531E-02  2.162545514061E-02  1.995207638863E-02  1.839549411724E-02
  1.694861414045E-02  1.560468535128E-02  1.435729057398E-02  1.320033698449E-02
  1.212804617426E-02  1.113494392922E-02  1.021584979158E-02  9.365866468349E-03
  8.580369145962E-03  7.854994766377E-03  7.185631315405E-03  6.568407169805E-03
  5.999680545305E-03  5.476029083421E-03  4.994239610809E-03  4.551298100824E-03
  4.144379863078E-03  3.770839983099E-03  3.428204030662E-03  3.114159052041E-03
  2.826544858354E-03  2.563345619283E-03  2.322681768794E-03  2.102802227065E-03
  1.902076940596E-03  1.718989740531E-03  1.552131517393E-03  1.400193708909E-03
  1.261962096211E-03  1.136310902510E-03  1.022197187345E-03  9.186555286825E-04
  8.247929844082E-04  7.397843242790E-04  6.628675229277E-04  5.933395042583E-04
  5.305521273609E-04  4.739084039868E-04  4.228589376084E-04  3.768985741458E-04
  3.355632545618E-04  2.984270596944E-04  2.650994379083E-04  2.352226063912E-04
  2.084691171946E-04  1.845395794056E-04  1.631605291470E-04  1.440824394123E-04
  1.270778620648E-04  1.119396946481E-04  9.847956497149E-05  8.652632675179E-05
  7.592465989386E-05  6.653376929657E-05  5.822617635759E-05  5.088659763269E-05
  4.441090537496E-05  3.870516493995E-05  3.368474429226E-05  2.927349108912E-05
  2.540297304607E-05  2.201177750985E-05  1.904486637438E-05  1.645298267766E-05
  1.419210541030E-05  1.222294925192E-05  1.051050612859E-05  9.023625654705E-06
  7.734631685375E-06  6.618972361573E-06  5.654901180034E-06  4.823186763230E-06
  4.106849142378E-06  3.490920498109E-06  2.962228429707E-06  2.509199944544E-06
  2.121684474963E-06  1.790794340248E-06  1.508761176791E-06  1.268806960125E-06
  1.065028338294E-06  8.922930871360E-07  7.461475846379E-07  6.227342835528E-07
  5.187182392196E-07  4.312218229175E-07  3.577668203685E-07  2.962231801919E-07
  2.447637383737E-07  2.018243022327E-07  1.660685310835E-07  1.363571009336E-07
  1.117206872358E-07  9.133634309219E-08  7.450689050377E-08  6.064297942277E-08
  4.924750364129E-08  3.990209407731E-08  3.225543895016E-08  2.601320681305E-08
  2.092937257709E-08  1.679876866030E-08  1.345070336922E-08  1.074350670442E-08
  8.559880110957E-09  6.802941397885E-09  5.392869253541E-09  4.264063604753E-09
  3.362748622698E-09  2.644954574745E-09  2.074823063039E-09  1.623187573714E-09
  1.266387776428E-09  9.852817471618E-10  7.644253169175E-10  5.913921481588E-10
  4.562119768644E-10  3.509077928799E-10  2.691156213549E-10  2.057730649993E-10
  1.568649174167E-10  1.192160040859E-10  9.032298766871E-11  6.821822223188E-11
  5.135988730691E-11  3.854360339776E-11  2.883155276239E-11  2.149582058335E-11
  1.597323311095E-11  1.182952577850E-11  8.730913607746E-12  6.421716758483E-12
  4.706765576113E-12  3.437594046003E-12  2.501656043944E-12  1.813935101965E-12
  1.310439372659E-12  9.431761615282E-13  6.762835024329E-13  4.830632633673E-13
</data>
</radfunc>
</valence-charge>
<semilocal-potentials set="scalar_relativistic">
<slps n="2" l="s" rc="1.10006036258" flavor="Troullier-Martins">
<radfunc>
<data>
  1.131392086680E-01 -1.919898438795E-02 -5.904975222657E-01 -1.168736253184E+00
 -1.535891281940E+00 -1.652596562912E+00 -1.587219081289E+00 -1.424076486418E+00
 -1.212550161166E+00 -9.978471381013E-01 -8.085154393225E-01 -6.557346453253E-01
 -5.392030679409E-01 -4.404569632760E-01 -3.698569020406E-01 -3.113320535627E-01
 -2.708937393204E-01 -2.371672470687E-01 -2.093285639369E-01 -1.865810230218E-01
 -1.715414489830E-01 -1.589126832644E-01 -1.483421505057E-01 -1.394816306076E-01
 -1.319769714184E-01 -1.270157972505E-01 -1.224422680654E-01 -1.180784292102E-01
 -1.137334782100E-01 -1.092032689565E-01 -1.042714050304E-01 -9.871252770277E-02
 -9.229849335476E-02 -8.480818521780E-02 -7.604167789568E-02 -6.583932059983E-02
 -5.818956752927E-02 -4.985104821546E-02 -4.084003500436E-02 -3.119996876098E-02
 -2.100599794978E-02 -1.036936079559E-02  5.586385951300E-04  1.158333700547E-02
  2.246438621900E-02  3.291465937092E-02  4.260060307229E-02  5.114416546045E-02
  5.812632120630E-02  6.309209310922E-02  6.555685607728E-02  6.501362600999E-02
  6.094100418794E-02  5.281147938702E-02  4.009988271612E-02  2.229192332510E-02
 -1.107131314454E-03 -3.056347964471E-02 -6.650537801172E-02 -1.093133215058E-01
 -1.593101514652E-01 -2.167518739736E-01 -2.818204617548E-01 -3.546202893575E-01
 -3.939311235410E-01 -4.351799200093E-01 -4.783597861497E-01 -5.234605282428E-01
 -5.704692799930E-01 -6.193712025248E-01 -6.701502278610E-01 -7.227898117934E-01
 -7.772736575117E-01 -8.335863689811E-01 -8.917139932266E-01 -9.516444135659E-01
 -1.013367561390E+00 -1.076875421966E+00 -1.142161819345E+00 -1.209221976043E+00
 -1.278051853889E+00 -1.348647292412E+00 -1.421002969656E+00 -1.495111216805E+00
 -1.570960722101E+00 -1.648535161218E+00 -1.727811790656E+00 -1.808760038178E+00
 -1.891340120329E+00 -1.975501712232E+00 -2.061182689636E+00 -2.148307958157E+00
 -2.236788380161E+00 -2.326519806126E+00 -2.417382214702E+00 -2.509238964216E+00
 -2.601936157924E+00 -2.695302125915E+00 -2.789147027967E+00 -2.883262583810E+00
 -2.977421939877E+00 -3.071379684646E+00 -3.164872027899E+00 -3.257617162510E+00
 -3.349315830586E+00 -3.439652118836E+00 -3.528294510775E+00 -3.614897225628E+00
 -3.699101875523E+00 -3.780539473449E+00 -3.858832824344E+00 -3.933599330323E+00
 -4.004454238061E+00 -4.071014351454E+00 -4.132902225481E+00 -4.189750847388E+00
 -4.241208798622E+00 -4.286945875270E+00 -4.326659126088E+00 -4.360079245843E+00
 -4.386977238082E+00 -4.407171236245E+00 -4.420533346040E+00 -4.426996345983E+00
 -4.426560057412E+00 -4.419297170349E+00 -4.405358286775E+00 -4.384975917103E+00
 -4.358467134472E+00 -4.326234577866E+00 -4.288765285478E+00 -4.246627770275E+00
 -4.200462978756E+00 -4.150982215202E+00 -4.098933734132E+00 -4.045109661399E+00
 -3.990320364962E+00 -3.935344015229E+00 -3.880951142471E+00 -3.827813252397E+00
 -3.776434681668E+00 -3.727099356411E+00 -3.679776590745E+00 -3.633994580881E+00
 -3.588964580841E+00 -3.544502008966E+00 -3.500589142711E+00 -3.457212801389E+00
 -3.414372280585E+00 -3.372056958242E+00 -3.330261037204E+00 -3.288977560912E+00
 -3.248200159549E+00 -3.207922602715E+00 -3.168138843948E+00 -3.128842984787E+00
 -3.090029254246E+00 -3.051691990630E+00 -3.013825626522E+00 -2.976424676501E+00
 -2.939513144754E+00 -2.903047319641E+00 -2.867023811289E+00 -2.831438956145E+00
 -2.796288858386E+00 -2.761569428193E+00 -2.727276416565E+00 -2.693405446569E+00
 -2.659952041068E+00 -2.626911647079E+00 -2.594279656963E+00 -2.562051426718E+00
 -2.530222291631E+00 -2.498787579571E+00 -2.467742622205E+00 -2.437082764372E+00
 -2.406803371867E+00 -2.376899837846E+00 -2.347367588057E+00 -2.318202085059E+00
 -2.289398831591E+00 -2.260953373225E+00 -2.232861300416E+00 -2.205118250056E+00
 -2.177719906610E+00 -2.150662002911E+00 -2.123940320682E+00 -2.097550690820E+00
 -2.071488993506E+00 -2.045751158159E+00 -2.020333163279E+00 -1.995231036191E+00
 -1.970440852716E+00 -1.945958736791E+00 -1.921780860031E+00 -1.897903441277E+00
 -1.874322746101E+00 -1.851035086308E+00 -1.828036819416E+00 -1.805324348131E+00
 -1.782894119821E+00 -1.760742625979E+00 -1.738866401702E+00 -1.717262025151E+00
 -1.695926117033E+00 -1.674855340073E+00 -1.654046398499E+00 -1.633496037528E+00
 -1.613201042859E+00 -1.593158240167E+00 -1.573364494614E+00 -1.553816710348E+00
 -1.534511830028E+00 -1.515446834336E+00 -1.496618741511E+00 -1.478024606876E+00
 -1.459661522381E+00 -1.441526616142E+00 -1.423617051993E+00 -1.405930029044E+00
 -1.388462781237E+00 -1.371212576914E+00 -1.354176718389E+00 -1.337352541528E+00
 -1.320737415324E+00 -1.304328741492E+00 -1.288123954057E+00 -1.272120518953E+00
 -1.256315933628E+00 -1.240707726647E+00 -1.225293457309E+00 -1.210070715262E+00
 -1.195037120127E+00 -1.180190321123E+00 -1.165527996700E+00 -1.151047854175E+00
 -1.136747629371E+00 -1.122625086265E+00 -1.108678016636E+00 -1.094904239719E+00
 -1.081301601863E+00 -1.067867976196E+00 -1.054601262288E+00 -1.041499385825E+00
 -1.028560298281E+00 -1.015781976602E+00 -1.003162422883E+00 -9.906996640599E-01
 -9.783917515981E-01 -9.662367611878E-01 -9.542327924423E-01 -9.423779686009E-01
 -9.306704362345E-01 -9.191083649555E-01 -9.076899471313E-01 -8.964133976007E-01
 -8.852769533949E-01 -8.742788734610E-01 -8.634174383898E-01 -8.526909501459E-01
 -8.420977318024E-01 -8.316361272782E-01 -8.213045010784E-01 -8.111012380384E-01
 -8.010247430712E-01 -7.910734409174E-01 -7.812457758985E-01 -7.715402116739E-01
 -7.619552309995E-01 -7.524893354910E-01 -7.431410453888E-01 -7.339088993265E-01
 -7.247914541023E-01 -7.157872844528E-01 -7.068949828302E-01 -6.981131591816E-01
 -6.894404407319E-01 -6.808754717685E-01 -6.724169134292E-01 -6.640634434928E-01
 -6.558137561721E-01 -6.476665619095E-01 -6.396205871750E-01 -6.316745742672E-01
 -6.238272811164E-01 -6.160774810900E-01 -6.084239628007E-01 -6.008655299169E-01
 -5.934010009755E-01 -5.860292091970E-01 -5.787490023031E-01 -5.715592423359E-01
 -5.644588054805E-01 -5.574465818885E-01 -5.505214755048E-01 -5.436824038960E-01
 -5.369282980809E-01 -5.302581023633E-01 -5.236707741668E-01 -5.171652838720E-01
 -5.107406146548E-01 -5.043957623279E-01 -4.981297351834E-01 -4.919415538375E-01
 -4.858302510777E-01 -4.797948717112E-01 -4.738344724155E-01 -4.679481215908E-01
 -4.621348992146E-01 -4.563938966971E-01 -4.507242167397E-01 -4.451249731943E-01
 -4.395952909250E-01 -4.341343056706E-01 -4.287411639102E-01 -4.234150227290E-01
 -4.181550496869E-01 -4.129604226880E-01 -4.078303298524E-01 -4.027639693886E-01
 -3.977605494687E-01 -3.928192881043E-01 -3.879394130239E-01 -3.831201615529E-01
 -3.783607804933E-01 -3.736605260067E-01 -3.690186634977E-01 -3.644344674989E-01
 -3.599072215576E-01 -3.554362181235E-01 -3.510207584385E-01 -3.466601524269E-01
 -3.423537185879E-01 -3.381007838887E-01 -3.339006836597E-01 -3.297527614898E-01
 -3.256563691245E-01 -3.216108663642E-01 -3.176156209641E-01 -3.136700085353E-01
 -3.097734124472E-01 -3.059252237311E-01 -3.021248409851E-01 -2.983716702796E-01
 -2.946651250651E-01 -2.910046260797E-01 -2.873896012594E-01 -2.838194856480E-01
 -2.802937213087E-01 -2.768117572376E-01 -2.733730492767E-01 -2.699770600292E-01
 -2.666232587757E-01 -2.633111213907E-01 -2.600401302609E-01 -2.568097742047E-01
 -2.536195483913E-01 -2.504689542626E-01 -2.473574994551E-01 -2.442846977225E-01
 -2.412500688603E-01 -2.382531386301E-01 -2.352934386859E-01 -2.323705065007E-01
 -2.294838852943E-01 -2.266331239616E-01 -2.238177770024E-01 -2.210374044517E-01
 -2.182915718106E-01 -2.155798499789E-01 -2.129018151876E-01 -2.102570489326E-01
 -2.076451379097E-01 -2.050656739496E-01 -2.025182539543E-01 -2.000024798340E-01
</data>
</radfunc>
</slps>
<slps n="2" l="p" rc="0.995336464082" flavor="Troullier-Martins">
<radfunc>
<data>
 -1.408373523617E+01 -1.421607331364E+01 -1.478737005650E+01 -1.536560071981E+01
 -1.573273337066E+01 -1.584939017479E+01 -1.578392918153E+01 -1.562064947650E+01
 -1.540889952617E+01 -1.519385279625E+01 -1.500402403475E+01 -1.485056833128E+01
 -1.473317906978E+01 -1.463321686153E+01 -1.456117796409E+01 -1.450071432464E+01
 -1.445815584858E+01 -1.442171356540E+01 -1.439039787697E+01 -1.436320124840E+01
 -1.434372456811E+01 -1.432569642189E+01 -1.430855875297E+01 -1.429171507277E+01
 -1.427451164320E+01 -1.426093599077E+01 -1.424640264541E+01 -1.423052851510E+01
 -1.421288761949E+01 -1.419300650895E+01 -1.417036079867E+01 -1.414437339024E+01
 -1.411441504732E+01 -1.407980804873E+01 -1.403983362739E+01 -1.399374376599E+01
 -1.395924392072E+01 -1.392146333633E+01 -1.388018219069E+01 -1.383518861243E+01
 -1.378628203581E+01 -1.373327639341E+01 -1.367600291248E+01 -1.361431225678E+01
 -1.354807575161E+01 -1.347718545401E+01 -1.340155288596E+01 -1.332110633773E+01
 -1.323578676339E+01 -1.314554241887E+01 -1.305032251391E+01 -1.295007024066E+01
 -1.284471558187E+01 -1.273416827911E+01 -1.261831125765E+01 -1.249699468112E+01
 -1.237003068261E+01 -1.223718874056E+01 -1.209819169003E+01 -1.195271252446E+01
 -1.180037246453E+01 -1.164074121964E+01 -1.147334085390E+01 -1.129765504057E+01
 -1.120653712461E+01 -1.111314554556E+01 -1.101741371967E+01 -1.091927732799E+01
 -1.081867557951E+01 -1.071555257869E+01 -1.060985876935E+01 -1.050155242024E+01
 -1.039060111316E+01 -1.027698319150E+01 -1.016068912705E+01 -1.004172276536E+01
 -9.920102415129E+00 -9.795861754456E+00 -9.669050535821E+00 -9.539735081810E+00
 -9.407998573571E+00 -9.273941143326E+00 -9.137679790033E+00 -8.999348142925E+00
 -8.859096100893E+00 -8.717089376354E+00 -8.573508970569E+00 -8.428550603712E+00
 -8.282424117700E+00 -8.135352863626E+00 -7.987573078911E+00 -7.839333252688E+00
 -7.690893471715E+00 -7.542524733675E+00 -7.394508210145E+00 -7.247134438003E+00
 -7.100702415385E+00 -6.955518576690E+00 -6.811895620191E+00 -6.670151161626E+00
 -6.530606187503E+00 -6.393583282647E+00 -6.259404607818E+00 -6.128389604824E+00
 -6.000852408710E+00 -5.877098949182E+00 -5.757423726737E+00 -5.642106253094E+00
 -5.531407150725E+00 -5.425563912823E+00 -5.324786333280E+00 -5.229251626484E+00
 -5.139099269434E+00 -5.054425614388E+00 -4.975278339450E+00 -4.901650828087E+00
 -4.833476597359E+00 -4.770623929823E+00 -4.712890907128E+00 -4.660001095881E+00
 -4.611600200609E+00 -4.567254076732E+00 -4.526448591067E+00 -4.488591930891E+00
 -4.453020097790E+00 -4.419006481555E+00 -4.385776594655E+00 -4.352529261514E+00
 -4.318465798917E+00 -4.282829023142E+00 -4.244954070311E+00 -4.204334365460E+00
 -4.160701795115E+00 -4.114138158318E+00 -4.065184278704E+00 -4.015023933420E+00
 -3.965209228657E+00 -3.916062150593E+00 -3.867564895555E+00 -3.819694989770E+00
 -3.772418995536E+00 -3.725715828758E+00 -3.679576828067E+00 -3.633994479221E+00
 -3.588964580841E+00 -3.544502008966E+00 -3.500589142711E+00 -3.457212801389E+00
 -3.414372280585E+00 -3.372056958242E+00 -3.330261037204E+00 -3.288977560912E+00
 -3.248200159549E+00 -3.207922602715E+00 -3.168138843948E+00 -3.128842984787E+00
 -3.090029254246E+00 -3.051691990630E+00 -3.013825626522E+00 -2.976424676501E+00
 -2.939513144754E+00 -2.903047319641E+00 -2.867023811289E+00 -2.831438956145E+00
 -2.796288858386E+00 -2.761569428193E+00 -2.727276416565E+00 -2.693405446569E+00
 -2.659952041068E+00 -2.626911647079E+00 -2.594279656963E+00 -2.562051426718E+00
 -2.530222291631E+00 -2.498787579571E+00 -2.467742622205E+00 -2.437082764372E+00
 -2.406803371867E+00 -2.376899837846E+00 -2.347367588057E+00 -2.318202085059E+00
 -2.289398831591E+00 -2.260953373225E+00 -2.232861300416E+00 -2.205118250056E+00
 -2.177719906610E+00 -2.150662002911E+00 -2.123940320682E+00 -2.097550690820E+00
 -2.071488993506E+00 -2.045751158159E+00 -2.020333163279E+00 -1.995231036191E+00
 -1.970440852716E+00 -1.945958736791E+00 -1.921780860031E+00 -1.897903441277E+00
 -1.874322746101E+00 -1.851035086308E+00 -1.828036819416E+00 -1.805324348131E+00
 -1.782894119821E+00 -1.760742625979E+00 -1.738866401702E+00 -1.717262025151E+00
 -1.695926117033E+00 -1.674855340073E+00 -1.654046398499E+00 -1.633496037528E+00
 -1.613201042859E+00 -1.593158240167E+00 -1.573364494614E+00 -1.553816710348E+00
 -1.534511830028E+00 -1.515446834336E+00 -1.496618741511E+00 -1.478024606876E+00
 -1.459661522381E+00 -1.441526616142E+00 -1.423617051993E+00 -1.405930029044E+00
 -1.388462781237E+00 -1.371212576914E+00 -1.354176718389E+00 -1.337352541528E+00
 -1.320737415324E+00 -1.304328741492E+00 -1.288123954057E+00 -1.272120518953E+00
 -1.256315933628E+00 -1.240707726647E+00 -1.225293457309E+00 -1.210070715262E+00
 -1.195037120127E+00 -1.180190321123E+00 -1.165527996700E+00 -1.151047854175E+00
 -1.136747629371E+00 -1.122625086265E+00 -1.108678016636E+00 -1.094904239719E+00
 -1.081301601863E+00 -1.067867976196E+00 -1.054601262288E+00 -1.041499385825E+00
 -1.028560298281E+00 -1.015781976602E+00 -1.003162422883E+00 -9.906996640599E-01
 -9.783917515981E-01 -9.662367611878E-01 -9.542327924423E-01 -9.423779686009E-01
 -9.306704362345E-01 -9.191083649555E-01 -9.076899471313E-01 -8.964133976007E-01