Siesta Version  : v4.1.5-1-g384057250
Architecture    : gcc
Compiler version: GNU Fortran (Debian 10.2.1-6) 10.2.1 20210110
Compiler flags  : mpifort -O2 -fPIC -ftree-vectorize -fallow-argument-mismatch
PP flags        : -DFC_HAVE_ABORT -DMPI -DSIESTA__FLOOK -DSIESTA__METIS -DSIESTA__MUMPS -DCDF -DNCDF -DNCDF_4 -DNCDF_PARALLEL -DSIESTA__MRRR -DSIESTA__ELPA
Libraries       : libncdf.a libfdict.a  -lflookall -ldl -lnetcdff -lnetcdf -lhdf5_hl -lhdf5 -lhdf5_fortran -lz -lscalapack-openmpi -lopenblas -lmetis -lzmumps -lcmumps -ldmumps -lmumps_common -lpord -lsmumps -lesmumps -lscotch -lscotcherr -fopenmp -lelpa
PARALLEL version
NetCDF support
NetCDF-4 support
NetCDF-4 MPI-IO support
METIS ordering support
Lua support

* Running on 6 nodes in parallel
>> Start of run:  22-MAY-2023   9:38:43

                           ***********************       
                           *  WELCOME TO SIESTA  *       
                           ***********************       

reinit: Reading from standard input
reinit: Dumped input in INPUT_TMP.25995
************************** Dump of input data file ****************************
SystemLabel      AT
NumberOfAtoms    30
NumberOfSpecies  4
%block ChemicalSpeciesLabel
    1    1  H
    2    7  N
    3   14  Si
    4    8  O
%endblock ChemicalSpeciesLabel
# Single point calculation
MD.TypeOfRun                CG
MD.Steps                    0
SCF.MustConverge            F # In case it does not. There can be 2 very close atoms
AtomicCoordinatesFormat NotScaledCartesianAng
%block AtomicCoordinatesAndAtomicSpecies
2.582377650    -5.776830440   0.000000000       1
1.654759240    -5.269361980   0.000000000       2
0.063128840    -6.101704590   0.000000000       3
0.119223240    -7.596849500   0.000000000       1
-1.376892050   -5.182603740   0.000000000       2
-0.824371900   -3.460866440   0.000000000       3
-1.170571480   -1.270002100   0.000000000       3
-2.706933680   -0.417515780   0.000000000       2
-2.754569660   0.634858620    0.000000000       1
-3.637675640   -0.909967860   0.000000000       1
0.218091790    -0.234193970   0.000000000       2
1.872004100    -0.697162300   0.000000000       3
2.828001130    0.461464770    0.000000000       1
2.648150080    -2.255024470   0.000000000       2
1.391921380    -3.454727220   0.000000000       3
1.902837350    4.542488733    0.000000000       2
0.575465830    5.752693033    0.000000000       3
1.215467100    7.114011273    0.000000000       1
-1.510280110   5.082161683    0.000000000       3
-3.539842710   6.212277873    0.000000000       3
-3.385606940   7.372508083    0.940305280       1
-4.525777430   5.190357253    0.512613700       1
-3.956057670   6.688503723    -1.366678340      1
-1.443784690   2.808185063    0.000000000       3
-2.482833420   1.615125563    0.000000000       4
0.213206890    2.174209873    0.000000000       2
0.195189520    1.111765043    0.000000000       1
1.836809960    2.771280083    0.000000000       3
3.031826130    1.756854883    0.000000000       4
2.902874720    4.887995833    0.000000000       1
%endblock AtomicCoordinatesAndAtomicSpecies
%include ../../../Defaults.fdf
************************** End of input data file *****************************

reinit: -----------------------------------------------------------------------
reinit: System Name: 
reinit: -----------------------------------------------------------------------
reinit: System Label: AT
reinit: -----------------------------------------------------------------------

initatom: Reading input for the pseudopotentials and atomic orbitals ----------
Species number:   1 Atomic number:    1 Label: H
Species number:   2 Atomic number:    7 Label: N
Species number:   3 Atomic number:   14 Label: Si
Species number:   4 Atomic number:    8 Label: O

Ground state valence configuration:   1s01
Reading pseudopotential information in formatted form from H.psf

Pseudopotential generated from a relativistic atomic calculation

Valence configuration for pseudopotential generation:
1s( 1.00) rc: 0.01
2p( 0.00) rc: 0.60
3d( 0.00) rc: 1.99
4f( 0.00) rc: 2.49
Ground state valence configuration:   2s02  2p03
Reading pseudopotential information in formatted form from N.psf

Pseudopotential generated from a relativistic atomic calculation

Valence configuration for pseudopotential generation:
2s( 2.00) rc: 0.94
2p( 3.00) rc: 0.59
3d( 0.00) rc: 3.46
4f( 0.00) rc: 2.47
Ground state valence configuration:   3s02  3p02
Reading pseudopotential information in formatted form from Si.psf

Pseudopotential generated from a relativistic atomic calculation

Valence configuration for pseudopotential generation:
3s( 2.00) rc: 1.67
3p( 2.00) rc: 2.04
3d( 0.00) rc: 2.89
4f( 0.00) rc: 2.49
Ground state valence configuration:   2s02  2p04
Reading pseudopotential information in formatted form from O.psf

Pseudopotential generated from a relativistic atomic calculation

Valence configuration for pseudopotential generation:
2s( 2.00) rc: 0.45
2p( 4.00) rc: 0.92
3d( 0.00) rc: 2.24
4f( 0.00) rc: 0.25
For H, standard SIESTA heuristics set lmxkb to 2
 (one more than the basis l, including polarization orbitals).
Use PS.lmax or PS.KBprojectors blocks to override.
For N, standard SIESTA heuristics set lmxkb to 3
 (one more than the basis l, including polarization orbitals).
Use PS.lmax or PS.KBprojectors blocks to override.
For Si, standard SIESTA heuristics set lmxkb to 3
 (one more than the basis l, including polarization orbitals).
Use PS.lmax or PS.KBprojectors blocks to override.
For O, standard SIESTA heuristics set lmxkb to 3
 (one more than the basis l, including polarization orbitals).
Use PS.lmax or PS.KBprojectors blocks to override.

<basis_specs>
===============================================================================
H                    Z=   1    Mass=  1.0100        Charge= 0.17977+309
Lmxo=0 Lmxkb= 2    BasisType=split      Semic=F
L=0  Nsemic=0  Cnfigmx=1
          i=1  nzeta=2  polorb=1  (1s)
            splnorm:   0.62000    
               vcte:    0.0000    
               rinn:    0.0000    
               qcoe:    0.0000    
               qyuk:    0.0000    
               qwid:   0.10000E-01
                rcs:    0.0000      0.0000    
            lambdas:    1.0000      1.0000    
-------------------------------------------------------------------------------
L=0  Nkbl=1  erefs: 0.17977+309
L=1  Nkbl=1  erefs: 0.17977+309
L=2  Nkbl=1  erefs: 0.17977+309
===============================================================================
</basis_specs>

atom: Called for H                     (Z =   1)

read_vps: Pseudopotential generation method:
read_vps: ATM4.2.7  Troullier-Martins                       
Valence charge for ps generation:    1.00000

xc_check: Exchange-correlation functional:
xc_check: GGA Perdew, Burke & Ernzerhof 1996
V l=0 = -2*Zval/r beyond r=  0.0098
V l=1 = -2*Zval/r beyond r=  0.5817
V l=2 = -2*Zval/r beyond r=  1.9372
All V_l potentials equal beyond r=  1.9372
This should be close to max(r_c) in ps generation
All pots = -2*Zval/r beyond r=  1.9372

VLOCAL1: 99.0% of the norm of Vloc inside     11.567 Ry
VLOCAL1: 99.9% of the norm of Vloc inside     26.362 Ry
atom: Maximum radius for 4*pi*r*r*local-pseudopot. charge    2.25106
atom: Maximum radius for r*vlocal+2*Zval:    1.91306
GHOST: No ghost state for L =  0
GHOST: No ghost state for L =  1
GHOST: No ghost state for L =  2

KBgen: Kleinman-Bylander projectors: 
   l= 0   rc=  2.036604   el= -0.477180   Ekb= -6.081590   kbcos= -0.277285
   l= 1   rc=  2.195416   el=  0.001076   Ekb= -0.926943   kbcos= -0.034643
   l= 2   rc=  2.251056   el=  0.002010   Ekb= -0.130941   kbcos= -0.009788

KBgen: Total number of Kleinman-Bylander projectors:    9
atom: -------------------------------------------------------------------------

atom: SANKEY-TYPE ORBITALS:
atom: Selected multiple-zeta basis: split     

SPLIT: Orbitals with angular momentum L= 0

SPLIT: Basis orbitals for state 1s

SPLIT: PAO cut-off radius determined from an
SPLIT: energy shift=  0.002000 Ry

   izeta = 1
                 lambda =    1.000000
                     rc =    6.518340
                 energy =   -0.475305
                kinetic =    0.912139
    potential(screened) =   -1.387444
       potential(ionic) =   -1.907295

   izeta = 2
                 rmatch =    2.141150
              splitnorm =    0.620000
                 energy =    0.566467
                kinetic =    3.772856
    potential(screened) =   -3.206389
       potential(ionic) =   -3.759093

POLgen: Perturbative polarization orbital with L=  1

POLgen: Polarization orbital for state 1s

   izeta = 1
                     rc =    6.518340
                 energy =    0.533861
                kinetic =    1.121086
    potential(screened) =   -0.587225
       potential(ionic) =   -1.053027
atom: Total number of Sankey-type orbitals:  5

atm_pop: Valence configuration (for local Pseudopot. screening):
 1s( 1.00)                                                            
Vna: chval, zval:    1.00000   1.00000

Vna:  Cut-off radius for the neutral-atom potential:   6.518340

atom: _________________________________________________________________________

<basis_specs>
===============================================================================
N                    Z=   7    Mass=  14.010        Charge= 0.17977+309
Lmxo=1 Lmxkb= 3    BasisType=split      Semic=F
L=0  Nsemic=0  Cnfigmx=2
          i=1  nzeta=2  polorb=0  (2s)
            splnorm:   0.28000    
               vcte:    0.0000    
               rinn:    0.0000    
               qcoe:    0.0000    
               qyuk:    0.0000    
               qwid:   0.10000E-01
                rcs:    0.0000      0.0000    
            lambdas:    1.0000      1.0000    
L=1  Nsemic=0  Cnfigmx=2
          i=1  nzeta=2  polorb=1  (2p)
            splnorm:   0.28000    
               vcte:    0.0000    
               rinn:    0.0000    
               qcoe:    0.0000    
               qyuk:    0.0000    
               qwid:   0.10000E-01
                rcs:    0.0000      0.0000    
            lambdas:    1.0000      1.0000    
-------------------------------------------------------------------------------
L=0  Nkbl=1  erefs: 0.17977+309
L=1  Nkbl=1  erefs: 0.17977+309
L=2  Nkbl=1  erefs: 0.17977+309
L=3  Nkbl=1  erefs: 0.17977+309
===============================================================================
</basis_specs>

atom: Called for N                     (Z =   7)

read_vps: Pseudopotential generation method:
read_vps: ATM4.2.7  Troullier-Martins                       
Valence charge for ps generation:    5.00000

xc_check: Exchange-correlation functional:
xc_check: GGA Perdew, Burke & Ernzerhof 1996
V l=0 = -2*Zval/r beyond r=  1.2889
V l=1 = -2*Zval/r beyond r=  1.2889
V l=2 = -2*Zval/r beyond r=  3.4178
V l=3 = -2*Zval/r beyond r=  2.4084
All V_l potentials equal beyond r=  3.3753
This should be close to max(r_c) in ps generation
All pots = -2*Zval/r beyond r=  3.4178

VLOCAL1: 99.0% of the norm of Vloc inside      3.810 Ry
VLOCAL1: 99.9% of the norm of Vloc inside      8.683 Ry
atom: Maximum radius for 4*pi*r*r*local-pseudopot. charge    4.02088
atom: Maximum radius for r*vlocal+2*Zval:    3.54838
GHOST: No ghost state for L =  0
GHOST: No ghost state for L =  1
GHOST: No ghost state for L =  2
GHOST: No ghost state for L =  3

KBgen: Kleinman-Bylander projectors: 
   l= 0   rc=  3.417763   el= -1.365098   Ekb= -4.433130   kbcos= -0.707855
   l= 1   rc=  3.375302   el= -0.521201   Ekb=-13.264039   kbcos= -0.535594
   l= 2   rc=  3.872880   el=  0.001991   Ekb= -0.641094   kbcos= -0.062456
   l= 3   rc=  3.970931   el=  0.003093   Ekb= -0.474517   kbcos= -0.018236

KBgen: Total number of Kleinman-Bylander projectors:   16
atom: -------------------------------------------------------------------------

atom: SANKEY-TYPE ORBITALS:
atom: Selected multiple-zeta basis: split     

SPLIT: Orbitals with angular momentum L= 0

SPLIT: Basis orbitals for state 2s

SPLIT: PAO cut-off radius determined from an
SPLIT: energy shift=  0.002000 Ry

   izeta = 1
                 lambda =    1.000000
                     rc =    4.730425
                 energy =   -1.363399
                kinetic =    1.245246
    potential(screened) =   -2.608645
       potential(ionic) =   -8.121105

   izeta = 2
                 rmatch =    2.531849
              splitnorm =    0.280000
                 energy =   -0.959908
                kinetic =    2.409435
    potential(screened) =   -3.369343
       potential(ionic) =   -9.427975

SPLIT: Orbitals with angular momentum L= 1

SPLIT: Basis orbitals for state 2p

SPLIT: PAO cut-off radius determined from an
SPLIT: energy shift=  0.002000 Ry

   izeta = 1
                 lambda =    1.000000
                     rc =    5.924108
                 energy =   -0.519262
                kinetic =    3.672940
    potential(screened) =   -4.192202
       potential(ionic) =   -9.518354

   izeta = 2
                 rmatch =    2.531849
              splitnorm =    0.280000
                 energy =   -0.104258
                kinetic =    6.807538
    potential(screened) =   -6.911796
       potential(ionic) =  -13.149920

POLgen: Perturbative polarization orbital with L=  2

POLgen: Polarization orbital for state 2p

   izeta = 1
                     rc =    5.924108
                 energy =    1.427508
                kinetic =    2.872379
    potential(screened) =   -1.444871
       potential(ionic) =   -5.563644
atom: Total number of Sankey-type orbitals: 13

atm_pop: Valence configuration (for local Pseudopot. screening):
 2s( 2.00)                                                            
 2p( 3.00)                                                            
Vna: chval, zval:    5.00000   5.00000

Vna:  Cut-off radius for the neutral-atom potential:   5.924108

atom: _________________________________________________________________________

<basis_specs>
===============================================================================
Si                   Z=  14    Mass=  28.090        Charge= 0.17977+309
Lmxo=1 Lmxkb= 3    BasisType=split      Semic=F
L=0  Nsemic=0  Cnfigmx=3
          i=1  nzeta=2  polorb=0  (3s)
            splnorm:   0.28000    
               vcte:    0.0000    
               rinn:    0.0000    
               qcoe:    0.0000    
               qyuk:    0.0000    
               qwid:   0.10000E-01
                rcs:    0.0000      0.0000    
            lambdas:    1.0000      1.0000    
L=1  Nsemic=0  Cnfigmx=3
          i=1  nzeta=2  polorb=1  (3p)
            splnorm:   0.28000    
               vcte:    0.0000    
               rinn:    0.0000    
               qcoe:    0.0000    
               qyuk:    0.0000    
               qwid:   0.10000E-01
                rcs:    0.0000      0.0000    
            lambdas:    1.0000      1.0000    
-------------------------------------------------------------------------------
L=0  Nkbl=1  erefs: 0.17977+309
L=1  Nkbl=1  erefs: 0.17977+309
L=2  Nkbl=1  erefs: 0.17977+309
L=3  Nkbl=1  erefs: 0.17977+309
===============================================================================
</basis_specs>

atom: Called for Si                    (Z =  14)

read_vps: Pseudopotential generation method:
read_vps: ATM4.2.7  Troullier-Martins                       
Valence charge for ps generation:    4.00000

xc_check: Exchange-correlation functional:
xc_check: GGA Perdew, Burke & Ernzerhof 1996
V l=0 = -2*Zval/r beyond r=  2.7826
V l=1 = -2*Zval/r beyond r=  2.7826
V l=2 = -2*Zval/r beyond r=  2.9253
V l=3 = -2*Zval/r beyond r=  2.7826
All V_l potentials equal beyond r=  2.8530
This should be close to max(r_c) in ps generation
All pots = -2*Zval/r beyond r=  2.9253

VLOCAL1: 99.0% of the norm of Vloc inside      5.333 Ry
VLOCAL1: 99.9% of the norm of Vloc inside     12.154 Ry
atom: Maximum radius for 4*pi*r*r*local-pseudopot. charge    3.39869
atom: Maximum radius for r*vlocal+2*Zval:    2.96205
GHOST: No ghost state for L =  0
GHOST: No ghost state for L =  1
GHOST: No ghost state for L =  2
GHOST: No ghost state for L =  3

KBgen: Kleinman-Bylander projectors: 
   l= 0   rc=  3.075247   el= -0.794092   Ekb=  5.879390   kbcos=  0.167461
   l= 1   rc=  3.153101   el= -0.300068   Ekb=  2.642817   kbcos=  0.058301
   l= 2   rc=  3.273594   el=  0.001958   Ekb= -1.185135   kbcos= -0.104411
   l= 3   rc=  3.232927   el=  0.003046   Ekb= -0.497174   kbcos= -0.015889

KBgen: Total number of Kleinman-Bylander projectors:   16
atom: -------------------------------------------------------------------------

atom: SANKEY-TYPE ORBITALS:
atom: Selected multiple-zeta basis: split     

SPLIT: Orbitals with angular momentum L= 0

SPLIT: Basis orbitals for state 3s

SPLIT: PAO cut-off radius determined from an
SPLIT: energy shift=  0.002000 Ry

   izeta = 1
                 lambda =    1.000000
                     rc =    6.429618
                 energy =   -0.792283
                kinetic =    0.525293
    potential(screened) =   -1.317576
       potential(ionic) =   -3.744923

   izeta = 2
                 rmatch =    3.998416
              splitnorm =    0.280000
                 energy =   -0.583081
                kinetic =    1.069570
    potential(screened) =   -1.652651
       potential(ionic) =   -4.235185

SPLIT: Orbitals with angular momentum L= 1

SPLIT: Basis orbitals for state 3p

SPLIT: PAO cut-off radius determined from an
SPLIT: energy shift=  0.002000 Ry

   izeta = 1
                 lambda =    1.000000
                     rc =    8.464845
                 energy =   -0.298236
                kinetic =    0.785360
    potential(screened) =   -1.083596
       potential(ionic) =   -3.273779

   izeta = 2
                 rmatch =    4.587816
              splitnorm =    0.280000
                 energy =   -0.131871
                kinetic =    1.403687
    potential(screened) =   -1.535557
       potential(ionic) =   -4.015310

POLgen: Perturbative polarization orbital with L=  2

POLgen: Polarization orbital for state 3p

   izeta = 1
                     rc =    8.464845
                 energy =    0.321949
                kinetic =    1.055677
    potential(screened) =   -0.733728
       potential(ionic) =   -2.672950
atom: Total number of Sankey-type orbitals: 13

atm_pop: Valence configuration (for local Pseudopot. screening):
 3s( 2.00)                                                            
 3p( 2.00)                                                            
Vna: chval, zval:    4.00000   4.00000

Vna:  Cut-off radius for the neutral-atom potential:   8.464845

atom: _________________________________________________________________________

<basis_specs>
===============================================================================
O                    Z=   8    Mass=  16.000        Charge= 0.17977+309
Lmxo=1 Lmxkb= 3    BasisType=split      Semic=F
L=0  Nsemic=0  Cnfigmx=2
          i=1  nzeta=2  polorb=0  (2s)
            splnorm:   0.28000    
               vcte:    0.0000    
               rinn:    0.0000    
               qcoe:    0.0000    
               qyuk:    0.0000    
               qwid:   0.10000E-01
                rcs:    0.0000      0.0000    
            lambdas:    1.0000      1.0000    
L=1  Nsemic=0  Cnfigmx=2
          i=1  nzeta=2  polorb=1  (2p)
            splnorm:   0.28000    
               vcte:    0.0000    
               rinn:    0.0000    
               qcoe:    0.0000    
               qyuk:    0.0000    
               qwid:   0.10000E-01
                rcs:    0.0000      0.0000    
            lambdas:    1.0000      1.0000    
-------------------------------------------------------------------------------
L=0  Nkbl=1  erefs: 0.17977+309
L=1  Nkbl=1  erefs: 0.17977+309
L=2  Nkbl=1  erefs: 0.17977+309
L=3  Nkbl=1  erefs: 0.17977+309
===============================================================================
</basis_specs>

atom: Called for O                     (Z =   8)

read_vps: Pseudopotential generation method:
read_vps: ATM4.2.7  Troullier-Martins                       
Valence charge for ps generation:    6.00000

xc_check: Exchange-correlation functional:
xc_check: GGA Perdew, Burke & Ernzerhof 1996
V l=0 = -2*Zval/r beyond r=  1.1000
V l=1 = -2*Zval/r beyond r=  1.1000
V l=2 = -2*Zval/r beyond r=  2.2154
V l=3 = -2*Zval/r beyond r=  1.1000
All V_l potentials equal beyond r=  2.2154
This should be close to max(r_c) in ps generation
All pots = -2*Zval/r beyond r=  2.2154

VLOCAL1: 99.0% of the norm of Vloc inside      8.845 Ry
VLOCAL1: 99.9% of the norm of Vloc inside     20.157 Ry
atom: Maximum radius for 4*pi*r*r*local-pseudopot. charge    2.67231
atom: Maximum radius for r*vlocal+2*Zval:    2.32897
GHOST: No ghost state for L =  0
GHOST: No ghost state for L =  1
GHOST: No ghost state for L =  2
GHOST: No ghost state for L =  3

KBgen: Kleinman-Bylander projectors: 
   l= 0   rc=  2.243238   el= -1.759686   Ekb=**********   kbcos= -0.171774
   l= 1   rc=  2.328968   el= -0.663873   Ekb=-14.506792   kbcos= -0.519897
   l= 2   rc=  2.573941   el=  0.002031   Ekb= -1.137373   kbcos= -0.019581
   l= 3   rc=  2.606321   el=  0.003153   Ekb= -1.013546   kbcos= -0.003122

KBgen: Total number of Kleinman-Bylander projectors:   16
atom: -------------------------------------------------------------------------

atom: SANKEY-TYPE ORBITALS:
atom: Selected multiple-zeta basis: split     

SPLIT: Orbitals with angular momentum L= 0

SPLIT: Basis orbitals for state 2s

SPLIT: PAO cut-off radius determined from an
SPLIT: energy shift=  0.002000 Ry

   izeta = 1
                 lambda =    1.000000
                     rc =    4.243912
                 energy =   -1.758270
                kinetic =    3.286084
    potential(screened) =   -5.044353
       potential(ionic) =  -12.921184

   izeta = 2
                 rmatch =    2.187845
              splitnorm =    0.280000
                 energy =   -0.885018
                kinetic =    8.134434
    potential(screened) =   -9.019452
       potential(ionic) =  -17.710645

SPLIT: Orbitals with angular momentum L= 1

SPLIT: Basis orbitals for state 2p

SPLIT: PAO cut-off radius determined from an
SPLIT: energy shift=  0.002000 Ry

   izeta = 1
                 lambda =    1.000000
                     rc =    5.314825
                 energy =   -0.661986
                kinetic =    4.917472
    potential(screened) =   -5.579458
       potential(ionic) =  -13.236259

   izeta = 2
                 rmatch =    2.160663
              splitnorm =    0.280000
                 energy =   -0.068760
                kinetic =    9.183374
    potential(screened) =   -9.252135
       potential(ionic) =  -18.274251

POLgen: Perturbative polarization orbital with L=  2

POLgen: Polarization orbital for state 2p

   izeta = 1
                     rc =    5.314825
                 energy =    1.970580
                kinetic =    3.886128
    potential(screened) =   -1.915547
       potential(ionic) =   -7.749584
atom: Total number of Sankey-type orbitals: 13

atm_pop: Valence configuration (for local Pseudopot. screening):
 2s( 2.00)                                                            
 2p( 4.00)                                                            
Vna: chval, zval:    6.00000   6.00000

Vna:  Cut-off radius for the neutral-atom potential:   5.314825

atom: _________________________________________________________________________

prinput: Basis input ----------------------------------------------------------

PAO.BasisType split     

%block ChemicalSpeciesLabel
    1    1 H                       # Species index, atomic number, species label
    2    7 N                       # Species index, atomic number, species label
    3   14 Si                      # Species index, atomic number, species label
    4    8 O                       # Species index, atomic number, species label
%endblock ChemicalSpeciesLabel

%block PAO.Basis                 # Define Basis set
H                     1                    # Species label, number of l-shells
 n=1   0   2 P   1                   # n, l, Nzeta, Polarization, NzetaPol
   6.518      2.141   
   1.000      1.000   
N                     2                    # Species label, number of l-shells
 n=2   0   2                         # n, l, Nzeta 
   4.730      2.532   
   1.000      1.000   
 n=2   1   2 P   1                   # n, l, Nzeta, Polarization, NzetaPol
   5.924      2.532   
   1.000      1.000   
Si                    2                    # Species label, number of l-shells
 n=3   0   2                         # n, l, Nzeta 
   6.430      3.998   
   1.000      1.000   
 n=3   1   2 P   1                   # n, l, Nzeta, Polarization, NzetaPol
   8.465      4.588   
   1.000      1.000   
O                     2                    # Species label, number of l-shells
 n=2   0   2                         # n, l, Nzeta 
   4.244      2.188   
   1.000      1.000   
 n=2   1   2 P   1                   # n, l, Nzeta, Polarization, NzetaPol
   5.315      2.161   
   1.000      1.000   
%endblock PAO.Basis

prinput: ----------------------------------------------------------------------

Dumping basis to NetCDF file H.ion.nc
Dumping basis to NetCDF file N.ion.nc
Dumping basis to NetCDF file Si.ion.nc
Dumping basis to NetCDF file O.ion.nc
coor:   Atomic-coordinates input format  =     Cartesian coordinates
coor:                                          (in Angstroms)

siesta: Atomic coordinates (Bohr) and species
siesta:      4.87999 -10.91663   0.00000  1        1
siesta:      3.12704  -9.95765   0.00000  2        2
siesta:      0.11930 -11.53056   0.00000  3        3
siesta:      0.22530 -14.35597   0.00000  1        4
siesta:     -2.60195  -9.79371   0.00000  2        5
siesta:     -1.55784  -6.54009   0.00000  3        6
siesta:     -2.21206  -2.39996   0.00000  3        7
siesta:     -5.11537  -0.78899   0.00000  2        8
siesta:     -5.20538   1.19971   0.00000  1        9
siesta:     -6.87421  -1.71959   0.00000  1       10
siesta:      0.41213  -0.44256   0.00000  2       11
siesta:      3.53758  -1.31745   0.00000  3       12
siesta:      5.34415   0.87204   0.00000  1       13
siesta:      5.00428  -4.26138   0.00000  2       14
siesta:      2.63035  -6.52849   0.00000  3       15
siesta:      3.59584   8.58406   0.00000  2       16
siesta:      1.08747  10.87102   0.00000  3       17
siesta:      2.29690  13.44354   0.00000  1       18
siesta:     -2.85402   9.60390   0.00000  3       19
siesta:     -6.68934  11.73951   0.00000  3       20
siesta:     -6.39787  13.93203   1.77692  1       21
siesta:     -8.55248   9.80836   0.96870  1       22
siesta:     -7.47587  12.63945  -2.58265  1       23
siesta:     -2.72836   5.30670   0.00000  3       24
siesta:     -4.69188   3.05215   0.00000  4       25
siesta:      0.40290   4.10866   0.00000  2       26
siesta:      0.36885   2.10093   0.00000  1       27
siesta:      3.47107   5.23696   0.00000  3       28
siesta:      5.72932   3.31998   0.00000  4       29
siesta:      5.48564   9.23698   0.00000  1       30

siesta: Automatic unit cell vectors (Ang):
siesta:   15.808622    0.000000    0.000000
siesta:    0.000000   24.054876    0.000000
siesta:    0.000000    0.000000   10.224979

siesta: System type = molecule  

initatomlists: Number of atoms, orbitals, and projectors:     30   302   403

siesta: ******************** Simulation parameters ****************************
siesta:
siesta: The following are some of the parameters of the simulation.
siesta: A complete list of the parameters used, including default values,
siesta: can be found in file out.fdf
siesta:
redata: Spin configuration                          = spin-orbit
redata: Number of spin components                   = 8
redata: Time-Reversal Symmetry                      = F
redata: Spin spiral                                 = F
############################################################
This spin-orbit implementation uses a local approximation.
From 4.2 and onwards the full non-local approximation is implemented
You are strongly advised to use >=4.2 versions!
############################################################
redata: Long output                                 =   F
redata: Number of Atomic Species                    =        4
redata: Charge density info will appear in .RHO file
redata: Write Mulliken Pop.                         = Atomic and Orbital charges
redata: Matel table size (NRTAB)                    =     1024
redata: Mesh Cutoff                                 =   340.0000 Ry
redata: Net charge of the system                    =     0.0000 |e|
redata: Min. number of SCF Iter                     =        1
redata: Max. number of SCF Iter                     =      200
redata: SCF mix quantity                            = Hamiltonian
redata: Mix DM or H after convergence               =   F
redata: Recompute H after scf cycle                 =   F
redata: Mix DM in first SCF step                    =   T
redata: Write Pulay info on disk                    =   F
redata: New DM Occupancy tolerance                  = 0.000000000001
redata: No kicks to SCF
redata: DM Mixing Weight for Kicks                  =     0.5000
redata: Require Harris convergence for SCF          =   F
redata: Harris energy tolerance for SCF             =     0.000100 eV
redata: Require DM convergence for SCF              =   T
redata: DM tolerance for SCF                        =     0.000008
redata: Require EDM convergence for SCF             =   F
redata: EDM tolerance for SCF                       =     0.001000 eV
redata: Require H convergence for SCF               =   T
redata: Hamiltonian tolerance for SCF               =     0.000001 eV
redata: Require (free) Energy convergence for SCF   =   F
redata: (free) Energy tolerance for SCF             =     0.000100 eV
redata: Using Saved Data (generic)                  =   F
redata: Use continuation files for DM               =   F
redata: Neglect nonoverlap interactions             =   F
redata: Method of Calculation                       = Diagonalization
redata: Electronic Temperature                      =   299.9978 K
redata: Fix the spin of the system                  =   F
redata: Dynamics option                             = Single-point calculation
mix.SCF: Pulay mixing                            = Pulay
mix.SCF:    Variant                              = stable
mix.SCF:    History steps                        = 6
mix.SCF:    Linear mixing weight                 =     0.250000
mix.SCF:    Mixing weight                        =     0.250000
mix.SCF:    SVD condition                        = 0.1000E-07
mix.SCF:    Restart steps                        = 24
mix.SCF:    Restart save steps                   = 3
mix.SCF: Spin-component mixing                   all
redata: Save all siesta data in one NC              =   F
redata: ***********************************************************************

%block SCF.Mixers
  Pulay
%endblock SCF.Mixers

%block SCF.Mixer.Pulay
  # Mixing method
  method pulay
  variant stable

  # Mixing options
  weight 0.2500
  weight.linear 0.2500
  history 6
  restart 24
  restart.save 3
%endblock SCF.Mixer.Pulay

DM_history_depth set to one: no extrapolation allowed by default for geometry relaxation
Size of DM history Fstack: 1
Total number of electrons:    98.000000
Total ionic charge:    98.000000

* ProcessorY, Blocksize:    2  24


* Orbital distribution balance (max,min):    62    48


Time-reversal symmetry not used.

siesta: k-grid: Number of k-points =     1
siesta: k-grid: Cutoff (effective) =     5.112 Ang
siesta: k-grid: Supercell and displacements
siesta: k-grid:    1   0   0      0.000
siesta: k-grid:    0   1   0      0.000
siesta: k-grid:    0   0   1      0.000

diag: Algorithm                                     = ELPA-1stage
diag: Parallel over k                               =   F
diag: Use parallel 2D distribution                  =   T
diag: Parallel block-size                           = 24
diag: Parallel distribution                         =     2 x     3
diag: Used triangular part                          = Lower
diag: Absolute tolerance                            =  0.100E-15
diag: Orthogonalization factor                      =  0.100E-05
diag: Memory factor                                 =  1.0000


ts: **************************************************************
ts: Save H and S matrices                           =    F
ts: Save DM and EDM matrices                        =    F
ts: Only save the overlap matrix S                  =    F
ts: **************************************************************

************************ Begin: TS CHECKS AND WARNINGS ************************
************************ End: TS CHECKS AND WARNINGS **************************


                     ====================================
                        Single-point calculation
                     ====================================

outcoor: Atomic coordinates (Ang):                          
    2.58237765   -5.77683044    0.00000000   1       1  H
    1.65475924   -5.26936198    0.00000000   2       2  N
    0.06312884   -6.10170459    0.00000000   3       3  Si
    0.11922324   -7.59684950    0.00000000   1       4  H
   -1.37689205   -5.18260374    0.00000000   2       5  N
   -0.82437190   -3.46086644    0.00000000   3       6  Si
   -1.17057148   -1.27000210    0.00000000   3       7  Si
   -2.70693368   -0.41751578    0.00000000   2       8  N
   -2.75456966    0.63485862    0.00000000   1       9  H
   -3.63767564   -0.90996786    0.00000000   1      10  H
    0.21809179   -0.23419397    0.00000000   2      11  N
    1.87200410   -0.69716230    0.00000000   3      12  Si
    2.82800113    0.46146477    0.00000000   1      13  H
    2.64815008   -2.25502447    0.00000000   2      14  N
    1.39192138   -3.45472722    0.00000000   3      15  Si
    1.90283735    4.54248873    0.00000000   2      16  N
    0.57546583    5.75269303    0.00000000   3      17  Si
    1.21546710    7.11401127    0.00000000   1      18  H
   -1.51028011    5.08216168    0.00000000   3      19  Si
   -3.53984271    6.21227787    0.00000000   3      20  Si
   -3.38560694    7.37250808    0.94030528   1      21  H
   -4.52577743    5.19035725    0.51261370   1      22  H
   -3.95605767    6.68850372   -1.36667834   1      23  H
   -1.44378469    2.80818506    0.00000000   3      24  Si
   -2.48283342    1.61512556    0.00000000   4      25  O
    0.21320689    2.17420987    0.00000000   2      26  N
    0.19518952    1.11176504    0.00000000   1      27  H
    1.83680996    2.77128008    0.00000000   3      28  Si
    3.03182613    1.75685488    0.00000000   4      29  O
    2.90287472    4.88799583    0.00000000   1      30  H

outcell: Unit cell vectors (Ang):
       15.808622    0.000000    0.000000
        0.000000   24.054876    0.000000
        0.000000    0.000000   10.224979

outcell: Cell vector modules (Ang)   :   15.808622   24.054876   10.224979
outcell: Cell angles (23,13,12) (deg):     90.0000     90.0000     90.0000
outcell: Cell volume (Ang**3)        :   3888.2983
<dSpData1D:S at geom step 0
  <sparsity:sparsity for geom step 0
    nrows_g=302 nrows=62 sparsity=.1623 nnzs=14802, refcount: 8>
  <dData1D:(new from dSpData1D) n=14802, refcount: 1>
refcount: 1>
new_DM -- step:     1
Initializing Density Matrix...
DM filled with atomic data:
<dSpData2D:DM initialized from atoms
  <sparsity:sparsity for geom step 0
    nrows_g=302 nrows=62 sparsity=.1623 nnzs=14802, refcount: 9>
  <dData2D:DM n=14802 m=8, refcount: 1>
refcount: 1>
     spin moment: S , {S} =   56.00000   0.00000   0.00000  56.00000
No. of atoms with KB's overlaping orbs in proc 0. Max # of overlaps:      24     215

Initializing spin-orbit part of the Hamiltonian
  Adding spin-orbit effects for H 
  Adding spin-orbit effects for N 
  Adding spin-orbit effects for Si
  Adding spin-orbit effects for O 


New grid distribution:   1
           1       1:   90    1:   68    1:   20
           2       1:   90    1:   68   21:   40
           3       1:   90    1:   68   41:   60
           4       1:   90   69:  135    1:   20
           5       1:   90   69:  135   21:   40
           6       1:   90   69:  135   41:   60

InitMesh: MESH =   180 x   270 x   120 =     5832000
InitMesh: (bp) =    90 x   135 x    60 =      729000
InitMesh: Mesh cutoff (required, used) =   340.000   348.195 Ry
ExtMesh (bp) on 0 =   194 x   172 x   128 =     4271104
New grid distribution:   2
           1       1:   12   37:  135    1:   60
           2      14:   90    1:   15    1:   60
           3       1:   13    1:   36    1:   60
           4      13:   90   37:  116    1:   60
           5      14:   90   16:   36    1:   60
           6      13:   90  117:  135    1:   60
New grid distribution:   3
           1       1:   18   50:  135    1:   60
           2      24:   90   27:   49    1:   60
           3       1:   23    1:   49    1:   60
           4      19:   90   50:  111    1:   60
           5      24:   90    1:   26    1:   60
           6      19:   90  112:  135    1:   60
Setting up quadratic distribution...
ExtMesh (bp) on 0 =   116 x   203 x   168 =     3956064
PhiOnMesh: Number of (b)points on node 0 =                71280
PhiOnMesh: nlist on node 0 =              1586945

stepf: Fermi-Dirac step function

siesta: Program's energy decomposition (eV):
siesta: Ebs     =      -592.382623
siesta: Eions   =      3553.971015
siesta: Ena     =       382.550528
siesta: Ekin    =      3211.921109
siesta: Enl     =     -3023.791345
siesta: Eso     =        -0.004078
siesta: Edftu   =         0.000000
siesta: DEna    =       132.800048
siesta: DUscf   =        76.845181
siesta: DUext   =         0.000000
siesta: Exc     =     -1178.671125
siesta: eta*DQ  =         0.000000
siesta: Emadel  =         0.000000
siesta: Emeta   =         0.000000
siesta: Emolmec =         0.000000
siesta: Ekinion =         0.000000
siesta: Eharris =     -3865.370557
siesta: Etot    =     -3952.320697
siesta: FreeEng =     -3952.326736

        iscf     Eharris(eV)        E_KS(eV)     FreeEng(eV)     dDmax    Ef(eV) dHmax(eV)
   scf:    1    -3865.370557    -3952.320697    -3952.326736  0.960892 -4.968233 23.115041
     spin moment: S , {S} =    2.05010   0.00004  -0.00000   2.05010
timer: Routine,Calls,Time,% = IterSCF        1       5.403  20.33
   scf:    2    -3999.060587    -3988.164851    -3988.165315  0.443777 -4.308617 10.053473
     spin moment: S , {S} =    2.00243  -0.00001   0.00001   2.00243
   scf:    3    -3989.616581    -3992.219030    -3992.220452  0.414184 -4.054387  7.520676
     spin moment: S , {S} =    0.00867   0.00001  -0.00001   0.00867
   scf:    4    -3994.995993    -3993.764843    -3993.768089  0.027978 -3.788360  5.530786
     spin moment: S , {S} =    0.02310   0.00001  -0.00000   0.02310
   scf:    5    -3984.827978    -3991.771516    -3991.776026  0.467336 -3.767495  5.235259
     spin moment: S , {S} =    1.96545   0.00002   0.00007   1.96545
   scf:    6    -3993.692230    -3994.801497    -3994.801910  0.453213 -3.732250  2.452891
     spin moment: S , {S} =    0.00207   0.00000  -0.00000   0.00207
   scf:    7    -3995.408511    -3995.104338    -3995.104701  0.025335 -3.786321  1.260108
     spin moment: S , {S} =    0.00176   0.00000  -0.00000   0.00176
   scf:    8    -3995.326192    -3995.233397    -3995.235604  0.023625 -3.840505  0.367913
     spin moment: S , {S} =    0.01185   0.00000   0.00000   0.01185
   scf:    9    -3995.245227    -3995.245864    -3995.249771  0.013248 -3.866343  0.325288
     spin moment: S , {S} =    0.01385   0.00000   0.00000   0.01385
   scf:   10    -3995.281199    -3995.263779    -3995.266707  0.005765 -3.873641  0.206069
     spin moment: S , {S} =    0.00277   0.00000   0.00000   0.00277
   scf:   11    -3995.282481    -3995.274775    -3995.276594  0.007656 -3.872641  0.086009
     spin moment: S , {S} =    0.00075   0.00000   0.00000  -0.00075
   scf:   12    -3995.281342    -3995.277890    -3995.279930  0.004366 -3.875335  0.047884
     spin moment: S , {S} =    0.00149   0.00000   0.00000  -0.00149
   scf:   13    -3995.282178    -3995.279767    -3995.281763  0.004812 -3.874227  0.035751
     spin moment: S , {S} =    0.00128   0.00000   0.00000  -0.00128
   scf:   14    -3995.280886    -3995.280250    -3995.282259  0.003015 -3.872627  0.020019
     spin moment: S , {S} =    0.00080   0.00000   0.00000  -0.00080
   scf:   15    -3995.280527    -3995.280375    -3995.282383  0.001556 -3.871644  0.013438
     spin moment: S , {S} =    0.00052   0.00000   0.00000  -0.00052
   scf:   16    -3995.280544    -3995.280444    -3995.282456  0.001755 -3.871394  0.007610
     spin moment: S , {S} =    0.00046   0.00000   0.00000  -0.00046
   scf:   17    -3995.280481    -3995.280461    -3995.282467  0.000523 -3.871483  0.004541
     spin moment: S , {S} =    0.00042   0.00000   0.00000  -0.00042
   scf:   18    -3995.280484    -3995.280471    -3995.282476  0.000507 -3.871534  0.002764
     spin moment: S , {S} =    0.00029   0.00000   0.00000  -0.00029
   scf:   19    -3995.280482    -3995.280476    -3995.282478  0.000277 -3.871571  0.001674
     spin moment: S , {S} =    0.00020   0.00000   0.00000  -0.00020
   scf:   20    -3995.280478    -3995.280477    -3995.282480  0.000236 -3.871544  0.000788
     spin moment: S , {S} =    0.00009   0.00000   0.00000  -0.00009
   scf:   21    -3995.280478    -3995.280477    -3995.282480  0.000101 -3.871545  0.000366
     spin moment: S , {S} =    0.00007   0.00000   0.00000  -0.00007
   scf:   22    -3995.280477    -3995.280477    -3995.282480  0.000055 -3.871549  0.000298
     spin moment: S , {S} =    0.00005   0.00000   0.00000  -0.00005
   scf:   23    -3995.280477    -3995.280477    -3995.282480  0.000043 -3.871549  0.000266
     spin moment: S , {S} =    0.00005   0.00000   0.00000  -0.00005
   scf:   24    -3995.280478    -3995.280477    -3995.282480  0.000054 -3.871551  0.000198
     spin moment: S , {S} =    0.00004   0.00000   0.00000  -0.00004
mix: Pulay -- resetting history
   scf:   25    -3995.280477    -3995.280477    -3995.282480  0.000026 -3.871550  0.000159
     spin moment: S , {S} =    0.00004   0.00000   0.00000  -0.00004
   scf:   26    -3995.280478    -3995.280478    -3995.282480  0.000031 -3.871549  0.000134
     spin moment: S , {S} =    0.00003   0.00000   0.00000  -0.00003
   scf:   27    -3995.280477    -3995.280477    -3995.282480  0.000024 -3.871548  0.000095
     spin moment: S , {S} =    0.00002   0.00000   0.00000  -0.00002
   scf:   28    -3995.280478    -3995.280477    -3995.282480  0.000030 -3.871548  0.000061
     spin moment: S , {S} =    0.00001   0.00000   0.00000  -0.00001
   scf:   29    -3995.280478    -3995.280477    -3995.282480  0.000017 -3.871548  0.000040
     spin moment: S , {S} =    0.00001   0.00000   0.00000  -0.00001
   scf:   30    -3995.280478    -3995.280478    -3995.282480  0.000017 -3.871549  0.000022
     spin moment: S , {S} =    0.00000   0.00000   0.00000  -0.00000
   scf:   31    -3995.280478    -3995.280478    -3995.282480  0.000010 -3.871549  0.000013
     spin moment: S , {S} =    0.00000   0.00000   0.00000  -0.00000
   scf:   32    -3995.280478    -3995.280478    -3995.282480  0.000006 -3.871549  0.000012
     spin moment: S , {S} =    0.00000   0.00000   0.00000  -0.00000
   scf:   33    -3995.280478    -3995.280478    -3995.282480  0.000003 -3.871549  0.000009
     spin moment: S , {S} =    0.00000   0.00000  -0.00000   0.00000
   scf:   34    -3995.280478    -3995.280478    -3995.282480  0.000002 -3.871549  0.000007
     spin moment: S , {S} =    0.00000   0.00000  -0.00000   0.00000
   scf:   35    -3995.280478    -3995.280478    -3995.282480  0.000001 -3.871549  0.000003
     spin moment: S , {S} =    0.00000  -0.00000  -0.00000   0.00000
   scf:   36    -3995.280478    -3995.280478    -3995.282480  0.000000 -3.871549  0.000003
     spin moment: S , {S} =    0.00000  -0.00000  -0.00000   0.00000
   scf:   37    -3995.280478    -3995.280478    -3995.282480  0.000000 -3.871549  0.000002
     spin moment: S , {S} =    0.00000  -0.00000  -0.00000   0.00000
   scf:   38    -3995.280478    -3995.280478    -3995.282480  0.000000 -3.871549  0.000001
     spin moment: S , {S} =    0.00000  -0.00000  -0.00000   0.00000
   scf:   39    -3995.280478    -3995.280478    -3995.282480  0.000000 -3.871549  0.000001
     spin moment: S , {S} =    0.00000   0.00000  -0.00000   0.00000

SCF Convergence by DM+H criterion
max |DM_out - DM_in|         :     0.0000003858
max |H_out - H_in|      (eV) :     0.0000008567
SCF cycle converged after 39 iterations

Using DM_out to compute the final energy and forces
No. of atoms with KB's overlaping orbs in proc 0. Max # of overlaps:      24     215

siesta: E_KS(eV) =            -3995.2805

siesta: E_KS - E_eggbox =     -3995.2805
     spin moment: S , {S} =    0.00000   0.00000  -0.00000   0.00000

siesta: Atomic forces (eV/Ang):
     1   -0.025586   -0.020151    0.000018
     2   -0.077559   -0.197921   -0.000192
     3    0.105157    0.066686   -0.000175
     4   -0.052934    0.010201    0.000115
     5   -0.053225   -0.015960    0.000061
     6    0.214312   -0.057722    0.000388
     7   -2.034004   -0.048444    0.000514
     8    0.022844   -8.960860   -0.002480
     9   -1.239914   -2.265063    0.001760
    10    0.095456   -0.629729    0.000135
    11   -0.215853   -2.591775   -0.000629
    12    0.719380   -2.054683   -0.000983
    13   -0.033031   -0.896422   -0.000145
    14   -0.362756   -0.688075    0.000827
    15    0.241069   -0.044497   -0.000267
    16    0.419706   -0.180564    0.007058
    17   -0.003336    0.061125   -0.033723
    18   -0.003362    0.146760    0.005978
    19   -0.242553   -0.188213   -0.045493
    20    0.096958   -0.009160    0.014094
    21   -0.146052    0.181722    0.078179
    22   -0.035396    0.020566    0.029432
    23    0.084223   -0.105721    0.013062
    24    1.598126    1.213611   -0.025797
    25    3.436804    8.318489    0.005389
    26    0.110432    4.992042    0.008830
    27   -0.334959   -2.341043    0.002724
    28   -1.837244    1.218293   -0.000810
    29    2.917347    6.753413   -0.001118
    30    0.007275    0.394066    0.006153
----------------------------------------
   Tot    3.371323    2.080971    0.062904
----------------------------------------
   Max    8.960860
   Res    1.762951    sqrt( Sum f_i^2 / 3N )
----------------------------------------
   Max    8.960860    constrained

Stress tensor Voigt[x,y,z,yz,xz,xy] (kbar):       -2.64      -18.72       -0.23       -0.05        0.06       -2.00
(Free)E + p*V (eV/cell)    -3977.8140
Target enthalpy (eV/cell)    -3995.2825

mulliken: Atomic and Orbital Populations:

Species: H                   

Atom      Orb        Charge      Spin       Svec
----------------------------------------------------------------
    1  1 1s         0.51301   0.00000     -0.000  -0.000  -0.000
    1  2 1s         0.18730   0.00000      0.000   0.000  -0.000
    1  3 2Ppy       0.02848   0.00000      0.000   0.000  -0.000
    1  4 2Ppz       0.04018   0.00000     -0.000  -0.000   0.000
    1  5 2Ppx       0.02523   0.00000     -0.000  -0.000   0.000
    1     Total     0.79420   0.00000     -0.000  -0.000  -0.000

    4  1 1s         1.02459   0.00000     -0.000   0.000  -0.000
    4  2 1s         0.09516   0.00000      0.000  -0.000  -0.000
    4  3 2Ppy       0.03897   0.00000      0.000  -0.000   0.000
    4  4 2Ppz       0.01982   0.00000     -0.000  -0.000  -0.000
    4  5 2Ppx       0.01362   0.00000      0.000   0.000   0.000
    4     Total     1.19217   0.00000     -0.000   0.000  -0.000

    9  1 1s         0.26508   0.00000     -0.000   0.000   0.000
    9  2 1s         0.27325   0.00000      0.000  -0.000   0.000
    9  3 2Ppy       0.18153   0.00000      0.000  -0.000  -0.000
    9  4 2Ppz       0.08566   0.00000      0.000   0.000   0.000
    9  5 2Ppx       0.05815   0.00000      0.000   0.000   0.000
    9     Total     0.86367   0.00000     -0.000   0.000   0.000

   10  1 1s         0.52621   0.00000     -0.000  -0.000   0.000
   10  2 1s         0.18821   0.00000      0.000   0.000   0.000
   10  3 2Ppy       0.02282   0.00000      0.000   0.000   0.000
   10  4 2Ppz       0.05315   0.00000     -0.000  -0.000  -0.000
   10  5 2Ppx       0.03241   0.00000     -0.000  -0.000   0.000
   10     Total     0.82279   0.00000     -0.000  -0.000   0.000

   13  1 1s         0.71821   0.00000     -0.000  -0.000   0.000
   13  2 1s         0.14394   0.00000      0.000   0.000  -0.000
   13  3 2Ppy       0.11444   0.00000      0.000  -0.000  -0.000
   13  4 2Ppz       0.03378   0.00000     -0.000  -0.000   0.000
   13  5 2Ppx       0.05169   0.00000     -0.000   0.000   0.000
   13     Total     1.06205   0.00000     -0.000  -0.000   0.000

   18  1 1s         1.04574   0.00000     -0.000   0.000  -0.000
   18  2 1s         0.08455   0.00000     -0.000  -0.000   0.000
   18  3 2Ppy       0.02799   0.00000     -0.000   0.000  -0.000
   18  4 2Ppz       0.02035   0.00000      0.000  -0.000   0.000
   18  5 2Ppx       0.01758   0.00000     -0.000   0.000  -0.000
   18     Total     1.19620   0.00000     -0.000   0.000  -0.000

   21  1 1s         1.06659   0.00000      0.000   0.000  -0.000
   21  2 1s         0.08251   0.00000     -0.000  -0.000  -0.000
   21  3 2Ppy       0.02228   0.00000      0.000   0.000  -0.000
   21  4 2Ppz       0.02096   0.00000      0.000   0.000   0.000
   21  5 2Ppx       0.01177   0.00000     -0.000  -0.000   0.000
   21     Total     1.20411   0.00000      0.000   0.000  -0.000

   22  1 1s         1.05667   0.00000     -0.000   0.000  -0.000
   22  2 1s         0.08291   0.00000      0.000  -0.000  -0.000
   22  3 2Ppy       0.01976   0.00000     -0.000  -0.000   0.000
   22  4 2Ppz       0.01778   0.00000     -0.000  -0.000   0.000
   22  5 2Ppx       0.01724   0.00000     -0.000  -0.000   0.000
   22     Total     1.19435   0.00000     -0.000   0.000  -0.000

   23  1 1s         1.06449   0.00000      0.000   0.000  -0.000
   23  2 1s         0.08262   0.00000     -0.000  -0.000  -0.000
   23  3 2Ppy       0.01683   0.00000      0.000   0.000  -0.000
   23  4 2Ppz       0.02451   0.00000     -0.000  -0.000  -0.000
   23  5 2Ppx       0.01358   0.00000     -0.000   0.000   0.000
   23     Total     1.20204   0.00000      0.000   0.000  -0.000

   27  1 1s         0.45064   0.00000     -0.000   0.000   0.000
   27  2 1s         0.18576   0.00000      0.000  -0.000  -0.000
   27  3 2Ppy       0.14957   0.00000     -0.000  -0.000  -0.000
   27  4 2Ppz       0.04752   0.00000      0.000  -0.000   0.000
   27  5 2Ppx       0.05492   0.00000      0.000  -0.000  -0.000
   27     Total     0.88840   0.00000     -0.000  -0.000   0.000

   30  1 1s         0.49769   0.00000      0.000  -0.000  -0.000
   30  2 1s         0.18730   0.00000     -0.000   0.000  -0.000
   30  3 2Ppy       0.02973   0.00000      0.000   0.000   0.000
   30  4 2Ppz       0.03514   0.00000      0.000   0.000  -0.000
   30  5 2Ppx       0.02562   0.00000      0.000  -0.000   0.000
   30     Total     0.77548   0.00000      0.000  -0.000  -0.000

----------------------------------------------------------------
Total              11.19547   0.00000     -0.000   0.000  -0.000


Species: N                   

Atom      Orb        Charge      Spin       Svec
----------------------------------------------------------------
    2  1 2s         1.38049   0.00000      0.000   0.000   0.000
    2  2 2s         0.12695   0.00000     -0.000  -0.000  -0.000
    2  3 2py        1.07215   0.00000      0.000   0.000   0.000
    2  4 2pz        1.49049   0.00000     -0.000   0.000   0.000
    2  5 2px        1.01259   0.00000     -0.000   0.000   0.000
    2  6 2py        0.19587   0.00000      0.000  -0.000  -0.000
    2  7 2pz        0.01492   0.00000      0.000  -0.000  -0.000
    2  8 2px        0.21140   0.00000      0.000  -0.000  -0.000
    2  9 3Pdxy      0.00705   0.00000      0.000   0.000   0.000
    2 10 3Pdyz      0.00582   0.00000      0.000  -0.000  -0.000
    2 11 3Pdz2      0.00158   0.00000      0.000  -0.000  -0.000
    2 12 3Pdxz      0.00303   0.00000      0.000   0.000   0.000
    2 13 3Pdx2-y2   0.00302   0.00000     -0.000   0.000  -0.000
    2     Total     5.52536   0.00000     -0.000   0.000   0.000

    5  1 2s         1.55775   0.00000     -0.000   0.000  -0.000
    5  2 2s         0.08165   0.00000      0.000  -0.000  -0.000
    5  3 2py        0.90237   0.00000     -0.000   0.000  -0.000
    5  4 2pz        1.22216   0.00000     -0.000   0.000  -0.000
    5  5 2px        1.14536   0.00000      0.000   0.000  -0.000
    5  6 2py        0.22945   0.00000      0.000   0.000  -0.000
    5  7 2pz        0.05528   0.00000      0.000  -0.000  -0.000
    5  8 2px        0.14563   0.00000     -0.000   0.000  -0.000
    5  9 3Pdxy      0.00864   0.00000     -0.000  -0.000   0.000
    5 10 3Pdyz      0.00691   0.00000      0.000  -0.000  -0.000
    5 11 3Pdz2      0.00192   0.00000      0.000  -0.000  -0.000
    5 12 3Pdxz      0.01130   0.00000      0.000  -0.000   0.000
    5 13 3Pdx2-y2   0.00923   0.00000     -0.000   0.000   0.000
    5     Total     5.37764   0.00000      0.000   0.000  -0.000

    8  1 2s         1.33257   0.00000      0.000   0.000  -0.000
    8  2 2s         0.15218   0.00000     -0.000  -0.000  -0.000
    8  3 2py        1.19886   0.00000      0.000  -0.000  -0.000
    8  4 2pz        1.44129   0.00000      0.000   0.000  -0.000
    8  5 2px        0.95927   0.00000      0.000  -0.000  -0.000
    8  6 2py        0.14770   0.00000     -0.000  -0.000   0.000
    8  7 2pz        0.03407   0.00000      0.000  -0.000   0.000
    8  8 2px        0.23112   0.00000     -0.000  -0.000   0.000
    8  9 3Pdxy      0.00437   0.00000      0.000  -0.000   0.000
    8 10 3Pdyz      0.00208   0.00000      0.000   0.000   0.000
    8 11 3Pdz2      0.00292   0.00000     -0.000   0.000   0.000
    8 12 3Pdxz      0.00247   0.00000      0.000  -0.000   0.000
    8 13 3Pdx2-y2   0.00615   0.00000     -0.000   0.000  -0.000
    8     Total     5.51504   0.00000      0.000   0.000  -0.000

   11  1 2s         1.41379   0.00000     -0.000  -0.000   0.000
   11  2 2s         0.11370   0.00000      0.000   0.000  -0.000
   11  3 2py        1.16203   0.00000      0.000  -0.000   0.000
   11  4 2pz        1.38400   0.00000     -0.000  -0.000   0.000
   11  5 2px        0.87321   0.00000     -0.000   0.000  -0.000
   11  6 2py        0.13937   0.00000     -0.000   0.000  -0.000
   11  7 2pz        0.02257   0.00000      0.000   0.000  -0.000
   11  8 2px        0.29179   0.00000      0.000  -0.000   0.000
   11  9 3Pdxy      0.00495   0.00000      0.000  -0.000  -0.000
   11 10 3Pdyz      0.00408   0.00000     -0.000  -0.000   0.000
   11 11 3Pdz2      0.00192   0.00000     -0.000   0.000   0.000
   11 12 3Pdxz      0.00535   0.00000     -0.000   0.000   0.000
   11 13 3Pdx2-y2   0.01083   0.00000     -0.000  -0.000  -0.000
   11     Total     5.42759   0.00000     -0.000  -0.000   0.000

   14  1 2s         1.50058   0.00000      0.000   0.000   0.000
   14  2 2s         0.10596   0.00000     -0.000  -0.000  -0.000
   14  3 2py        0.84940   0.00000      0.000  -0.000   0.000
   14  4 2pz        1.22599   0.00000      0.000   0.000  -0.000
   14  5 2px        1.13823   0.00000      0.000   0.000   0.000
   14  6 2py        0.27957   0.00000      0.000   0.000  -0.000
   14  7 2pz        0.05668   0.00000     -0.000   0.000  -0.000
   14  8 2px        0.14279   0.00000     -0.000   0.000   0.000
   14  9 3Pdxy      0.00906   0.00000      0.000   0.000   0.000
   14 10 3Pdyz      0.00414   0.00000      0.000  -0.000  -0.000
   14 11 3Pdz2      0.00171   0.00000     -0.000   0.000  -0.000
   14 12 3Pdxz      0.01064   0.00000      0.000  -0.000   0.000
   14 13 3Pdx2-y2   0.00907   0.00000     -0.000  -0.000  -0.000
   14     Total     5.33383   0.00000      0.000   0.000  -0.000

   16  1 2s         1.34681   0.00000     -0.000   0.000  -0.000
   16  2 2s         0.14268   0.00000      0.000  -0.000   0.000
   16  3 2py        0.97127   0.00000     -0.000  -0.000  -0.000
   16  4 2pz        1.53343   0.00000     -0.000  -0.000   0.000
   16  5 2px        1.07290   0.00000     -0.000   0.000  -0.000
   16  6 2py        0.24836   0.00000      0.000   0.000   0.000
   16  7 2pz        0.00797   0.00000      0.000   0.000   0.000
   16  8 2px        0.18421   0.00000      0.000  -0.000   0.000
   16  9 3Pdxy      0.00209   0.00000     -0.000  -0.000  -0.000
   16 10 3Pdyz      0.00495   0.00000     -0.000  -0.000   0.000
   16 11 3Pdz2      0.00167   0.00000     -0.000  -0.000   0.000
   16 12 3Pdxz      0.00238   0.00000     -0.000   0.000   0.000
   16 13 3Pdx2-y2   0.00604   0.00000     -0.000  -0.000   0.000
   16     Total     5.52475   0.00000     -0.000  -0.000  -0.000

   26  1 2s         1.36620   0.00000      0.000  -0.000   0.000
   26  2 2s         0.12769   0.00000     -0.000   0.000  -0.000
   26  3 2py        1.14700   0.00000     -0.000   0.000  -0.000
   26  4 2pz        1.44429   0.00000     -0.000   0.000  -0.000
   26  5 2px        0.85192   0.00000     -0.000   0.000  -0.000
   26  6 2py        0.18385   0.00000      0.000  -0.000   0.000
   26  7 2pz        0.01478   0.00000     -0.000  -0.000   0.000
   26  8 2px        0.29653   0.00000      0.000   0.000   0.000
   26  9 3Pdxy      0.00152   0.00000     -0.000  -0.000   0.000
   26 10 3Pdyz      0.00236   0.00000      0.000  -0.000   0.000
   26 11 3Pdz2     -0.00068   0.00000     -0.000   0.000  -0.000
   26 12 3Pdxz      0.00402   0.00000     -0.000  -0.000   0.000
   26 13 3Pdx2-y2   0.00622   0.00000      0.000   0.000  -0.000
   26     Total     5.44569   0.00000     -0.000   0.000  -0.000

----------------------------------------------------------------
Total              49.34537   0.00000     -0.000   0.000  -0.000


Species: Si                  

Atom      Orb        Charge      Spin       Svec
----------------------------------------------------------------
    3  1 3s         0.55120   0.00000     -0.000   0.000   0.000
    3  2 3s         0.38748   0.00000      0.000  -0.000  -0.000
    3  3 3py        0.08363   0.00000      0.000   0.000   0.000
    3  4 3pz        0.53352   0.00000      0.000  -0.000  -0.000
    3  5 3px        0.37418   0.00000      0.000  -0.000   0.000
    3  6 3py        0.49708   0.00000     -0.000  -0.000  -0.000
    3  7 3pz        0.17369   0.00000      0.000  -0.000  -0.000
    3  8 3px        0.23655   0.00000     -0.000   0.000   0.000
    3  9 3Pdxy      0.10951   0.00000      0.000  -0.000   0.000
    3 10 3Pdyz      0.05216   0.00000      0.000   0.000   0.000
    3 11 3Pdz2      0.01050   0.00000     -0.000  -0.000   0.000
    3 12 3Pdxz      0.13456   0.00000     -0.000   0.000   0.000
    3 13 3Pdx2-y2   0.32564   0.00000     -0.000  -0.000   0.000
    3     Total     3.46970   0.00000      0.000  -0.000   0.000

    6  1 3s         0.66363   0.00000      0.000   0.000  -0.000
    6  2 3s         0.37120   0.00000     -0.000  -0.000  -0.000
    6  3 3py        0.13352   0.00000      0.000   0.000  -0.000
    6  4 3pz        0.68258   0.00000      0.000   0.000  -0.000
    6  5 3px        0.49092   0.00000     -0.000  -0.000  -0.000
    6  6 3py        0.46814   0.00000     -0.000  -0.000   0.000
    6  7 3pz        0.23699   0.00000      0.000   0.000  -0.000
    6  8 3px        0.24749   0.00000      0.000   0.000   0.000
    6  9 3Pdxy      0.18048   0.00000     -0.000  -0.000   0.000
    6 10 3Pdyz      0.14522   0.00000      0.000   0.000  -0.000
    6 11 3Pdz2      0.01211   0.00000     -0.000  -0.000  -0.000
    6 12 3Pdxz      0.03765   0.00000      0.000   0.000  -0.000
    6 13 3Pdx2-y2   0.18506   0.00000      0.000   0.000  -0.000
    6     Total     3.85500   0.00000      0.000   0.000  -0.000

    7  1 3s         0.64114   0.00000      0.000  -0.000   0.000
    7  2 3s         0.35984   0.00000     -0.000   0.000  -0.000
    7  3 3py        0.33061   0.00000     -0.000  -0.000   0.000
    7  4 3pz        0.51445   0.00000     -0.000  -0.000   0.000
    7  5 3px        0.09222   0.00000     -0.000  -0.000   0.000
    7  6 3py        0.32044   0.00000     -0.000   0.000   0.000
    7  7 3pz        0.19987   0.00000     -0.000   0.000   0.000
    7  8 3px        0.42354   0.00000      0.000   0.000   0.000
    7  9 3Pdxy      0.20044   0.00000      0.000   0.000   0.000
    7 10 3Pdyz      0.13610   0.00000      0.000   0.000  -0.000
    7 11 3Pdz2      0.00931   0.00000      0.000   0.000  -0.000
    7 12 3Pdxz      0.15562   0.00000      0.000  -0.000  -0.000
    7 13 3Pdx2-y2   0.22966   0.00000     -0.000   0.000   0.000
    7     Total     3.61324   0.00000     -0.000   0.000   0.000

   12  1 3s         0.71956   0.00000     -0.000   0.000  -0.000
   12  2 3s         0.35297   0.00000      0.000  -0.000  -0.000
   12  3 3py        0.19778   0.00000      0.000  -0.000   0.000
   12  4 3pz        0.39558   0.00000     -0.000  -0.000  -0.000
   12  5 3px        0.35070   0.00000      0.000  -0.000   0.000
   12  6 3py        0.43771   0.00000     -0.000  -0.000  -0.000
   12  7 3pz        0.15171   0.00000      0.000   0.000  -0.000
   12  8 3px        0.31245   0.00000      0.000   0.000  -0.000
   12  9 3Pdxy      0.32932   0.00000     -0.000   0.000  -0.000
   12 10 3Pdyz      0.08741   0.00000      0.000   0.000   0.000
   12 11 3Pdz2      0.02109   0.00000      0.000  -0.000  -0.000
   12 12 3Pdxz      0.09086   0.00000      0.000   0.000   0.000
   12 13 3Pdx2-y2   0.16408   0.00000      0.000   0.000   0.000
   12     Total     3.61122   0.00000      0.000  -0.000  -0.000

   15  1 3s         0.68419   0.00000     -0.000   0.000  -0.000
   15  2 3s         0.36087   0.00000      0.000  -0.000   0.000
   15  3 3py       -0.00004   0.00000     -0.000  -0.000  -0.000
   15  4 3pz        0.50066   0.00000     -0.000  -0.000  -0.000
   15  5 3px        0.41087   0.00000      0.000  -0.000  -0.000
   15  6 3py        0.45678   0.00000      0.000   0.000   0.000
   15  7 3pz        0.19311   0.00000      0.000   0.000  -0.000
   15  8 3px        0.33656   0.00000      0.000   0.000   0.000
   15  9 3Pdxy      0.14340   0.00000     -0.000  -0.000   0.000
   15 10 3Pdyz      0.12822   0.00000      0.000   0.000  -0.000
   15 11 3Pdz2      0.01606   0.00000      0.000  -0.000  -0.000
   15 12 3Pdxz      0.12573   0.00000      0.000   0.000  -0.000
   15 13 3Pdx2-y2   0.31384   0.00000      0.000  -0.000   0.000
   15     Total     3.67024   0.00000      0.000  -0.000  -0.000

   17  1 3s         0.72914   0.00000     -0.000   0.000   0.000
   17  2 3s         0.35553   0.00000      0.000   0.000   0.000
   17  3 3py        0.10464   0.00000      0.000   0.000   0.000
   17  4 3pz        0.65348   0.00000      0.000   0.000   0.000
   17  5 3px        0.36340   0.00000      0.000   0.000   0.000
   17  6 3py        0.44613   0.00000     -0.000  -0.000  -0.000
   17  7 3pz        0.15013   0.00000     -0.000  -0.000   0.000
   17  8 3px        0.32705   0.00000     -0.000   0.000   0.000
   17  9 3Pdxy      0.15430   0.00000      0.000   0.000   0.000
   17 10 3Pdyz      0.02471   0.00000      0.000  -0.000   0.000
   17 11 3Pdz2      0.00947   0.00000     -0.000  -0.000  -0.000
   17 12 3Pdxz      0.12205   0.00000      0.000  -0.000   0.000
   17 13 3Pdx2-y2   0.12573   0.00000     -0.000   0.000   0.000
   17     Total     3.56576   0.00000      0.000   0.000   0.000

   19  1 3s         0.86574   0.00000     -0.000  -0.000  -0.000
   19  2 3s         0.31378   0.00000      0.000   0.000  -0.000
   19  3 3py        0.42148   0.00000     -0.000  -0.000  -0.000
   19  4 3pz        0.65861   0.00000     -0.000  -0.000  -0.000
   19  5 3px        0.34837   0.00000     -0.000   0.000  -0.000
   19  6 3py        0.32891   0.00000      0.000   0.000  -0.000
   19  7 3pz        0.26623   0.00000      0.000  -0.000  -0.000
   19  8 3px        0.35746   0.00000      0.000  -0.000  -0.000
   19  9 3Pdxy      0.09777   0.00000     -0.000   0.000  -0.000
   19 10 3Pdyz      0.03278   0.00000     -0.000  -0.000   0.000
   19 11 3Pdz2      0.01487   0.00000     -0.000  -0.000   0.000
   19 12 3Pdxz      0.05921   0.00000     -0.000   0.000   0.000
   19 13 3Pdx2-y2   0.13187   0.00000     -0.000  -0.000   0.000
   19     Total     3.89706   0.00000     -0.000  -0.000  -0.000

   20  1 3s         0.54229   0.00000      0.000  -0.000   0.000
   20  2 3s         0.44274   0.00000     -0.000   0.000  -0.000
   20  3 3py        0.31287   0.00000     -0.000  -0.000   0.000
   20  4 3pz        0.25711   0.00000     -0.000  -0.000   0.000
   20  5 3px        0.45976   0.00000      0.000  -0.000   0.000
   20  6 3py        0.38499   0.00000      0.000   0.000   0.000
   20  7 3pz        0.42120   0.00000      0.000   0.000   0.000
   20  8 3px        0.27749   0.00000     -0.000   0.000   0.000
   20  9 3Pdxy      0.07063   0.00000     -0.000  -0.000  -0.000
   20 10 3Pdyz      0.08510   0.00000     -0.000  -0.000  -0.000
   20 11 3Pdz2      0.05102   0.00000      0.000  -0.000  -0.000
   20 12 3Pdxz      0.07178   0.00000     -0.000  -0.000  -0.000
   20 13 3Pdx2-y2   0.04600   0.00000      0.000  -0.000  -0.000
   20     Total     3.42299   0.00000     -0.000  -0.000   0.000

   24  1 3s         0.62815   0.00000      0.000   0.000   0.000
   24  2 3s         0.36028   0.00000     -0.000  -0.000   0.000
   24  3 3py        0.27979   0.00000      0.000  -0.000   0.000
   24  4 3pz        0.38320   0.00000      0.000  -0.000   0.000
   24  5 3px        0.23143   0.00000     -0.000   0.000   0.000
   24  6 3py        0.36357   0.00000     -0.000   0.000   0.000
   24  7 3pz        0.20016   0.00000     -0.000  -0.000   0.000
   24  8 3px        0.32075   0.00000     -0.000  -0.000  -0.000
   24  9 3Pdxy      0.15932   0.00000      0.000   0.000   0.000
   24 10 3Pdyz      0.14135   0.00000     -0.000  -0.000   0.000
   24 11 3Pdz2      0.00961   0.00000     -0.000  -0.000   0.000
   24 12 3Pdxz      0.11442   0.00000     -0.000  -0.000   0.000
   24 13 3Pdx2-y2   0.30668   0.00000     -0.000  -0.000   0.000
   24     Total     3.49870   0.00000      0.000  -0.000   0.000

   28  1 3s         0.45978   0.00000      0.000  -0.000   0.000
   28  2 3s         0.36845   0.00000      0.000   0.000  -0.000
   28  3 3py        0.03674   0.00000     -0.000   0.000   0.000
   28  4 3pz        0.36414   0.00000     -0.000   0.000   0.000
   28  5 3px        0.21709   0.00000     -0.000   0.000  -0.000
   28  6 3py        0.44263   0.00000      0.000  -0.000  -0.000
   28  7 3pz        0.20924   0.00000      0.000  -0.000   0.000
   28  8 3px        0.35498   0.00000      0.000  -0.000   0.000
   28  9 3Pdxy      0.15169   0.00000     -0.000  -0.000  -0.000
   28 10 3Pdyz      0.13339   0.00000     -0.000  -0.000   0.000
   28 11 3Pdz2      0.00782   0.00000     -0.000  -0.000   0.000
   28 12 3Pdxz      0.15214   0.00000     -0.000   0.000   0.000
   28 13 3Pdx2-y2   0.31410   0.00000     -0.000   0.000  -0.000
   28     Total     3.21219   0.00000     -0.000   0.000   0.000

----------------------------------------------------------------
Total              85.16149   0.00000     -0.000  -0.000   0.000


Species: O                   

Atom      Orb        Charge      Spin       Svec
----------------------------------------------------------------
   25  1 2s         1.60335   0.00000      0.000  -0.000  -0.000
   25  2 2s         0.10556   0.00000     -0.000   0.000   0.000
   25  3 2py        1.24485   0.00000      0.000   0.000  -0.000
   25  4 2pz        1.62784   0.00000      0.000  -0.000  -0.000
   25  5 2px        1.54506   0.00000      0.000  -0.000  -0.000
   25  6 2py        0.15561   0.00000     -0.000  -0.000   0.000
   25  7 2pz       -0.00792   0.00000      0.000   0.000  -0.000
   25  8 2px        0.06449   0.00000     -0.000   0.000   0.000
   25  9 3Pdxy      0.00569   0.00000     -0.000  -0.000  -0.000
   25 10 3Pdyz      0.00532   0.00000      0.000   0.000   0.000
   25 11 3Pdz2      0.00294   0.00000     -0.000  -0.000   0.000
   25 12 3Pdxz      0.00327   0.00000     -0.000   0.000   0.000
   25 13 3Pdx2-y2   0.01274   0.00000     -0.000  -0.000   0.000
   25     Total     6.36883   0.00000      0.000  -0.000  -0.000

   29  1 2s         1.73820   0.00000      0.000   0.000  -0.000
   29  2 2s         0.04793   0.00000      0.000  -0.000  -0.000
   29  3 2py        1.38866   0.00000      0.000  -0.000  -0.000
   29  4 2pz        1.61248   0.00000      0.000   0.000  -0.000
   29  5 2px        1.54747   0.00000      0.000  -0.000   0.000
   29  6 2py        0.06575   0.00000      0.000   0.000   0.000
   29  7 2pz       -0.00867   0.00000     -0.000   0.000  -0.000
   29  8 2px        0.04088   0.00000     -0.000  -0.000  -0.000
   29  9 3Pdxy      0.00836   0.00000      0.000  -0.000   0.000
   29 10 3Pdyz      0.00263   0.00000     -0.000   0.000   0.000
   29 11 3Pdz2      0.00370   0.00000      0.000  -0.000   0.000
   29 12 3Pdxz      0.00652   0.00000      0.000  -0.000   0.000
   29 13 3Pdx2-y2   0.01577   0.00000      0.000   0.000   0.000
   29     Total     6.46968   0.00000      0.000   0.000  -0.000

----------------------------------------------------------------
Total              98.00000   0.00000      0.000  -0.000   0.000


siesta: Eigenvalues (eV):
ik =     1
  -24.8108  -24.8108  -24.2170  -24.2170  -22.1042  -22.1042  -21.2990  -21.2990  -20.8377  -20.8377
  -19.8185  -19.8185  -19.2551  -19.2551  -19.1240  -19.1240  -18.6062  -18.6062  -15.3304  -15.3304
  -14.4530  -14.4530  -14.3557  -14.3557  -13.8178  -13.8178  -13.3198  -13.3198  -12.7912  -12.7912
  -12.7463  -12.7463  -12.6004  -12.6004  -12.2648  -12.2648  -11.8614  -11.8614  -11.4611  -11.4611
  -10.8997  -10.8997  -10.6865  -10.6865  -10.3654  -10.3654   -9.8246   -9.8246   -9.6994   -9.6994
   -9.5383   -9.5383   -9.3585   -9.3585   -9.1517   -9.1517   -8.8451   -8.8451   -8.7758   -8.7758
   -8.6810   -8.6810   -8.5958   -8.5958   -8.5604   -8.5604   -8.1942   -8.1942   -8.1685   -8.1685
   -7.9791   -7.9791   -7.5860   -7.5860   -7.3897   -7.3897   -7.2572   -7.2572   -7.1770   -7.1770
   -6.4592   -6.4592   -6.2872   -6.2872   -6.1570   -6.1570   -6.0754   -6.0754   -5.9532   -5.9532
   -5.4838   -5.4838   -5.3594   -5.3594   -5.3118   -5.3118   -4.0233   -4.0233   -3.7198   -3.7198
   -2.8691   -2.8691   -2.5634   -2.5634   -2.4484   -2.4484   -2.0755   -2.0755   -2.0613   -2.0613
   -1.8467   -1.8467   -1.7349   -1.7349   -1.4753   -1.4753   -1.3553   -1.3553   -1.2102   -1.2102
   -1.0142   -1.0142   -0.3940   -0.3940   -0.3239   -0.3239   -0.2231   -0.2231   -0.1660   -0.1660
   -0.0349   -0.0349    0.1687    0.1687    0.3257    0.3257    0.3596    0.3596    0.7178    0.7178
    0.8459    0.8459    0.9538    0.9538    1.1205    1.1205    1.3757    1.3757    1.4017    1.4017
    1.8348    1.8348    1.9862    1.9862    2.1414    2.1414    2.4622    2.4622    2.5073    2.5073
    2.5799    2.5799    2.7516    2.7516    2.8481    2.8481    3.0277    3.0277    3.1114    3.1114
    3.2017    3.2017    3.2924    3.2924    3.6802    3.6802    3.8590    3.8590    4.0005    4.0005
    4.1425    4.1425    4.2389    4.2389    4.5438    4.5438    4.6648    4.6648    4.8438    4.8438
    4.9399    4.9399    5.1588    5.1588    5.2001    5.2001    5.2372    5.2372    5.4548    5.4548
    5.6612    5.6612    5.8265    5.8265    5.9426    5.9426    6.2446    6.2446    6.3113    6.3113
    6.4287    6.4287    6.4962    6.4962    6.8032    6.8032    6.9618    6.9618    7.0560    7.0560
    7.1214    7.1214    7.3147    7.3147    7.3720    7.3720    7.6011    7.6011    7.6567    7.6567
    7.8014    7.8014    7.9375    7.9375    8.3052    8.3052    8.3621    8.3621    8.4343    8.4343
    8.4731    8.4731    8.9894    8.9894    9.0334    9.0334    9.1166    9.1166    9.3240    9.3240
    9.4094    9.4094    9.7032    9.7032    9.7712    9.7712    9.8600    9.8600    9.9367    9.9367
   10.0845   10.0845   10.4035   10.4035   10.6207   10.6207   10.6631   10.6631   10.8431   10.8431
   11.0629   11.0629   11.2645   11.2645   11.4246   11.4246   11.6007   11.6007   11.6878   11.6878
   11.8352   11.8352   12.0910   12.0910   12.1611   12.1611   12.3101   12.3101   12.6231   12.6231
   12.7460   12.7460   13.1995   13.1995   13.2637   13.2637   13.4333   13.4333   13.5920   13.5920
   13.8537   13.8537   14.1682   14.1682   14.3786   14.3786   14.7493   14.7493   14.8685   14.8685
   15.2203   15.2203   15.4157   15.4157   15.7027   15.7027   15.9663   15.9663   16.2151   16.2151
   16.3623   16.3623   16.5459   16.5459   16.6394   16.6394   16.9879   16.9879   17.0158   17.0158
   17.1876   17.1876   17.8635   17.8635   17.9586   17.9586   18.3106   18.3106   18.4982   18.4982
   18.7341   18.7341   18.8269   18.8269   19.0185   19.0185   19.7632   19.7632   19.9803   19.9803
   20.4047   20.4047   20.8282   20.8282   21.0773   21.0773   21.1370   21.1370   21.6137   21.6137
   21.9593   21.9593   22.3860   22.3860   22.9449   22.9449   23.0693   23.0693   23.3971   23.3971
   23.9591   23.9591   24.4231   24.4231   24.7255   24.7255   24.8227   24.8227   25.5087   25.5087
   25.8485   25.8485   25.8814   25.8814   26.1100   26.1100   27.5166   27.5166   27.6153   27.6153
   28.1550   28.1550   28.2366   28.2366   28.8939   28.8939   29.3291   29.3291   29.8480   29.8480
   30.2879   30.2879   30.8818   30.8818   31.0146   31.0146   31.5146   31.5146   31.6152   31.6152
   31.7376   31.7376   32.0707   32.0707   33.0031   33.0031   33.1718   33.1718   33.5267   33.5267
   34.9505   34.9505   35.6834   35.6834   35.9741   35.9741   36.3974   36.3974   36.6134   36.6134
   36.6609   36.6609   37.4338   37.4338   37.9447   37.9447   38.2620   38.2620   39.0110   39.0110
   39.2063   39.2063   39.7983   39.7983   40.4757   40.4757   40.8709   40.8709   41.0543   41.0543
   41.1612   41.1612   42.1753   42.1753   42.3557   42.3557   42.8135   42.8135   43.5963   43.5963
   43.6184   43.6184   43.9038   43.9038   44.2131   44.2131   44.3915   44.3915   44.7396   44.7396
   44.9382   44.9382   45.7188   45.7188   45.7224   45.7224   46.1209   46.1209   46.8667   46.8667
   47.0745   47.0745   47.7832   47.7832   48.0217   48.0217   48.3647   48.3647   48.7271   48.7271
   48.9436   48.9436   49.3194   49.3194   49.7871   49.7871   50.0109   50.0109   50.5696   50.5696
   51.0731   51.0731   51.1545   51.1545   51.7860   51.7860   51.8220   51.8220   53.2264   53.2264
   54.0667   54.0667   54.7028   54.7028   54.9109   54.9109   55.5476   55.5476   56.1783   56.1783
   56.7616   56.7616   58.0825   58.0825   58.6767   58.6767   59.1718   59.1718   60.5391   60.5391
   60.5811   60.5811   61.2567   61.2567   61.4010   61.4010   61.6725   61.6725   62.0302   62.0302
   62.4980   62.4980   63.6809   63.6809   64.5099   64.5099   65.5920   65.5920   66.8624   66.8624
   67.4205   67.4205   68.6759   68.6759   69.0073   69.0073   70.3498   70.3498   71.9026   71.9026
   73.0222   73.0222   75.8878   75.8878   76.2541   76.2541   80.9515   80.9515   87.6961   87.6961
   91.1603   91.1603   92.3686   92.3686   94.4974   94.4974   95.5376   95.5376   97.6705   97.6705
  100.9529  100.9529  101.2098  101.2098  102.8919  102.8919  106.2249  106.2249  107.3141  107.3141
  113.8069  113.8069  118.8959  118.8959  124.3341  124.3341  128.5929  128.5929  131.9340  131.9340
  146.4633  146.4633  150.2063  150.2063
siesta: Fermi energy =      -3.871549 eV

siesta: Program's energy decomposition (eV):
siesta: Ebs     =     -1125.835152
siesta: Eions   =      3553.971015
siesta: Ena     =       382.550528
siesta: Ekin    =      2783.190984
siesta: Enl     =     -2557.423897
siesta: Eso     =        -0.004916
siesta: Edftu   =         0.000000
siesta: DEna    =        38.099071
siesta: DUscf   =        13.827313
siesta: DUext   =         0.000000
siesta: Exc     =     -1101.548546
siesta: eta*DQ  =         0.000000
siesta: Emadel  =         0.000000
siesta: Emeta   =         0.000000
siesta: Emolmec =         0.000000
siesta: Ekinion =         0.000000
siesta: Eharris =     -3995.280478
siesta: Etot    =     -3995.280478
siesta: FreeEng =     -3995.282480

siesta: Final energy (eV):
siesta:  Band Struct. =   -1125.835152
siesta:       Kinetic =    2783.190984
siesta:       Hartree =    8556.324921
siesta:       Edftu   =       0.000000
siesta:       Eso     =      -0.004916
siesta:    Ext. field =       0.000000
siesta:   Exch.-corr. =   -1101.548546
siesta:  Ion-electron =  -19591.488900
siesta:       Ion-ion =    5358.245980
siesta:       Ekinion =       0.000000
siesta:         Total =   -3995.280478
siesta:         Fermi =      -3.871549

siesta: Atomic forces (eV/Ang):
siesta:      1   -0.025586   -0.020151    0.000018
siesta:      2   -0.077559   -0.197921   -0.000192
siesta:      3    0.105157    0.066686   -0.000175
siesta:      4   -0.052934    0.010201    0.000115
siesta:      5   -0.053225   -0.015960    0.000061
siesta:      6    0.214312   -0.057722    0.000388
siesta:      7   -2.034004   -0.048444    0.000514
siesta:      8    0.022844   -8.960860   -0.002480
siesta:      9   -1.239914   -2.265063    0.001760
siesta:     10    0.095456   -0.629729    0.000135
siesta:     11   -0.215853   -2.591775   -0.000629
siesta:     12    0.719380   -2.054683   -0.000983
siesta:     13   -0.033031   -0.896422   -0.000145
siesta:     14   -0.362756   -0.688075    0.000827
siesta:     15    0.241069   -0.044497   -0.000267
siesta:     16    0.419706   -0.180564    0.007058
siesta:     17   -0.003336    0.061125   -0.033723
siesta:     18   -0.003362    0.146760    0.005978
siesta:     19   -0.242553   -0.188213   -0.045493
siesta:     20    0.096958   -0.009160    0.014094
siesta:     21   -0.146052    0.181722    0.078179
siesta:     22   -0.035396    0.020566    0.029432
siesta:     23    0.084223   -0.105721    0.013062
siesta:     24    1.598126    1.213611   -0.025797
siesta:     25    3.436804    8.318489    0.005389
siesta:     26    0.110432    4.992042    0.008830
siesta:     27   -0.334959   -2.341043    0.002724
siesta:     28   -1.837244    1.218293   -0.000810
siesta:     29    2.917347    6.753413   -0.001118
siesta:     30    0.007275    0.394066    0.006153
siesta: ----------------------------------------
siesta:    Tot    3.371323    2.080971    0.062904

siesta: Stress tensor (static) (eV/Ang**3):
siesta:    -0.001648   -0.001245    0.000036
siesta:    -0.001245   -0.011684   -0.000030
siesta:     0.000036   -0.000030   -0.000145

siesta: Cell volume =       3888.298331 Ang**3

siesta: Pressure (static):
siesta:                Solid            Molecule  Units
siesta:           0.00004893          0.00000173  Ry/Bohr**3
siesta:           0.00449257          0.00015905  eV/Ang**3
siesta:           7.19796569          0.25483491  kBar
(Free)E+ p_basis*V_orbitals  =       -3974.154395
(Free)Eharris+ p_basis*V_orbitals  =       -3974.154395
     spin moment: S , {S} =    0.00000   0.00000  -0.00000   0.00000

siesta: Electric dipole (a.u.)  =    0.197319    2.778189   -0.013260
siesta: Electric dipole (Debye) =    0.501534    7.061457   -0.033703

cite: Please see "AT.bib" for an exhaustive BiBTeX file.
cite: Please clearly indicate Siesta version in published work: v4.1.5-1-g384057250
cite: This calculation has made use of the following articles
cite: which are encouraged to be cited in a published work.
        Primary SIESTA paper
          DOI: www.doi.org/10.1088/0953-8984/14/11/302
        Spin-orbit coupling (on-site approximation)
          DOI: www.doi.org/10.1088/0953-8984/19/19/489001


WARNING: alloc-realloc-dealloc name mismatch
         Name: atomlist isa
         Size:              -120. Bytes
         Node:     0
         Subsequent mismatches will not be reported
>> End of run:  22-MAY-2023   9:41:01
Job completed
