Siesta Version  : v4.1.5-1-g384057250
Architecture    : gcc
Compiler version: GNU Fortran (Ubuntu 11.3.0-1ubuntu1~22.04) 11.3.0
Compiler flags  : mpifort -O2 -fPIC -ftree-vectorize -fallow-argument-mismatch
PP flags        : -DFC_HAVE_ABORT -DMPI -DSIESTA__FLOOK -DSIESTA__METIS -DSIESTA__MUMPS -DCDF -DNCDF -DNCDF_4 -DNCDF_PARALLEL -DSIESTA__MRRR -DSIESTA__ELPA
Libraries       : libncdf.a libfdict.a  -lflookall -ldl -lnetcdff -lnetcdf -lhdf5_hl -lhdf5 -lhdf5_fortran -lz -lscalapack-openmpi -lopenblas -lmetis -lzmumps -lcmumps -ldmumps -lmumps_common -lpord -lsmumps -lesmumps -lscotch -lscotcherr -fopenmp -lelpa
PARALLEL version
NetCDF support
NetCDF-4 support
NetCDF-4 MPI-IO support
METIS ordering support
Lua support

* Running on 4 nodes in parallel
>> Start of run:  22-MAY-2023  17:05:29

                           ***********************       
                           *  WELCOME TO SIESTA  *       
                           ***********************       

reinit: Reading from standard input
reinit: Dumped input in INPUT_TMP.82276
************************** Dump of input data file ****************************
SystemLabel      GC
NumberOfAtoms    29
NumberOfSpecies  4
%block ChemicalSpeciesLabel
    1    8  O
    2    7  N
    3   14  Si
    4    1  H
%endblock ChemicalSpeciesLabel
# Single point calculation
MD.TypeOfRun                CG
MD.Steps                    0
SCF.MustConverge            F # In case it does not. There can be 2 very close atoms
AtomicCoordinatesFormat NotScaledCartesianAng
%block AtomicCoordinatesAndAtomicSpecies
0.854927710    3.902811360    0.000000000       1
-3.151486600   0.823854130    0.000000000       2
1.928518680    1.174000900    0.000000000       2
0.979899500    -1.830275890   0.000000000       2
-2.159258930   -2.028004800   0.000000000       2
3.785319770    -1.112700660   0.000000000       2
-1.345933810   0.976250250    0.000000000       3
-0.599439880   -1.096077170   0.000000000       3
0.453182890    2.350510230    0.000000000       3
2.133302030    -0.576510800   0.000000000       3
-3.516065660   -0.842056510   0.000000000       3
2.824527830    1.754723110    0.000000000       4
-4.877551690   -1.469214660   0.000000000       4
3.994952020    -2.143204000   0.000000000       4
4.620903610    -0.483666060   0.000000000       4
-2.279085180   -3.081514090   0.000000000       4
5.090286377    5.211289553    -0.000000000      3
6.959245867    6.470933183    -0.000000000      3
6.500313487    2.469551333    -0.000000000      3
8.567906207    4.976142553    -0.000000000      3
5.149816327    3.526337093    -0.000000000      2
3.460287177    5.841349783    -0.000000000      2
8.144202357    3.260641743    -0.000000000      2
7.239609567    7.941155703    -0.000000000      4
10.063317587   5.194995093    -0.000000000      4
3.215828187    6.859815733    -0.000000000      4
2.633545997    5.184501653    -0.000000000      4
6.559589247    0.887109303    -0.000000000      1
8.915857947    2.533674383    -0.000000000      4
%endblock AtomicCoordinatesAndAtomicSpecies
%include ../../../Defaults.fdf
************************** End of input data file *****************************

reinit: -----------------------------------------------------------------------
reinit: System Name: 
reinit: -----------------------------------------------------------------------
reinit: System Label: GC
reinit: -----------------------------------------------------------------------

initatom: Reading input for the pseudopotentials and atomic orbitals ----------
Species number:   1 Atomic number:    8 Label: O
Species number:   2 Atomic number:    7 Label: N
Species number:   3 Atomic number:   14 Label: Si
Species number:   4 Atomic number:    1 Label: H

Ground state valence configuration:   2s02  2p04
Reading pseudopotential information in formatted form from O.psf

Pseudopotential generated from a relativistic atomic calculation

Valence configuration for pseudopotential generation:
2s( 2.00) rc: 0.45
2p( 4.00) rc: 0.92
3d( 0.00) rc: 2.24
4f( 0.00) rc: 0.25
Ground state valence configuration:   2s02  2p03
Reading pseudopotential information in formatted form from N.psf

Pseudopotential generated from a relativistic atomic calculation

Valence configuration for pseudopotential generation:
2s( 2.00) rc: 0.94
2p( 3.00) rc: 0.59
3d( 0.00) rc: 3.46
4f( 0.00) rc: 2.47
Ground state valence configuration:   3s02  3p02
Reading pseudopotential information in formatted form from Si.psf

Pseudopotential generated from a relativistic atomic calculation

Valence configuration for pseudopotential generation:
3s( 2.00) rc: 1.67
3p( 2.00) rc: 2.04
3d( 0.00) rc: 2.89
4f( 0.00) rc: 2.49
Ground state valence configuration:   1s01
Reading pseudopotential information in formatted form from H.psf

Pseudopotential generated from a relativistic atomic calculation

Valence configuration for pseudopotential generation:
1s( 1.00) rc: 0.01
2p( 0.00) rc: 0.60
3d( 0.00) rc: 1.99
4f( 0.00) rc: 2.49
For O, standard SIESTA heuristics set lmxkb to 3
 (one more than the basis l, including polarization orbitals).
Use PS.lmax or PS.KBprojectors blocks to override.
For N, standard SIESTA heuristics set lmxkb to 3
 (one more than the basis l, including polarization orbitals).
Use PS.lmax or PS.KBprojectors blocks to override.
For Si, standard SIESTA heuristics set lmxkb to 3
 (one more than the basis l, including polarization orbitals).
Use PS.lmax or PS.KBprojectors blocks to override.
For H, standard SIESTA heuristics set lmxkb to 2
 (one more than the basis l, including polarization orbitals).
Use PS.lmax or PS.KBprojectors blocks to override.

<basis_specs>
===============================================================================
O                    Z=   8    Mass=  16.000        Charge= 0.17977+309
Lmxo=1 Lmxkb= 3    BasisType=split      Semic=F
L=0  Nsemic=0  Cnfigmx=2
          i=1  nzeta=2  polorb=0  (2s)
            splnorm:   0.28000    
               vcte:    0.0000    
               rinn:    0.0000    
               qcoe:    0.0000    
               qyuk:    0.0000    
               qwid:   0.10000E-01
                rcs:    0.0000      0.0000    
            lambdas:    1.0000      1.0000    
L=1  Nsemic=0  Cnfigmx=2
          i=1  nzeta=2  polorb=1  (2p)
            splnorm:   0.28000    
               vcte:    0.0000    
               rinn:    0.0000    
               qcoe:    0.0000    
               qyuk:    0.0000    
               qwid:   0.10000E-01
                rcs:    0.0000      0.0000    
            lambdas:    1.0000      1.0000    
-------------------------------------------------------------------------------
L=0  Nkbl=1  erefs: 0.17977+309
L=1  Nkbl=1  erefs: 0.17977+309
L=2  Nkbl=1  erefs: 0.17977+309
L=3  Nkbl=1  erefs: 0.17977+309
===============================================================================
</basis_specs>

atom: Called for O                     (Z =   8)

read_vps: Pseudopotential generation method:
read_vps: ATM4.2.7  Troullier-Martins                       
Valence charge for ps generation:    6.00000

xc_check: Exchange-correlation functional:
xc_check: GGA Perdew, Burke & Ernzerhof 1996
V l=0 = -2*Zval/r beyond r=  1.1000
V l=1 = -2*Zval/r beyond r=  1.1000
V l=2 = -2*Zval/r beyond r=  2.2154
V l=3 = -2*Zval/r beyond r=  1.1000
All V_l potentials equal beyond r=  2.2154
This should be close to max(r_c) in ps generation
All pots = -2*Zval/r beyond r=  2.2154

VLOCAL1: 99.0% of the norm of Vloc inside      8.845 Ry
VLOCAL1: 99.9% of the norm of Vloc inside     20.157 Ry
atom: Maximum radius for 4*pi*r*r*local-pseudopot. charge    2.67231
atom: Maximum radius for r*vlocal+2*Zval:    2.32897
GHOST: No ghost state for L =  0
GHOST: No ghost state for L =  1
GHOST: No ghost state for L =  2
GHOST: No ghost state for L =  3

KBgen: Kleinman-Bylander projectors: 
   l= 0   rc=  2.243238   el= -1.759686   Ekb=**********   kbcos= -0.171774
   l= 1   rc=  2.328968   el= -0.663873   Ekb=-14.506792   kbcos= -0.519897
   l= 2   rc=  2.573941   el=  0.002031   Ekb= -1.137373   kbcos= -0.019581
   l= 3   rc=  2.606321   el=  0.003153   Ekb= -1.013546   kbcos= -0.003122

KBgen: Total number of Kleinman-Bylander projectors:   16
atom: -------------------------------------------------------------------------

atom: SANKEY-TYPE ORBITALS:
atom: Selected multiple-zeta basis: split     

SPLIT: Orbitals with angular momentum L= 0

SPLIT: Basis orbitals for state 2s

SPLIT: PAO cut-off radius determined from an
SPLIT: energy shift=  0.002000 Ry

   izeta = 1
                 lambda =    1.000000
                     rc =    4.243912
                 energy =   -1.758270
                kinetic =    3.286084
    potential(screened) =   -5.044353
       potential(ionic) =  -12.921184

   izeta = 2
                 rmatch =    2.187845
              splitnorm =    0.280000
                 energy =   -0.885018
                kinetic =    8.134434
    potential(screened) =   -9.019452
       potential(ionic) =  -17.710645

SPLIT: Orbitals with angular momentum L= 1

SPLIT: Basis orbitals for state 2p

SPLIT: PAO cut-off radius determined from an
SPLIT: energy shift=  0.002000 Ry

   izeta = 1
                 lambda =    1.000000
                     rc =    5.314825
                 energy =   -0.661986
                kinetic =    4.917472
    potential(screened) =   -5.579458
       potential(ionic) =  -13.236259

   izeta = 2
                 rmatch =    2.160663
              splitnorm =    0.280000
                 energy =   -0.068760
                kinetic =    9.183374
    potential(screened) =   -9.252135
       potential(ionic) =  -18.274251

POLgen: Perturbative polarization orbital with L=  2

POLgen: Polarization orbital for state 2p

   izeta = 1
                     rc =    5.314825
                 energy =    1.970580
                kinetic =    3.886128
    potential(screened) =   -1.915547
       potential(ionic) =   -7.749584
atom: Total number of Sankey-type orbitals: 13

atm_pop: Valence configuration (for local Pseudopot. screening):
 2s( 2.00)                                                            
 2p( 4.00)                                                            
Vna: chval, zval:    6.00000   6.00000

Vna:  Cut-off radius for the neutral-atom potential:   5.314825

atom: _________________________________________________________________________

<basis_specs>
===============================================================================
N                    Z=   7    Mass=  14.010        Charge= 0.17977+309
Lmxo=1 Lmxkb= 3    BasisType=split      Semic=F
L=0  Nsemic=0  Cnfigmx=2
          i=1  nzeta=2  polorb=0  (2s)
            splnorm:   0.28000    
               vcte:    0.0000    
               rinn:    0.0000    
               qcoe:    0.0000    
               qyuk:    0.0000    
               qwid:   0.10000E-01
                rcs:    0.0000      0.0000    
            lambdas:    1.0000      1.0000    
L=1  Nsemic=0  Cnfigmx=2
          i=1  nzeta=2  polorb=1  (2p)
            splnorm:   0.28000    
               vcte:    0.0000    
               rinn:    0.0000    
               qcoe:    0.0000    
               qyuk:    0.0000    
               qwid:   0.10000E-01
                rcs:    0.0000      0.0000    
            lambdas:    1.0000      1.0000    
-------------------------------------------------------------------------------
L=0  Nkbl=1  erefs: 0.17977+309
L=1  Nkbl=1  erefs: 0.17977+309
L=2  Nkbl=1  erefs: 0.17977+309
L=3  Nkbl=1  erefs: 0.17977+309
===============================================================================
</basis_specs>

atom: Called for N                     (Z =   7)

read_vps: Pseudopotential generation method:
read_vps: ATM4.2.7  Troullier-Martins                       
Valence charge for ps generation:    5.00000

xc_check: Exchange-correlation functional:
xc_check: GGA Perdew, Burke & Ernzerhof 1996
V l=0 = -2*Zval/r beyond r=  1.2889
V l=1 = -2*Zval/r beyond r=  1.2889
V l=2 = -2*Zval/r beyond r=  3.4178
V l=3 = -2*Zval/r beyond r=  2.4084
All V_l potentials equal beyond r=  3.3753
This should be close to max(r_c) in ps generation
All pots = -2*Zval/r beyond r=  3.4178

VLOCAL1: 99.0% of the norm of Vloc inside      3.810 Ry
VLOCAL1: 99.9% of the norm of Vloc inside      8.683 Ry
atom: Maximum radius for 4*pi*r*r*local-pseudopot. charge    4.02088
atom: Maximum radius for r*vlocal+2*Zval:    3.54838
GHOST: No ghost state for L =  0
GHOST: No ghost state for L =  1
GHOST: No ghost state for L =  2
GHOST: No ghost state for L =  3

KBgen: Kleinman-Bylander projectors: 
   l= 0   rc=  3.417763   el= -1.365098   Ekb= -4.433130   kbcos= -0.707855
   l= 1   rc=  3.375302   el= -0.521201   Ekb=-13.264039   kbcos= -0.535594
   l= 2   rc=  3.872880   el=  0.001991   Ekb= -0.641094   kbcos= -0.062456
   l= 3   rc=  3.970931   el=  0.003093   Ekb= -0.474517   kbcos= -0.018236

KBgen: Total number of Kleinman-Bylander projectors:   16
atom: -------------------------------------------------------------------------

atom: SANKEY-TYPE ORBITALS:
atom: Selected multiple-zeta basis: split     

SPLIT: Orbitals with angular momentum L= 0

SPLIT: Basis orbitals for state 2s

SPLIT: PAO cut-off radius determined from an
SPLIT: energy shift=  0.002000 Ry

   izeta = 1
                 lambda =    1.000000
                     rc =    4.730425
                 energy =   -1.363399
                kinetic =    1.245246
    potential(screened) =   -2.608645
       potential(ionic) =   -8.121105

   izeta = 2
                 rmatch =    2.531849
              splitnorm =    0.280000
                 energy =   -0.959908
                kinetic =    2.409435
    potential(screened) =   -3.369343
       potential(ionic) =   -9.427975

SPLIT: Orbitals with angular momentum L= 1

SPLIT: Basis orbitals for state 2p

SPLIT: PAO cut-off radius determined from an
SPLIT: energy shift=  0.002000 Ry

   izeta = 1
                 lambda =    1.000000
                     rc =    5.924108
                 energy =   -0.519262
                kinetic =    3.672940
    potential(screened) =   -4.192202
       potential(ionic) =   -9.518354

   izeta = 2
                 rmatch =    2.531849
              splitnorm =    0.280000
                 energy =   -0.104258
                kinetic =    6.807538
    potential(screened) =   -6.911796
       potential(ionic) =  -13.149920

POLgen: Perturbative polarization orbital with L=  2

POLgen: Polarization orbital for state 2p

   izeta = 1
                     rc =    5.924108
                 energy =    1.427508
                kinetic =    2.872379
    potential(screened) =   -1.444871
       potential(ionic) =   -5.563644
atom: Total number of Sankey-type orbitals: 13

atm_pop: Valence configuration (for local Pseudopot. screening):
 2s( 2.00)                                                            
 2p( 3.00)                                                            
Vna: chval, zval:    5.00000   5.00000

Vna:  Cut-off radius for the neutral-atom potential:   5.924108

atom: _________________________________________________________________________

<basis_specs>
===============================================================================
Si                   Z=  14    Mass=  28.090        Charge= 0.17977+309
Lmxo=1 Lmxkb= 3    BasisType=split      Semic=F
L=0  Nsemic=0  Cnfigmx=3
          i=1  nzeta=2  polorb=0  (3s)
            splnorm:   0.28000    
               vcte:    0.0000    
               rinn:    0.0000    
               qcoe:    0.0000    
               qyuk:    0.0000    
               qwid:   0.10000E-01
                rcs:    0.0000      0.0000    
            lambdas:    1.0000      1.0000    
L=1  Nsemic=0  Cnfigmx=3
          i=1  nzeta=2  polorb=1  (3p)
            splnorm:   0.28000    
               vcte:    0.0000    
               rinn:    0.0000    
               qcoe:    0.0000    
               qyuk:    0.0000    
               qwid:   0.10000E-01
                rcs:    0.0000      0.0000    
            lambdas:    1.0000      1.0000    
-------------------------------------------------------------------------------
L=0  Nkbl=1  erefs: 0.17977+309
L=1  Nkbl=1  erefs: 0.17977+309
L=2  Nkbl=1  erefs: 0.17977+309
L=3  Nkbl=1  erefs: 0.17977+309
===============================================================================
</basis_specs>

atom: Called for Si                    (Z =  14)

read_vps: Pseudopotential generation method:
read_vps: ATM4.2.7  Troullier-Martins                       
Valence charge for ps generation:    4.00000

xc_check: Exchange-correlation functional:
xc_check: GGA Perdew, Burke & Ernzerhof 1996
V l=0 = -2*Zval/r beyond r=  2.7826
V l=1 = -2*Zval/r beyond r=  2.7826
V l=2 = -2*Zval/r beyond r=  2.9253
V l=3 = -2*Zval/r beyond r=  2.7826
All V_l potentials equal beyond r=  2.8530
This should be close to max(r_c) in ps generation
All pots = -2*Zval/r beyond r=  2.9253

VLOCAL1: 99.0% of the norm of Vloc inside      5.333 Ry
VLOCAL1: 99.9% of the norm of Vloc inside     12.154 Ry
atom: Maximum radius for 4*pi*r*r*local-pseudopot. charge    3.39869
atom: Maximum radius for r*vlocal+2*Zval:    2.96205
GHOST: No ghost state for L =  0
GHOST: No ghost state for L =  1
GHOST: No ghost state for L =  2
GHOST: No ghost state for L =  3

KBgen: Kleinman-Bylander projectors: 
   l= 0   rc=  3.075247   el= -0.794092   Ekb=  5.879390   kbcos=  0.167461
   l= 1   rc=  3.153101   el= -0.300068   Ekb=  2.642817   kbcos=  0.058301
   l= 2   rc=  3.273594   el=  0.001958   Ekb= -1.185135   kbcos= -0.104411
   l= 3   rc=  3.232927   el=  0.003046   Ekb= -0.497174   kbcos= -0.015889

KBgen: Total number of Kleinman-Bylander projectors:   16
atom: -------------------------------------------------------------------------

atom: SANKEY-TYPE ORBITALS:
atom: Selected multiple-zeta basis: split     

SPLIT: Orbitals with angular momentum L= 0

SPLIT: Basis orbitals for state 3s

SPLIT: PAO cut-off radius determined from an
SPLIT: energy shift=  0.002000 Ry

   izeta = 1
                 lambda =    1.000000
                     rc =    6.429618
                 energy =   -0.792283
                kinetic =    0.525293
    potential(screened) =   -1.317576
       potential(ionic) =   -3.744923

   izeta = 2
                 rmatch =    3.998416
              splitnorm =    0.280000
                 energy =   -0.583081
                kinetic =    1.069570
    potential(screened) =   -1.652651
       potential(ionic) =   -4.235185

SPLIT: Orbitals with angular momentum L= 1

SPLIT: Basis orbitals for state 3p

SPLIT: PAO cut-off radius determined from an
SPLIT: energy shift=  0.002000 Ry

   izeta = 1
                 lambda =    1.000000
                     rc =    8.464845
                 energy =   -0.298236
                kinetic =    0.785360
    potential(screened) =   -1.083596
       potential(ionic) =   -3.273779

   izeta = 2
                 rmatch =    4.587816
              splitnorm =    0.280000
                 energy =   -0.131871
                kinetic =    1.403687
    potential(screened) =   -1.535557
       potential(ionic) =   -4.015310

POLgen: Perturbative polarization orbital with L=  2

POLgen: Polarization orbital for state 3p

   izeta = 1
                     rc =    8.464845
                 energy =    0.321949
                kinetic =    1.055677
    potential(screened) =   -0.733728
       potential(ionic) =   -2.672950
atom: Total number of Sankey-type orbitals: 13

atm_pop: Valence configuration (for local Pseudopot. screening):
 3s( 2.00)                                                            
 3p( 2.00)                                                            
Vna: chval, zval:    4.00000   4.00000

Vna:  Cut-off radius for the neutral-atom potential:   8.464845

atom: _________________________________________________________________________

<basis_specs>
===============================================================================
H                    Z=   1    Mass=  1.0100        Charge= 0.17977+309
Lmxo=0 Lmxkb= 2    BasisType=split      Semic=F
L=0  Nsemic=0  Cnfigmx=1
          i=1  nzeta=2  polorb=1  (1s)
            splnorm:   0.62000    
               vcte:    0.0000    
               rinn:    0.0000    
               qcoe:    0.0000    
               qyuk:    0.0000    
               qwid:   0.10000E-01
                rcs:    0.0000      0.0000    
            lambdas:    1.0000      1.0000    
-------------------------------------------------------------------------------
L=0  Nkbl=1  erefs: 0.17977+309
L=1  Nkbl=1  erefs: 0.17977+309
L=2  Nkbl=1  erefs: 0.17977+309
===============================================================================
</basis_specs>

atom: Called for H                     (Z =   1)

read_vps: Pseudopotential generation method:
read_vps: ATM4.2.7  Troullier-Martins                       
Valence charge for ps generation:    1.00000

xc_check: Exchange-correlation functional:
xc_check: GGA Perdew, Burke & Ernzerhof 1996
V l=0 = -2*Zval/r beyond r=  0.0098
V l=1 = -2*Zval/r beyond r=  0.5817
V l=2 = -2*Zval/r beyond r=  1.9372
All V_l potentials equal beyond r=  1.9372
This should be close to max(r_c) in ps generation
All pots = -2*Zval/r beyond r=  1.9372

VLOCAL1: 99.0% of the norm of Vloc inside     11.567 Ry
VLOCAL1: 99.9% of the norm of Vloc inside     26.362 Ry
atom: Maximum radius for 4*pi*r*r*local-pseudopot. charge    2.25106
atom: Maximum radius for r*vlocal+2*Zval:    1.91306
GHOST: No ghost state for L =  0
GHOST: No ghost state for L =  1
GHOST: No ghost state for L =  2

KBgen: Kleinman-Bylander projectors: 
   l= 0   rc=  2.036604   el= -0.477180   Ekb= -6.081590   kbcos= -0.277285
   l= 1   rc=  2.195416   el=  0.001076   Ekb= -0.926943   kbcos= -0.034643
   l= 2   rc=  2.251056   el=  0.002010   Ekb= -0.130941   kbcos= -0.009788

KBgen: Total number of Kleinman-Bylander projectors:    9
atom: -------------------------------------------------------------------------

atom: SANKEY-TYPE ORBITALS:
atom: Selected multiple-zeta basis: split     

SPLIT: Orbitals with angular momentum L= 0

SPLIT: Basis orbitals for state 1s

SPLIT: PAO cut-off radius determined from an
SPLIT: energy shift=  0.002000 Ry

   izeta = 1
                 lambda =    1.000000
                     rc =    6.518340
                 energy =   -0.475305
                kinetic =    0.912139
    potential(screened) =   -1.387444
       potential(ionic) =   -1.907295

   izeta = 2
                 rmatch =    2.141150
              splitnorm =    0.620000
                 energy =    0.566467
                kinetic =    3.772856
    potential(screened) =   -3.206389
       potential(ionic) =   -3.759093

POLgen: Perturbative polarization orbital with L=  1

POLgen: Polarization orbital for state 1s

   izeta = 1
                     rc =    6.518340
                 energy =    0.533861
                kinetic =    1.121086
    potential(screened) =   -0.587225
       potential(ionic) =   -1.053027
atom: Total number of Sankey-type orbitals:  5

atm_pop: Valence configuration (for local Pseudopot. screening):
 1s( 1.00)                                                            
Vna: chval, zval:    1.00000   1.00000

Vna:  Cut-off radius for the neutral-atom potential:   6.518340

atom: _________________________________________________________________________

prinput: Basis input ----------------------------------------------------------

PAO.BasisType split     

%block ChemicalSpeciesLabel
    1    8 O                       # Species index, atomic number, species label
    2    7 N                       # Species index, atomic number, species label
    3   14 Si                      # Species index, atomic number, species label
    4    1 H                       # Species index, atomic number, species label
%endblock ChemicalSpeciesLabel

%block PAO.Basis                 # Define Basis set
O                     2                    # Species label, number of l-shells
 n=2   0   2                         # n, l, Nzeta 
   4.244      2.188   
   1.000      1.000   
 n=2   1   2 P   1                   # n, l, Nzeta, Polarization, NzetaPol
   5.315      2.161   
   1.000      1.000   
N                     2                    # Species label, number of l-shells
 n=2   0   2                         # n, l, Nzeta 
   4.730      2.532   
   1.000      1.000   
 n=2   1   2 P   1                   # n, l, Nzeta, Polarization, NzetaPol
   5.924      2.532   
   1.000      1.000   
Si                    2                    # Species label, number of l-shells
 n=3   0   2                         # n, l, Nzeta 
   6.430      3.998   
   1.000      1.000   
 n=3   1   2 P   1                   # n, l, Nzeta, Polarization, NzetaPol
   8.465      4.588   
   1.000      1.000   
H                     1                    # Species label, number of l-shells
 n=1   0   2 P   1                   # n, l, Nzeta, Polarization, NzetaPol
   6.518      2.141   
   1.000      1.000   
%endblock PAO.Basis

prinput: ----------------------------------------------------------------------

Dumping basis to NetCDF file O.ion.nc
Dumping basis to NetCDF file N.ion.nc
Dumping basis to NetCDF file Si.ion.nc
Dumping basis to NetCDF file H.ion.nc
coor:   Atomic-coordinates input format  =     Cartesian coordinates
coor:                                          (in Angstroms)

siesta: Atomic coordinates (Bohr) and species
siesta:      1.61558   7.37525   0.00000  1        1
siesta:     -5.95545   1.55686   0.00000  2        2
siesta:      3.64437   2.21854   0.00000  2        3
siesta:      1.85174  -3.45872   0.00000  2        4
siesta:     -4.08041  -3.83238   0.00000  2        5
siesta:      7.15322  -2.10270   0.00000  2        6
siesta:     -2.54345   1.84485   0.00000  3        7
siesta:     -1.13278  -2.07129   0.00000  3        8
siesta:      0.85639   4.44182   0.00000  3        9
siesta:      4.03136  -1.08945   0.00000  3       10
siesta:     -6.64440  -1.59126   0.00000  3       11
siesta:      5.33759   3.31595   0.00000  4       12
siesta:     -9.21724  -2.77641   0.00000  4       13
siesta:      7.54937  -4.05007   0.00000  4       14
siesta:      8.73225  -0.91400   0.00000  4       15
siesta:     -4.30685  -5.82322   0.00000  4       16
siesta:      9.61925   9.84791  -0.00000  3       17
siesta:     13.15107  12.22830  -0.00000  3       18
siesta:     12.28382   4.66678  -0.00000  3       19
siesta:     16.19100   9.40355  -0.00000  3       20
siesta:      9.73175   6.66381  -0.00000  2       21
siesta:      6.53900  11.03856  -0.00000  2       22
siesta:     15.39032   6.16172  -0.00000  2       23
siesta:     13.68088  15.00662  -0.00000  4       24
siesta:     19.01692   9.81712  -0.00000  4       25
siesta:      6.07704  12.96318  -0.00000  4       26
siesta:      4.97668   9.79729  -0.00000  4       27
siesta:     12.39583   1.67639  -0.00000  1       28
siesta:     16.84854   4.78795  -0.00000  4       29

siesta: Automatic unit cell vectors (Ang):
siesta:   24.023539    0.000000    0.000000
siesta:    0.000000   19.713520    0.000000
siesta:    0.000000    0.000000    9.854683

siesta: System type = molecule  

initatomlists: Number of atoms, orbitals, and projectors:     29   297   394

siesta: ******************** Simulation parameters ****************************
siesta:
siesta: The following are some of the parameters of the simulation.
siesta: A complete list of the parameters used, including default values,
siesta: can be found in file out.fdf
siesta:
redata: Spin configuration                          = spin-orbit
redata: Number of spin components                   = 8
redata: Time-Reversal Symmetry                      = F
redata: Spin spiral                                 = F
############################################################
This spin-orbit implementation uses a local approximation.
From 4.2 and onwards the full non-local approximation is implemented
You are strongly advised to use >=4.2 versions!
############################################################
redata: Long output                                 =   F
redata: Number of Atomic Species                    =        4
redata: Charge density info will appear in .RHO file
redata: Write Mulliken Pop.                         = Atomic and Orbital charges
redata: Matel table size (NRTAB)                    =     1024
redata: Mesh Cutoff                                 =   340.0000 Ry
redata: Net charge of the system                    =     0.0000 |e|
redata: Min. number of SCF Iter                     =        1
redata: Max. number of SCF Iter                     =      200
redata: SCF mix quantity                            = Hamiltonian
redata: Mix DM or H after convergence               =   F
redata: Recompute H after scf cycle                 =   F
redata: Mix DM in first SCF step                    =   T
redata: Write Pulay info on disk                    =   F
redata: New DM Occupancy tolerance                  = 0.000000000001
redata: No kicks to SCF
redata: DM Mixing Weight for Kicks                  =     0.5000
redata: Require Harris convergence for SCF          =   F
redata: Harris energy tolerance for SCF             =     0.000100 eV
redata: Require DM convergence for SCF              =   T
redata: DM tolerance for SCF                        =     0.000008
redata: Require EDM convergence for SCF             =   F
redata: EDM tolerance for SCF                       =     0.001000 eV
redata: Require H convergence for SCF               =   T
redata: Hamiltonian tolerance for SCF               =     0.000001 eV
redata: Require (free) Energy convergence for SCF   =   F
redata: (free) Energy tolerance for SCF             =     0.000100 eV
redata: Using Saved Data (generic)                  =   F
redata: Use continuation files for DM               =   F
redata: Neglect nonoverlap interactions             =   F
redata: Method of Calculation                       = Diagonalization
redata: Electronic Temperature                      =   299.9978 K
redata: Fix the spin of the system                  =   F
redata: Dynamics option                             = Single-point calculation
mix.SCF: Pulay mixing                            = Pulay
mix.SCF:    Variant                              = stable
mix.SCF:    History steps                        = 6
mix.SCF:    Linear mixing weight                 =     0.250000
mix.SCF:    Mixing weight                        =     0.250000
mix.SCF:    SVD condition                        = 0.1000E-07
mix.SCF:    Restart steps                        = 24
mix.SCF:    Restart save steps                   = 3
mix.SCF: Spin-component mixing                   all
redata: Save all siesta data in one NC              =   F
redata: ***********************************************************************

%block SCF.Mixers
  Pulay
%endblock SCF.Mixers

%block SCF.Mixer.Pulay
  # Mixing method
  method pulay
  variant stable

  # Mixing options
  weight 0.2500
  weight.linear 0.2500
  history 6
  restart 24
  restart.save 3
%endblock SCF.Mixer.Pulay

DM_history_depth set to one: no extrapolation allowed by default for geometry relaxation
Size of DM history Fstack: 1
Total number of electrons:    98.000000
Total ionic charge:    98.000000

* ProcessorY, Blocksize:    2  24


* Orbital distribution balance (max,min):    81    72


Time-reversal symmetry not used.

siesta: k-grid: Number of k-points =     1
siesta: k-grid: Cutoff (effective) =     4.927 Ang
siesta: k-grid: Supercell and displacements
siesta: k-grid:    1   0   0      0.000
siesta: k-grid:    0   1   0      0.000
siesta: k-grid:    0   0   1      0.000

diag: Algorithm                                     = ELPA-1stage
diag: Parallel over k                               =   F
diag: Use parallel 2D distribution                  =   T
diag: Parallel block-size                           = 24
diag: Parallel distribution                         =     2 x     2
diag: Used triangular part                          = Lower
diag: Absolute tolerance                            =  0.100E-15
diag: Orthogonalization factor                      =  0.100E-05
diag: Memory factor                                 =  1.0000


ts: **************************************************************
ts: Save H and S matrices                           =    F
ts: Save DM and EDM matrices                        =    F
ts: Only save the overlap matrix S                  =    F
ts: **************************************************************

************************ Begin: TS CHECKS AND WARNINGS ************************
************************ End: TS CHECKS AND WARNINGS **************************


                     ====================================
                        Single-point calculation
                     ====================================

outcoor: Atomic coordinates (Ang):                          
    0.85492771    3.90281136    0.00000000   1       1  O
   -3.15148660    0.82385413    0.00000000   2       2  N
    1.92851868    1.17400090    0.00000000   2       3  N
    0.97989950   -1.83027589    0.00000000   2       4  N
   -2.15925893   -2.02800480    0.00000000   2       5  N
    3.78531977   -1.11270066    0.00000000   2       6  N
   -1.34593381    0.97625025    0.00000000   3       7  Si
   -0.59943988   -1.09607717    0.00000000   3       8  Si
    0.45318289    2.35051023    0.00000000   3       9  Si
    2.13330203   -0.57651080    0.00000000   3      10  Si
   -3.51606566   -0.84205651    0.00000000   3      11  Si
    2.82452783    1.75472311    0.00000000   4      12  H
   -4.87755169   -1.46921466    0.00000000   4      13  H
    3.99495202   -2.14320400    0.00000000   4      14  H
    4.62090361   -0.48366606    0.00000000   4      15  H
   -2.27908518   -3.08151409    0.00000000   4      16  H
    5.09028638    5.21128955    0.00000000   3      17  Si
    6.95924587    6.47093318    0.00000000   3      18  Si
    6.50031349    2.46955133    0.00000000   3      19  Si
    8.56790621    4.97614255    0.00000000   3      20  Si
    5.14981633    3.52633709    0.00000000   2      21  N
    3.46028718    5.84134978    0.00000000   2      22  N
    8.14420236    3.26064174    0.00000000   2      23  N
    7.23960957    7.94115570    0.00000000   4      24  H
   10.06331759    5.19499509    0.00000000   4      25  H
    3.21582819    6.85981573    0.00000000   4      26  H
    2.63354600    5.18450165    0.00000000   4      27  H
    6.55958925    0.88710930    0.00000000   1      28  O
    8.91585795    2.53367438    0.00000000   4      29  H

outcell: Unit cell vectors (Ang):
       24.023539    0.000000    0.000000
        0.000000   19.713520    0.000000
        0.000000    0.000000    9.854683

outcell: Cell vector modules (Ang)   :   24.023539   19.713520    9.854683
outcell: Cell angles (23,13,12) (deg):     90.0000     90.0000     90.0000
outcell: Cell volume (Ang**3)        :   4667.0647
<dSpData1D:S at geom step 0
  <sparsity:sparsity for geom step 0
    nrows_g=297 nrows=81 sparsity=.2167 nnzs=19112, refcount: 8>
  <dData1D:(new from dSpData1D) n=19112, refcount: 1>
refcount: 1>
new_DM -- step:     1
Initializing Density Matrix...
DM filled with atomic data:
<dSpData2D:DM initialized from atoms
  <sparsity:sparsity for geom step 0
    nrows_g=297 nrows=81 sparsity=.2167 nnzs=19112, refcount: 9>
  <dData2D:DM n=19112 m=8, refcount: 1>
refcount: 1>
     spin moment: S , {S} =   56.00000   0.00000   0.00000  56.00000
No. of atoms with KB's overlaping orbs in proc 0. Max # of overlaps:      29     189

Initializing spin-orbit part of the Hamiltonian
  Adding spin-orbit effects for O 
  Adding spin-orbit effects for N 
  Adding spin-orbit effects for Si
  Adding spin-orbit effects for H 


New grid distribution:   1
           1       1:  135    1:   60    1:   30
           2       1:  135    1:   60   31:   60
           3       1:  135   61:  120    1:   30
           4       1:  135   61:  120   31:   60

InitMesh: MESH =   270 x   240 x   120 =     7776000
InitMesh: (bp) =   135 x   120 x    60 =      972000
InitMesh: Mesh cutoff (required, used) =   340.000   349.104 Ry
ExtMesh (bp) on 0 =   239 x   172 x   142 =     5837336
New grid distribution:   2
           1      35:  135    1:   29    1:   60
           2       1:   34    1:   27    1:   60
           3      35:  135   30:  120    1:   60
           4       1:   34   28:  120    1:   60
New grid distribution:   3
           1      45:  135    1:   36    1:   60
           2       1:   44    1:   40    1:   60
           3      45:  135   37:  120    1:   60
           4       1:   44   41:  120    1:   60
Setting up quadratic distribution...
ExtMesh (bp) on 0 =   205 x   141 x   172 =     4971660
PhiOnMesh: Number of (b)points on node 0 =               175740
PhiOnMesh: nlist on node 0 =              2702496

stepf: Fermi-Dirac step function

siesta: Program's energy decomposition (eV):
siesta: Ebs     =      -610.429091
siesta: Eions   =      3585.165840
siesta: Ena     =       384.822278
siesta: Ekin    =      3370.864308
siesta: Enl     =     -3303.381104
siesta: Eso     =        -0.003397
siesta: Edftu   =         0.000000
siesta: DEna    =       154.568221
siesta: DUscf   =        80.010593
siesta: DUext   =         0.000000
siesta: Exc     =     -1204.246194
siesta: eta*DQ  =         0.000000
siesta: Emadel  =         0.000000
siesta: Emeta   =         0.000000
siesta: Emolmec =         0.000000
siesta: Ekinion =         0.000000
siesta: Eharris =     -4026.043082
siesta: Etot    =     -4102.531135
siesta: FreeEng =     -4102.532603

        iscf     Eharris(eV)        E_KS(eV)     FreeEng(eV)     dDmax    Ef(eV) dHmax(eV)
   scf:    1    -4026.043082    -4102.531135    -4102.532603  0.959578 -4.890125 20.879017
     spin moment: S , {S} =    2.00777  -0.00000  -0.00000   2.00777
timer: Routine,Calls,Time,% = IterSCF        1      12.802  17.12
   scf:    2    -4150.209586    -4138.001075    -4138.005852  0.465488 -4.211104 11.344551
     spin moment: S , {S} =    1.96384  -0.00000  -0.00000   1.96384
   scf:    3    -4112.543513    -4135.628654    -4135.653023  0.435798 -4.299762 11.228342
     spin moment: S , {S} =    2.00158  -0.00000  -0.00000   2.00158
   scf:    4    -4150.595797    -4146.033384    -4146.033385  0.286376 -3.936981  5.786773
     spin moment: S , {S} =    0.00010   0.00000  -0.00000   0.00010
   scf:    5    -4147.223608    -4146.724638    -4146.724638  0.038085 -3.729246  4.147732
     spin moment: S , {S} =    0.00006   0.00000   0.00000   0.00006
   scf:    6    -4147.467274    -4147.100094    -4147.100094  0.025045 -3.700243  2.074342
     spin moment: S , {S} =    0.00003   0.00000  -0.00000   0.00003
   scf:    7    -4147.452751    -4147.275189    -4147.275189  0.022120 -3.735962  0.881903
     spin moment: S , {S} =    0.00001   0.00000   0.00000   0.00001
   scf:    8    -4147.394009    -4147.333018    -4147.333018  0.012488 -3.755993  0.480610
     spin moment: S , {S} =    0.00000  -0.00000  -0.00000   0.00000
   scf:    9    -4147.374013    -4147.352822    -4147.352822  0.007135 -3.792278  0.318401
     spin moment: S , {S} =    0.00000   0.00000  -0.00000   0.00000
   scf:   10    -4147.402364    -4147.373229    -4147.373229  0.018153 -3.811612  0.163507
     spin moment: S , {S} =    0.00000   0.00000   0.00000  -0.00000
   scf:   11    -4147.376427    -4147.374752    -4147.374752  0.005186 -3.803381  0.047898
     spin moment: S , {S} =    0.00000   0.00000   0.00000  -0.00000
   scf:   12    -4147.375492    -4147.375128    -4147.375128  0.001642 -3.798984  0.029389
     spin moment: S , {S} =    0.00000   0.00000   0.00000   0.00000
   scf:   13    -4147.375587    -4147.375346    -4147.375346  0.001780 -3.796099  0.022894
     spin moment: S , {S} =    0.00000   0.00000   0.00000   0.00000
   scf:   14    -4147.375694    -4147.375506    -4147.375506  0.001856 -3.796705  0.017231
     spin moment: S , {S} =    0.00000   0.00000   0.00000   0.00000
   scf:   15    -4147.375757    -4147.375616    -4147.375616  0.001937 -3.795942  0.011619
     spin moment: S , {S} =    0.00000   0.00000   0.00000   0.00000
   scf:   16    -4147.375760    -4147.375673    -4147.375673  0.001845 -3.798194  0.005823
     spin moment: S , {S} =    0.00000   0.00000   0.00000   0.00000
   scf:   17    -4147.375701    -4147.375685    -4147.375685  0.000789 -3.795827  0.003258
     spin moment: S , {S} =    0.00000  -0.00000   0.00000   0.00000
   scf:   18    -4147.375692    -4147.375688    -4147.375688  0.000421 -3.795875  0.001260
     spin moment: S , {S} =    0.00000  -0.00000   0.00000   0.00000
   scf:   19    -4147.375690    -4147.375688    -4147.375688  0.000183 -3.795876  0.000675
     spin moment: S , {S} =    0.00000  -0.00000   0.00000   0.00000
   scf:   20    -4147.375689    -4147.375689    -4147.375689  0.000057 -3.795868  0.000443
     spin moment: S , {S} =    0.00000  -0.00000   0.00000   0.00000
   scf:   21    -4147.375689    -4147.375689    -4147.375689  0.000050 -3.795863  0.000157
     spin moment: S , {S} =    0.00000  -0.00000   0.00000  -0.00000
   scf:   22    -4147.375689    -4147.375689    -4147.375689  0.000025 -3.795863  0.000097
     spin moment: S , {S} =    0.00000  -0.00000   0.00000  -0.00000
   scf:   23    -4147.375689    -4147.375689    -4147.375689  0.000004 -3.795862  0.000079
     spin moment: S , {S} =    0.00000  -0.00000   0.00000  -0.00000
   scf:   24    -4147.375689    -4147.375689    -4147.375689  0.000004 -3.795857  0.000077
     spin moment: S , {S} =    0.00000  -0.00000   0.00000  -0.00000
mix: Pulay -- resetting history
   scf:   25    -4147.375689    -4147.375689    -4147.375689  0.000006 -3.795850  0.000049
     spin moment: S , {S} =    0.00000  -0.00000   0.00000  -0.00000
   scf:   26    -4147.375689    -4147.375689    -4147.375689  0.000005 -3.795846  0.000031
     spin moment: S , {S} =    0.00000  -0.00000   0.00000  -0.00000
   scf:   27    -4147.375689    -4147.375689    -4147.375689  0.000003 -3.795844  0.000019
     spin moment: S , {S} =    0.00000  -0.00000   0.00000  -0.00000
   scf:   28    -4147.375689    -4147.375689    -4147.375689  0.000003 -3.795844  0.000009
     spin moment: S , {S} =    0.00000  -0.00000   0.00000  -0.00000
   scf:   29    -4147.375689    -4147.375689    -4147.375689  0.000001 -3.795844  0.000005
     spin moment: S , {S} =    0.00000  -0.00000   0.00000   0.00000
   scf:   30    -4147.375689    -4147.375689    -4147.375689  0.000001 -3.795844  0.000003
     spin moment: S , {S} =    0.00000  -0.00000   0.00000   0.00000
   scf:   31    -4147.375689    -4147.375689    -4147.375689  0.000000 -3.795844  0.000001
     spin moment: S , {S} =    0.00000  -0.00000   0.00000   0.00000
   scf:   32    -4147.375689    -4147.375689    -4147.375689  0.000000 -3.795844  0.000001
     spin moment: S , {S} =    0.00000  -0.00000   0.00000   0.00000

SCF Convergence by DM+H criterion
max |DM_out - DM_in|         :     0.0000002059
max |H_out - H_in|      (eV) :     0.0000009826
SCF cycle converged after 32 iterations

Using DM_out to compute the final energy and forces
No. of atoms with KB's overlaping orbs in proc 0. Max # of overlaps:      29     189

siesta: E_KS(eV) =            -4147.3757

siesta: E_KS - E_eggbox =     -4147.3757
     spin moment: S , {S} =    0.00000  -0.00000   0.00000   0.00000

siesta: Atomic forces (eV/Ang):
     1    3.159330    0.646311    0.000000
     2   -0.029634   -0.011518    0.000000
     3   -0.338549    0.239732   -0.000000
     4   -0.363001   -0.064013    0.000000
     5   -0.033982    0.026658   -0.000000
     6   -0.431868   -0.036714    0.000000
     7   -0.030048    0.107874   -0.000000
     8    0.229275   -0.087462    0.000000
     9    0.213391   -0.511384   -0.000000
    10    0.632165   -0.046335   -0.000000
    11   -0.019542    0.035645   -0.000000
    12    0.096509   -0.046451    0.000000
    13   -0.078555    0.045948   -0.000000
    14    0.067397    0.098032    0.000000
    15    0.657936    0.290753    0.000000
    16    0.031334    0.149975   -0.000000
    17   -0.594549    0.414354   -0.000000
    18    0.104561   -0.087733    0.000000
    19    0.033397    0.625135    0.000000
    20   -0.023394    0.184308   -0.000000
    21    0.102316   -0.593987   -0.000000
    22    0.565113    0.055831   -0.000000
    23   -0.115749   -0.281754   -0.000000
    24   -0.070705    0.108243    0.000000
    25   -0.140055   -0.099753   -0.000000
    26   -0.028425    0.166848    0.000000
    27   -0.445424   -0.354071   -0.000000
    28    2.760421    1.515126    0.000000
    29    0.001531    0.099713   -0.000000
----------------------------------------
   Tot    5.911196    2.589310   -0.000000
----------------------------------------
   Max    3.159330
   Res    0.528811    sqrt( Sum f_i^2 / 3N )
----------------------------------------
   Max    3.159330    constrained

Stress tensor Voigt[x,y,z,yz,xz,xy] (kbar):        0.99        0.20       -0.08        0.00       -0.00        0.45
(Free)E + p*V (eV/cell)    -4148.4503
Target enthalpy (eV/cell)    -4147.3757

mulliken: Atomic and Orbital Populations:

Species: O                   

Atom      Orb        Charge      Spin       Svec
----------------------------------------------------------------
    1  1 2s         1.75378   0.00000     -0.000   0.000   0.000
    1  2 2s         0.05608   0.00000      0.000  -0.000   0.000
    1  3 2py        1.42229   0.00000     -0.000   0.000   0.000
    1  4 2pz        1.57447   0.00000      0.000  -0.000   0.000
    1  5 2px        1.62825   0.00000     -0.000   0.000   0.000
    1  6 2py        0.04947   0.00000      0.000   0.000   0.000
    1  7 2pz       -0.01061   0.00000     -0.000   0.000   0.000
    1  8 2px        0.00259   0.00000     -0.000  -0.000   0.000
    1  9 3Pdxy      0.00691   0.00000      0.000   0.000   0.000
    1 10 3Pdyz      0.00869   0.00000      0.000   0.000  -0.000
    1 11 3Pdz2      0.00149   0.00000      0.000  -0.000  -0.000
    1 12 3Pdxz      0.00028   0.00000      0.000  -0.000   0.000
    1 13 3Pdx2-y2   0.00654   0.00000      0.000   0.000   0.000
    1     Total     6.50024   0.00000     -0.000   0.000   0.000

   28  1 2s         1.74016   0.00000     -0.000   0.000   0.000
   28  2 2s         0.06551   0.00000      0.000  -0.000  -0.000
   28  3 2py        1.41621   0.00000     -0.000  -0.000   0.000
   28  4 2pz        1.56424   0.00000     -0.000  -0.000   0.000
   28  5 2px        1.64044   0.00000      0.000  -0.000   0.000
   28  6 2py        0.05051   0.00000     -0.000  -0.000   0.000
   28  7 2pz       -0.00632   0.00000     -0.000   0.000   0.000
   28  8 2px        0.00775   0.00000     -0.000   0.000   0.000
   28  9 3Pdxy      0.00692   0.00000     -0.000  -0.000   0.000
   28 10 3Pdyz      0.00982   0.00000     -0.000   0.000  -0.000
   28 11 3Pdz2      0.00112   0.00000      0.000  -0.000  -0.000
   28 12 3Pdxz     -0.00013   0.00000      0.000   0.000   0.000
   28 13 3Pdx2-y2   0.00745   0.00000      0.000  -0.000  -0.000
   28     Total     6.50367   0.00000     -0.000  -0.000   0.000

----------------------------------------------------------------
Total              13.00391   0.00000     -0.000  -0.000   0.000


Species: N                   

Atom      Orb        Charge      Spin       Svec
----------------------------------------------------------------
    2  1 2s         1.54829   0.00000      0.000  -0.000  -0.000
    2  2 2s         0.08478   0.00000     -0.000   0.000   0.000
    2  3 2py        1.03193   0.00000     -0.000   0.000  -0.000
    2  4 2pz        1.22420   0.00000     -0.000   0.000  -0.000
    2  5 2px        1.00732   0.00000     -0.000  -0.000  -0.000
    2  6 2py        0.19265   0.00000      0.000  -0.000   0.000
    2  7 2pz        0.05446   0.00000      0.000  -0.000   0.000
    2  8 2px        0.19046   0.00000      0.000   0.000   0.000
    2  9 3Pdxy      0.00840   0.00000      0.000   0.000   0.000
    2 10 3Pdyz      0.01080   0.00000      0.000  -0.000   0.000
    2 11 3Pdz2      0.00193   0.00000     -0.000   0.000   0.000
    2 12 3Pdxz      0.00754   0.00000     -0.000   0.000   0.000
    2 13 3Pdx2-y2   0.00891   0.00000      0.000  -0.000  -0.000
    2     Total     5.37167   0.00000     -0.000   0.000  -0.000

    3  1 2s         1.39741   0.00000     -0.000  -0.000   0.000
    3  2 2s         0.11878   0.00000      0.000   0.000   0.000
    3  3 2py        0.93801   0.00000     -0.000   0.000   0.000
    3  4 2pz        1.53907   0.00000     -0.000  -0.000   0.000
    3  5 2px        1.09773   0.00000     -0.000   0.000   0.000
    3  6 2py        0.25056   0.00000      0.000  -0.000   0.000
    3  7 2pz        0.00703   0.00000      0.000   0.000   0.000
    3  8 2px        0.17080   0.00000      0.000  -0.000   0.000
    3  9 3Pdxy      0.00420   0.00000     -0.000   0.000  -0.000
    3 10 3Pdyz      0.00401   0.00000      0.000  -0.000  -0.000
    3 11 3Pdz2      0.00074   0.00000     -0.000  -0.000  -0.000
    3 12 3Pdxz      0.00259   0.00000     -0.000   0.000  -0.000
    3 13 3Pdx2-y2   0.00281   0.00000     -0.000   0.000  -0.000
    3     Total     5.53374   0.00000     -0.000   0.000   0.000

    4  1 2s         1.46984   0.00000      0.000  -0.000   0.000
    4  2 2s         0.11667   0.00000     -0.000   0.000   0.000
    4  3 2py        1.10343   0.00000     -0.000   0.000   0.000
    4  4 2pz        1.29234   0.00000     -0.000   0.000   0.000
    4  5 2px        0.84116   0.00000      0.000   0.000   0.000
    4  6 2py        0.15639   0.00000      0.000  -0.000   0.000
    4  7 2pz        0.05323   0.00000      0.000   0.000   0.000
    4  8 2px        0.28676   0.00000      0.000  -0.000   0.000
    4  9 3Pdxy      0.00857   0.00000     -0.000   0.000   0.000
    4 10 3Pdyz      0.01077   0.00000      0.000  -0.000  -0.000
    4 11 3Pdz2      0.00132   0.00000     -0.000   0.000   0.000
    4 12 3Pdxz      0.00487   0.00000     -0.000  -0.000   0.000
    4 13 3Pdx2-y2   0.00853   0.00000      0.000  -0.000  -0.000
    4     Total     5.35388   0.00000     -0.000   0.000   0.000

    5  1 2s         1.37354   0.00000      0.000  -0.000  -0.000
    5  2 2s         0.12900   0.00000     -0.000   0.000   0.000
    5  3 2py        1.02756   0.00000     -0.000   0.000  -0.000
    5  4 2pz        1.50119   0.00000      0.000   0.000  -0.000
    5  5 2px        1.05896   0.00000     -0.000  -0.000  -0.000
    5  6 2py        0.20313   0.00000      0.000  -0.000   0.000
    5  7 2pz        0.01347   0.00000     -0.000  -0.000   0.000
    5  8 2px        0.20264   0.00000      0.000   0.000   0.000
    5  9 3Pdxy      0.00367   0.00000      0.000   0.000   0.000
    5 10 3Pdyz      0.00250   0.00000     -0.000  -0.000   0.000
    5 11 3Pdz2      0.00139   0.00000     -0.000   0.000   0.000
    5 12 3Pdxz      0.00674   0.00000     -0.000   0.000   0.000
    5 13 3Pdx2-y2   0.00574   0.00000      0.000  -0.000   0.000
    5     Total     5.52952   0.00000     -0.000   0.000  -0.000

    6  1 2s         1.26125   0.00000     -0.000  -0.000  -0.000
    6  2 2s         0.18245   0.00000      0.000   0.000   0.000
    6  3 2py        1.07842   0.00000      0.000  -0.000  -0.000
    6  4 2pz        1.55792   0.00000     -0.000  -0.000  -0.000
    6  5 2px        0.97916   0.00000     -0.000  -0.000  -0.000
    6  6 2py        0.19103   0.00000     -0.000   0.000   0.000
    6  7 2pz        0.02995   0.00000      0.000   0.000   0.000
    6  8 2px        0.25251   0.00000      0.000   0.000   0.000
    6  9 3Pdxy      0.00234   0.00000      0.000   0.000   0.000
    6 10 3Pdyz      0.00006   0.00000      0.000   0.000  -0.000
    6 11 3Pdz2      0.00148   0.00000     -0.000  -0.000  -0.000
    6 12 3Pdxz      0.00307   0.00000      0.000  -0.000  -0.000
    6 13 3Pdx2-y2   0.00315   0.00000      0.000   0.000   0.000
    6     Total     5.54280   0.00000     -0.000  -0.000  -0.000

   21  1 2s         1.40386   0.00000      0.000  -0.000   0.000
   21  2 2s         0.13494   0.00000     -0.000   0.000   0.000
   21  3 2py        0.87447   0.00000      0.000  -0.000   0.000
   21  4 2pz        1.30594   0.00000      0.000  -0.000   0.000
   21  5 2px        1.16513   0.00000      0.000  -0.000   0.000
   21  6 2py        0.28082   0.00000     -0.000  -0.000   0.000
   21  7 2pz        0.04757   0.00000      0.000  -0.000   0.000
   21  8 2px        0.16057   0.00000     -0.000  -0.000   0.000
   21  9 3Pdxy      0.00622   0.00000      0.000  -0.000   0.000
   21 10 3Pdyz      0.00490   0.00000     -0.000  -0.000   0.000
   21 11 3Pdz2     -0.00017   0.00000      0.000  -0.000  -0.000
   21 12 3Pdxz      0.00585   0.00000      0.000  -0.000  -0.000
   21 13 3Pdx2-y2   0.00576   0.00000     -0.000   0.000   0.000
   21     Total     5.39586   0.00000      0.000  -0.000   0.000

   22  1 2s         1.28025   0.00000      0.000  -0.000   0.000
   22  2 2s         0.17432   0.00000     -0.000   0.000  -0.000
   22  3 2py        1.07528   0.00000      0.000  -0.000  -0.000
   22  4 2pz        1.53141   0.00000     -0.000   0.000  -0.000
   22  5 2px        1.01283   0.00000      0.000   0.000  -0.000
   22  6 2py        0.19484   0.00000     -0.000  -0.000   0.000
   22  7 2pz        0.02882   0.00000      0.000  -0.000   0.000
   22  8 2px        0.23157   0.00000     -0.000  -0.000   0.000
   22  9 3Pdxy      0.00338   0.00000     -0.000  -0.000   0.000
   22 10 3Pdyz      0.00007   0.00000      0.000  -0.000  -0.000
   22 11 3Pdz2      0.00237   0.00000     -0.000   0.000  -0.000
   22 12 3Pdxz      0.00311   0.00000     -0.000  -0.000   0.000
   22 13 3Pdx2-y2   0.00342   0.00000      0.000  -0.000   0.000
   22     Total     5.54166   0.00000      0.000  -0.000  -0.000

   23  1 2s         1.38578   0.00000     -0.000   0.000   0.000
   23  2 2s         0.12323   0.00000      0.000  -0.000   0.000
   23  3 2py        0.99558   0.00000     -0.000   0.000  -0.000
   23  4 2pz        1.52562   0.00000      0.000   0.000   0.000
   23  5 2px        1.07025   0.00000     -0.000   0.000   0.000
   23  6 2py        0.22299   0.00000     -0.000  -0.000   0.000
   23  7 2pz        0.00501   0.00000      0.000  -0.000   0.000
   23  8 2px        0.19337   0.00000      0.000  -0.000   0.000
   23  9 3Pdxy      0.00530   0.00000      0.000   0.000   0.000
   23 10 3Pdyz      0.00454   0.00000      0.000   0.000  -0.000
   23 11 3Pdz2      0.00067   0.00000     -0.000  -0.000  -0.000
   23 12 3Pdxz      0.00230   0.00000      0.000   0.000  -0.000
   23 13 3Pdx2-y2   0.00123   0.00000     -0.000   0.000  -0.000
   23     Total     5.53586   0.00000     -0.000   0.000   0.000

----------------------------------------------------------------
Total              56.80890   0.00000     -0.000  -0.000   0.000


Species: Si                  

Atom      Orb        Charge      Spin       Svec
----------------------------------------------------------------
    7  1 3s         0.68741   0.00000     -0.000  -0.000   0.000
    7  2 3s         0.35823   0.00000      0.000   0.000   0.000
    7  3 3py        0.46097   0.00000      0.000  -0.000   0.000
    7  4 3pz        0.70551   0.00000      0.000   0.000   0.000
    7  5 3px        0.13333   0.00000      0.000  -0.000   0.000
    7  6 3py        0.28032   0.00000     -0.000   0.000   0.000
    7  7 3pz        0.25869   0.00000     -0.000   0.000   0.000
    7  8 3px        0.42383   0.00000     -0.000   0.000   0.000
    7  9 3Pdxy      0.24286   0.00000      0.000  -0.000   0.000
    7 10 3Pdyz      0.03001   0.00000      0.000   0.000  -0.000
    7 11 3Pdz2      0.01185   0.00000     -0.000  -0.000   0.000
    7 12 3Pdxz      0.13874   0.00000     -0.000   0.000  -0.000
    7 13 3Pdx2-y2   0.11375   0.00000     -0.000   0.000  -0.000
    7     Total     3.84551   0.00000      0.000   0.000   0.000

    8  1 3s         0.64778   0.00000     -0.000  -0.000  -0.000
    8  2 3s         0.37110   0.00000     -0.000   0.000   0.000
    8  3 3py        0.38907   0.00000      0.000   0.000  -0.000
    8  4 3pz        0.51550   0.00000     -0.000   0.000   0.000
    8  5 3px       -0.02811   0.00000     -0.000   0.000  -0.000
    8  6 3py        0.30324   0.00000     -0.000  -0.000  -0.000
    8  7 3pz        0.20418   0.00000     -0.000  -0.000   0.000
    8  8 3px        0.52026   0.00000      0.000   0.000  -0.000
    8  9 3Pdxy      0.26046   0.00000     -0.000   0.000  -0.000
    8 10 3Pdyz      0.11032   0.00000     -0.000   0.000   0.000
    8 11 3Pdz2      0.01289   0.00000     -0.000  -0.000   0.000
    8 12 3Pdxz      0.15765   0.00000     -0.000   0.000  -0.000
    8 13 3Pdx2-y2   0.18882   0.00000     -0.000   0.000  -0.000
    8     Total     3.65316   0.00000     -0.000   0.000   0.000

    9  1 3s         0.62648   0.00000      0.000  -0.000  -0.000
    9  2 3s         0.35873   0.00000     -0.000   0.000  -0.000
    9  3 3py        0.10376   0.00000      0.000  -0.000  -0.000
    9  4 3pz        0.48039   0.00000      0.000  -0.000  -0.000
    9  5 3px        0.36077   0.00000     -0.000   0.000  -0.000
    9  6 3py        0.42064   0.00000     -0.000   0.000  -0.000
    9  7 3pz        0.18435   0.00000     -0.000  -0.000  -0.000
    9  8 3px        0.27344   0.00000      0.000  -0.000  -0.000
    9  9 3Pdxy      0.30153   0.00000      0.000  -0.000  -0.000
    9 10 3Pdyz      0.19271   0.00000     -0.000  -0.000  -0.000
    9 11 3Pdz2      0.01352   0.00000     -0.000   0.000  -0.000
    9 12 3Pdxz      0.09236   0.00000     -0.000  -0.000  -0.000
    9 13 3Pdx2-y2   0.15812   0.00000      0.000  -0.000  -0.000
    9     Total     3.56678   0.00000      0.000  -0.000  -0.000

   10  1 3s         0.48101   0.00000      0.000  -0.000  -0.000
   10  2 3s         0.38078   0.00000      0.000   0.000   0.000
   10  3 3py        0.23743   0.00000     -0.000   0.000  -0.000
   10  4 3pz        0.41055   0.00000     -0.000   0.000  -0.000
   10  5 3px        0.10235   0.00000      0.000  -0.000  -0.000
   10  6 3py        0.33467   0.00000      0.000  -0.000  -0.000
   10  7 3pz        0.22001   0.00000      0.000  -0.000  -0.000
   10  8 3px        0.42733   0.00000     -0.000   0.000  -0.000
   10  9 3Pdxy      0.16476   0.00000     -0.000   0.000  -0.000
   10 10 3Pdyz      0.14514   0.00000      0.000   0.000  -0.000
   10 11 3Pdz2      0.01093   0.00000     -0.000   0.000  -0.000
   10 12 3Pdxz      0.17274   0.00000     -0.000   0.000  -0.000
   10 13 3Pdx2-y2   0.32026   0.00000     -0.000   0.000  -0.000
   10     Total     3.40797   0.00000     -0.000   0.000  -0.000

   11  1 3s         0.55908   0.00000      0.000   0.000   0.000
   11  2 3s         0.38174   0.00000     -0.000  -0.000   0.000
   11  3 3py        0.30528   0.00000      0.000   0.000   0.000
   11  4 3pz        0.54405   0.00000      0.000  -0.000   0.000
   11  5 3px        0.13995   0.00000      0.000  -0.000   0.000
   11  6 3py        0.30249   0.00000     -0.000  -0.000   0.000
   11  7 3pz        0.17661   0.00000      0.000  -0.000   0.000
   11  8 3px        0.43131   0.00000      0.000  -0.000   0.000
   11  9 3Pdxy      0.24423   0.00000      0.000   0.000   0.000
   11 10 3Pdyz      0.12510   0.00000      0.000  -0.000   0.000
   11 11 3Pdz2      0.00940   0.00000      0.000  -0.000  -0.000
   11 12 3Pdxz      0.05294   0.00000     -0.000  -0.000   0.000
   11 13 3Pdx2-y2   0.18411   0.00000     -0.000   0.000   0.000
   11     Total     3.45629   0.00000      0.000  -0.000   0.000

   17  1 3s         0.64576   0.00000      0.000   0.000  -0.000
   17  2 3s         0.35835   0.00000     -0.000  -0.000   0.000
   17  3 3py        0.24526   0.00000      0.000   0.000  -0.000
   17  4 3pz        0.42410   0.00000     -0.000   0.000  -0.000
   17  5 3px        0.22576   0.00000     -0.000  -0.000  -0.000
   17  6 3py        0.36669   0.00000     -0.000  -0.000  -0.000
   17  7 3pz        0.21431   0.00000      0.000  -0.000  -0.000
   17  8 3px        0.38360   0.00000     -0.000   0.000  -0.000
   17  9 3Pdxy      0.29090   0.00000     -0.000  -0.000  -0.000
   17 10 3Pdyz      0.13730   0.00000      0.000   0.000  -0.000
   17 11 3Pdz2      0.00923   0.00000      0.000   0.000   0.000
   17 12 3Pdxz      0.14894   0.00000      0.000  -0.000  -0.000
   17 13 3Pdx2-y2   0.17175   0.00000     -0.000   0.000  -0.000
   17     Total     3.62196   0.00000      0.000   0.000  -0.000

   18  1 3s         0.74483   0.00000     -0.000   0.000   0.000
   18  2 3s         0.33984   0.00000      0.000  -0.000   0.000
   18  3 3py        0.08146   0.00000     -0.000   0.000   0.000
   18  4 3pz        0.82153   0.00000      0.000   0.000   0.000
   18  5 3px        0.54515   0.00000     -0.000   0.000   0.000
   18  6 3py        0.51812   0.00000     -0.000  -0.000   0.000
   18  7 3pz        0.19776   0.00000     -0.000   0.000   0.000
   18  8 3px        0.25415   0.00000      0.000   0.000   0.000
   18  9 3Pdxy      0.10804   0.00000      0.000  -0.000  -0.000
   18 10 3Pdyz      0.02788   0.00000      0.000  -0.000  -0.000
   18 11 3Pdz2      0.00917   0.00000     -0.000  -0.000  -0.000
   18 12 3Pdxz      0.02992   0.00000     -0.000  -0.000  -0.000
   18 13 3Pdx2-y2   0.10459   0.00000     -0.000   0.000  -0.000
   18     Total     3.78243   0.00000     -0.000   0.000   0.000

   19  1 3s         0.45750   0.00000      0.000   0.000  -0.000
   19  2 3s         0.36395   0.00000     -0.000  -0.000  -0.000
   19  3 3py        0.08140   0.00000     -0.000   0.000  -0.000
   19  4 3pz        0.41371   0.00000     -0.000   0.000  -0.000
   19  5 3px        0.32118   0.00000     -0.000   0.000  -0.000
   19  6 3py        0.46381   0.00000      0.000  -0.000  -0.000
   19  7 3pz        0.18846   0.00000      0.000   0.000  -0.000
   19  8 3px        0.26058   0.00000      0.000  -0.000  -0.000
   19  9 3Pdxy      0.34535   0.00000      0.000   0.000  -0.000
   19 10 3Pdyz      0.19066   0.00000      0.000   0.000  -0.000
   19 11 3Pdz2      0.01417   0.00000      0.000  -0.000  -0.000
   19 12 3Pdxz      0.08982   0.00000     -0.000  -0.000  -0.000
   19 13 3Pdx2-y2   0.23423   0.00000      0.000   0.000  -0.000
   19     Total     3.42483   0.00000     -0.000   0.000  -0.000

   20  1 3s         0.67447   0.00000     -0.000  -0.000   0.000
   20  2 3s         0.37924   0.00000      0.000   0.000  -0.000
   20  3 3py        0.33949   0.00000     -0.000  -0.000  -0.000
   20  4 3pz        0.58812   0.00000     -0.000  -0.000  -0.000
   20  5 3px        0.13990   0.00000      0.000  -0.000   0.000
   20  6 3py        0.28765   0.00000     -0.000   0.000   0.000
   20  7 3pz        0.16274   0.00000      0.000  -0.000  -0.000
   20  8 3px        0.49897   0.00000     -0.000   0.000   0.000
   20  9 3Pdxy      0.10246   0.00000     -0.000  -0.000  -0.000
   20 10 3Pdyz      0.13369   0.00000     -0.000  -0.000  -0.000
   20 11 3Pdz2      0.00747   0.00000     -0.000  -0.000   0.000
   20 12 3Pdxz      0.02667   0.00000      0.000  -0.000  -0.000
   20 13 3Pdx2-y2   0.17261   0.00000      0.000   0.000   0.000
   20     Total     3.51349   0.00000      0.000  -0.000  -0.000

----------------------------------------------------------------
Total              89.08132   0.00000     -0.000  -0.000   0.000


Species: H                   

Atom      Orb        Charge      Spin       Svec
----------------------------------------------------------------
   12  1 1s         0.47941   0.00000      0.000  -0.000   0.000
   12  2 1s         0.18671   0.00000     -0.000   0.000   0.000
   12  3 2Ppy       0.03001   0.00000      0.000  -0.000  -0.000
   12  4 2Ppz       0.03265   0.00000      0.000   0.000  -0.000
   12  5 2Ppx       0.02773   0.00000     -0.000   0.000   0.000
   12     Total     0.75651   0.00000      0.000  -0.000   0.000

   13  1 1s         1.02071   0.00000     -0.000   0.000  -0.000
   13  2 1s         0.09476   0.00000      0.000  -0.000   0.000
   13  3 2Ppy       0.01981   0.00000      0.000  -0.000  -0.000
   13  4 2Ppz       0.02018   0.00000      0.000  -0.000   0.000
   13  5 2Ppx       0.03312   0.00000     -0.000   0.000  -0.000
   13     Total     1.18859   0.00000     -0.000   0.000  -0.000

   14  1 1s         0.47397   0.00000      0.000   0.000  -0.000
   14  2 1s         0.19850   0.00000     -0.000   0.000   0.000
   14  3 2Ppy       0.01915   0.00000     -0.000   0.000  -0.000
   14  4 2Ppz       0.04783   0.00000      0.000   0.000  -0.000
   14  5 2Ppx       0.01821   0.00000     -0.000   0.000   0.000
   14     Total     0.75766   0.00000      0.000   0.000   0.000

   15  1 1s         0.44846   0.00000      0.000  -0.000   0.000
   15  2 1s         0.19943   0.00000      0.000  -0.000   0.000
   15  3 2Ppy       0.01166   0.00000     -0.000   0.000   0.000
   15  4 2Ppz       0.04230   0.00000     -0.000  -0.000  -0.000
   15  5 2Ppx       0.04338   0.00000      0.000   0.000  -0.000
   15     Total     0.74524   0.00000      0.000  -0.000   0.000

   16  1 1s         0.50691   0.00000     -0.000  -0.000   0.000
   16  2 1s         0.18763   0.00000      0.000   0.000   0.000
   16  3 2Ppy       0.03001   0.00000     -0.000   0.000  -0.000
   16  4 2Ppz       0.03938   0.00000     -0.000  -0.000  -0.000
   16  5 2Ppx       0.02315   0.00000      0.000   0.000   0.000
   16     Total     0.78708   0.00000     -0.000  -0.000   0.000

   24  1 1s         1.05728   0.00000     -0.000   0.000  -0.000
   24  2 1s         0.07593   0.00000      0.000   0.000   0.000
   24  3 2Ppy       0.03159   0.00000     -0.000   0.000  -0.000
   24  4 2Ppz       0.03108   0.00000     -0.000   0.000  -0.000
   24  5 2Ppx       0.01764   0.00000      0.000  -0.000  -0.000
   24     Total     1.21352   0.00000     -0.000   0.000  -0.000

   25  1 1s         1.04729   0.00000     -0.000   0.000  -0.000
   25  2 1s         0.08421   0.00000      0.000   0.000   0.000
   25  3 2Ppy       0.01169   0.00000     -0.000  -0.000  -0.000
   25  4 2Ppz       0.01811   0.00000      0.000  -0.000  -0.000
   25  5 2Ppx       0.03640   0.00000      0.000  -0.000   0.000
   25     Total     1.19770   0.00000     -0.000   0.000  -0.000

   26  1 1s         0.48149   0.00000      0.000  -0.000   0.000
   26  2 1s         0.19812   0.00000     -0.000   0.000   0.000
   26  3 2Ppy       0.01991   0.00000      0.000   0.000   0.000
   26  4 2Ppz       0.05081   0.00000      0.000   0.000  -0.000
   26  5 2Ppx       0.01698   0.00000      0.000  -0.000  -0.000
   26     Total     0.76731   0.00000      0.000   0.000   0.000

   27  1 1s         0.44433   0.00000      0.000   0.000   0.000
   27  2 1s         0.19684   0.00000     -0.000   0.000   0.000
   27  3 2Ppy       0.01625   0.00000     -0.000  -0.000  -0.000
   27  4 2Ppz       0.03846   0.00000      0.000  -0.000  -0.000
   27  5 2Ppx       0.04902   0.00000      0.000   0.000  -0.000
   27     Total     0.74491   0.00000      0.000  -0.000   0.000

   29  1 1s         0.48702   0.00000      0.000  -0.000   0.000
   29  2 1s         0.18807   0.00000      0.000   0.000   0.000
   29  3 2Ppy       0.02517   0.00000      0.000   0.000  -0.000
   29  4 2Ppz       0.03465   0.00000      0.000   0.000  -0.000
   29  5 2Ppx       0.02527   0.00000      0.000  -0.000  -0.000
   29     Total     0.76018   0.00000      0.000  -0.000   0.000

----------------------------------------------------------------
Total              98.00000   0.00000     -0.000   0.000   0.000


siesta: Eigenvalues (eV):
ik =     1
  -22.4207  -22.4207  -22.0718  -22.0718  -21.3386  -21.3386  -21.2586  -21.2586  -21.2295  -21.2295
  -21.1067  -21.1067  -20.5238  -20.5238  -19.6920  -19.6920  -19.5869  -19.5869  -19.3603  -19.3603
  -14.7511  -14.7511  -13.8262  -13.8262  -13.2652  -13.2652  -13.1415  -13.1415  -12.8382  -12.8382
  -12.7768  -12.7768  -12.5789  -12.5789  -12.0805  -12.0805  -12.0267  -12.0267  -11.9439  -11.9439
  -11.1795  -11.1795  -10.7885  -10.7885  -10.6540  -10.6540  -10.5082  -10.5082  -10.1305  -10.1305
   -9.6285   -9.6285   -9.0430   -9.0430   -8.9654   -8.9654   -8.7978   -8.7978   -8.6093   -8.6093
   -8.5234   -8.5234   -8.4877   -8.4877   -8.1355   -8.1355   -8.0520   -8.0520   -7.9073   -7.9073
   -7.5979   -7.5979   -7.4334   -7.4334   -7.1787   -7.1787   -6.9669   -6.9669   -6.7361   -6.7361
   -6.6351   -6.6351   -6.4304   -6.4304   -6.4074   -6.4074   -6.3112   -6.3112   -6.2682   -6.2682
   -6.2176   -6.2176   -6.0182   -6.0182   -5.5169   -5.5169   -4.3588   -4.3588   -3.2344   -3.2344
   -2.3994   -2.3994   -2.2819   -2.2819   -2.2464   -2.2464   -1.9581   -1.9581   -1.9000   -1.9000
   -1.8164   -1.8164   -1.7613   -1.7613   -1.6470   -1.6470   -1.2869   -1.2869   -1.2535   -1.2535
   -1.0874   -1.0874   -0.6478   -0.6478   -0.4132   -0.4132   -0.3341   -0.3341    0.3069    0.3069
    0.3659    0.3659    0.4999    0.4999    0.7077    0.7077    0.7921    0.7921    1.2069    1.2069
    1.3025    1.3025    1.3717    1.3717    1.4230    1.4230    1.4379    1.4379    1.7950    1.7950
    2.0213    2.0213    2.1708    2.1708    2.5993    2.5993    2.7174    2.7174    2.7203    2.7203
    2.8366    2.8366    2.9552    2.9552    3.0449    3.0449    3.3657    3.3657    3.4684    3.4684
    3.7752    3.7752    3.9768    3.9768    4.0966    4.0966    4.2214    4.2214    4.2607    4.2607
    4.5259    4.5259    4.6764    4.6764    4.6891    4.6891    4.8551    4.8551    5.0282    5.0282
    5.0896    5.0896    5.2724    5.2724    5.3856    5.3856    5.5709    5.5709    5.5974    5.5974
    5.9122    5.9122    6.0268    6.0268    6.1139    6.1139    6.3683    6.3683    6.4434    6.4434
    6.5059    6.5059    6.5566    6.5566    6.6486    6.6486    6.6865    6.6865    7.0476    7.0476
    7.1010    7.1010    7.2599    7.2599    7.4895    7.4895    7.7770    7.7770    7.9144    7.9144
    8.0415    8.0415    8.0621    8.0621    8.1712    8.1712    8.3174    8.3174    8.6308    8.6308
    8.7325    8.7325    8.9318    8.9318    8.9658    8.9658    8.9960    8.9960    9.2917    9.2917
    9.3689    9.3689    9.7476    9.7476    9.7751    9.7751    9.7940    9.7940    9.9836    9.9836
   10.1209   10.1209   10.4122   10.4122   10.4909   10.4909   10.9728   10.9728   11.0409   11.0409
   11.2281   11.2281   11.3369   11.3369   12.0005   12.0005   12.2231   12.2231   12.2395   12.2395
   12.2563   12.2563   12.3418   12.3418   12.3554   12.3554   12.6260   12.6260   12.8613   12.8613
   13.1351   13.1351   13.2282   13.2282   13.5708   13.5708   13.6152   13.6152   13.9722   13.9722
   14.1119   14.1119   14.1168   14.1168   14.3274   14.3274   14.5225   14.5225   14.7592   14.7592
   15.2286   15.2286   15.6479   15.6479   16.0967   16.0967   16.6175   16.6175   16.7320   16.7320
   17.0523   17.0523   17.5114   17.5114   17.7417   17.7417   18.4937   18.4937   18.7200   18.7200
   19.3915   19.3915   19.6735   19.6735   20.1545   20.1545   20.1862   20.1862   20.5223   20.5223
   21.2339   21.2339   21.5994   21.5994   22.0079   22.0079   22.5615   22.5615   22.8056   22.8056
   23.2796   23.2796   23.6189   23.6189   23.7863   23.7863   24.0158   24.0158   24.8075   24.8075
   24.9735   24.9735   25.1448   25.1448   26.3655   26.3655   27.3370   27.3370   28.5125   28.5125
   28.9300   28.9300   29.3350   29.3350   29.5962   29.5962   30.1302   30.1302   30.2076   30.2076
   30.5599   30.5599   30.8393   30.8393   30.9114   30.9114   30.9349   30.9350   31.2542   31.2542
   31.5273   31.5273   31.8870   31.8870   32.6714   32.6714   33.0819   33.0819   33.7956   33.7956
   34.1794   34.1794   34.5704   34.5704   34.5997   34.5997   34.7502   34.7502   34.7924   34.7924
   35.4107   35.4107   35.6259   35.6259   35.9601   35.9601   37.0047   37.0047   37.0609   37.0609
   37.4210   37.4210   38.1692   38.1692   38.4448   38.4448   38.5394   38.5394   38.8654   38.8654
   39.0535   39.0535   39.5068   39.5068   40.4401   40.4401   40.7401   40.7401   40.7821   40.7821
   41.0992   41.0992   41.1743   41.1743   41.4721   41.4721   41.8273   41.8273   42.6024   42.6024
   43.0021   43.0021   43.0384   43.0384   43.4755   43.4755   43.6597   43.6597   43.9745   43.9745
   44.2132   44.2132   44.6681   44.6681   44.7049   44.7049   45.0319   45.0319   45.1430   45.1430
   45.3994   45.3994   46.5103   46.5103   46.7227   46.7227   47.6284   47.6284   47.7771   47.7771
   48.3126   48.3126   49.5024   49.5024   49.6766   49.6766   49.7284   49.7284   50.7988   50.7988
   50.9293   50.9293   51.3156   51.3156   51.5922   51.5922   51.8988   51.8988   52.1543   52.1543
   52.7767   52.7767   52.8312   52.8312   53.8088   53.8088   55.2360   55.2360   55.2661   55.2661
   55.5091   55.5091   55.8616   55.8616   56.3088   56.3088   57.0304   57.0304   57.4612   57.4612
   57.7715   57.7715   58.4058   58.4058   58.5446   58.5446   60.0798   60.0798   60.3056   60.3056
   61.0115   61.0115   61.3025   61.3025   62.2321   62.2321   62.5288   62.5288   64.1299   64.1299
   64.9375   64.9375   65.5755   65.5755   65.7813   65.7813   66.3244   66.3244   67.2138   67.2138
   67.7993   67.7993   69.2442   69.2442   69.9499   69.9499   71.7416   71.7416   72.0996   72.0996
   75.0872   75.0872   86.1483   86.1483   91.0783   91.0783   91.8655   91.8655   93.9835   93.9835
   98.5856   98.5856   99.8612   99.8612  102.9438  102.9438  103.6340  103.6340  104.7156  104.7156
  112.6918  112.6918  114.4722  114.4722  124.3421  124.3421  126.8774  126.8774  133.9186  133.9186
  144.8141  144.8141  145.1578  145.1578
siesta: Fermi energy =      -3.795844 eV

siesta: Program's energy decomposition (eV):
siesta: Ebs     =     -1134.610825
siesta: Eions   =      3585.165840
siesta: Ena     =       384.822278
siesta: Ekin    =      2908.114340
siesta: Enl     =     -2795.946127
siesta: Eso     =        -0.004272
siesta: Edftu   =         0.000000
siesta: DEna    =        47.845119
siesta: DUscf   =        13.981970
siesta: DUext   =         0.000000
siesta: Exc     =     -1121.023156
siesta: eta*DQ  =         0.000000
siesta: Emadel  =         0.000000
siesta: Emeta   =         0.000000
siesta: Emolmec =         0.000000
siesta: Ekinion =         0.000000
siesta: Eharris =     -4147.375689
siesta: Etot    =     -4147.375689
siesta: FreeEng =     -4147.375689

siesta: Final energy (eV):
siesta:  Band Struct. =   -1134.610825
siesta:       Kinetic =    2908.114340
siesta:       Hartree =    8758.617742
siesta:       Edftu   =       0.000000
siesta:       Eso     =      -0.004272
siesta:    Ext. field =       0.000000
siesta:   Exch.-corr. =   -1121.023156
siesta:  Ion-electron =  -20104.714888
siesta:       Ion-ion =    5411.634546
siesta:       Ekinion =       0.000000
siesta:         Total =   -4147.375689
siesta:         Fermi =      -3.795844

siesta: Atomic forces (eV/Ang):
siesta:      1    3.159330    0.646311    0.000000
siesta:      2   -0.029634   -0.011518    0.000000
siesta:      3   -0.338549    0.239732   -0.000000
siesta:      4   -0.363001   -0.064013    0.000000
siesta:      5   -0.033982    0.026658   -0.000000
siesta:      6   -0.431868   -0.036714    0.000000
siesta:      7   -0.030048    0.107874   -0.000000
siesta:      8    0.229275   -0.087462    0.000000
siesta:      9    0.213391   -0.511384   -0.000000
siesta:     10    0.632165   -0.046335   -0.000000
siesta:     11   -0.019542    0.035645   -0.000000
siesta:     12    0.096509   -0.046451    0.000000
siesta:     13   -0.078555    0.045948   -0.000000
siesta:     14    0.067397    0.098032    0.000000
siesta:     15    0.657936    0.290753    0.000000
siesta:     16    0.031334    0.149975   -0.000000
siesta:     17   -0.594549    0.414354   -0.000000
siesta:     18    0.104561   -0.087733    0.000000
siesta:     19    0.033397    0.625135    0.000000
siesta:     20   -0.023394    0.184308   -0.000000
siesta:     21    0.102316   -0.593987   -0.000000
siesta:     22    0.565113    0.055831   -0.000000
siesta:     23   -0.115749   -0.281754   -0.000000
siesta:     24   -0.070705    0.108243    0.000000
siesta:     25   -0.140055   -0.099753   -0.000000
siesta:     26   -0.028425    0.166848    0.000000
siesta:     27   -0.445424   -0.354071   -0.000000
siesta:     28    2.760421    1.515126    0.000000
siesta:     29    0.001531    0.099713   -0.000000
siesta: ----------------------------------------
siesta:    Tot    5.911196    2.589310   -0.000000

siesta: Stress tensor (static) (eV/Ang**3):
siesta:     0.000617    0.000278   -0.000000
siesta:     0.000278    0.000123   -0.000000
siesta:    -0.000000    0.000000   -0.000049

siesta: Cell volume =       4667.064733 Ang**3

siesta: Pressure (static):
siesta:                Solid            Molecule  Units
siesta:          -0.00000251         -0.00000302  Ry/Bohr**3
siesta:          -0.00023025         -0.00027685  eV/Ang**3
siesta:          -0.36889753         -0.44356977  kBar
(Free)E+ p_basis*V_orbitals  =       -4127.525271
(Free)Eharris+ p_basis*V_orbitals  =       -4127.525271
     spin moment: S , {S} =    0.00000  -0.00000   0.00000   0.00000

siesta: Electric dipole (a.u.)  =    1.476111    0.086224    0.000000
siesta: Electric dipole (Debye) =    3.751903    0.219160    0.000000

cite: Please see "GC.bib" for an exhaustive BiBTeX file.
cite: Please clearly indicate Siesta version in published work: v4.1.5-1-g384057250
cite: This calculation has made use of the following articles
cite: which are encouraged to be cited in a published work.
        Primary SIESTA paper
          DOI: www.doi.org/10.1088/0953-8984/14/11/302
        Spin-orbit coupling (on-site approximation)
          DOI: www.doi.org/10.1088/0953-8984/19/19/489001


WARNING: alloc-realloc-dealloc name mismatch
         Name: atomlist isa
         Size:              -116. Bytes
         Node:     0
         Subsequent mismatches will not be reported
>> End of run:  22-MAY-2023  17:10:21
Job completed
