Siesta Version  : v4.1.5-1-g384057250
Architecture    : gcc
Compiler version: GNU Fortran (Debian 10.2.1-6) 10.2.1 20210110
Compiler flags  : mpifort -O2 -fPIC -ftree-vectorize -fallow-argument-mismatch
PP flags        : -DFC_HAVE_ABORT -DMPI -DSIESTA__FLOOK -DSIESTA__METIS -DSIESTA__MUMPS -DCDF -DNCDF -DNCDF_4 -DNCDF_PARALLEL -DSIESTA__MRRR -DSIESTA__ELPA
Libraries       : libncdf.a libfdict.a  -lflookall -ldl -lnetcdff -lnetcdf -lhdf5_hl -lhdf5 -lhdf5_fortran -lz -lscalapack-openmpi -lopenblas -lmetis -lzmumps -lcmumps -ldmumps -lmumps_common -lpord -lsmumps -lesmumps -lscotch -lscotcherr -fopenmp -lelpa
PARALLEL version
NetCDF support
NetCDF-4 support
NetCDF-4 MPI-IO support
METIS ordering support
Lua support

* Running on 6 nodes in parallel
>> Start of run:  22-MAY-2023   9:07:12

                           ***********************       
                           *  WELCOME TO SIESTA  *       
                           ***********************       

reinit: Reading from standard input
reinit: Dumped input in INPUT_TMP.35091
************************** Dump of input data file ****************************
SystemLabel      AT
NumberOfAtoms    30
NumberOfSpecies  4
%block ChemicalSpeciesLabel
    1    1  H
    2    7  N
    3   14  Si
    4    8  O
%endblock ChemicalSpeciesLabel
# Single point calculation
MD.TypeOfRun                CG
MD.Steps                    0
SCF.MustConverge            F # In case it does not. There can be 2 very close atoms
AtomicCoordinatesFormat NotScaledCartesianAng
%block AtomicCoordinatesAndAtomicSpecies
2.582377650    -5.776830440   0.000000000       1
1.654759240    -5.269361980   0.000000000       2
0.063128840    -6.101704590   0.000000000       3
0.119223240    -7.596849500   0.000000000       1
-1.376892050   -5.182603740   0.000000000       2
-0.824371900   -3.460866440   0.000000000       3
-1.170571480   -1.270002100   0.000000000       3
-2.706933680   -0.417515780   0.000000000       2
-2.754569660   0.634858620    0.000000000       1
-3.637675640   -0.909967860   0.000000000       1
0.218091790    -0.234193970   0.000000000       2
1.872004100    -0.697162300   0.000000000       3
2.828001130    0.461464770    0.000000000       1
2.648150080    -2.255024470   0.000000000       2
1.391921380    -3.454727220   0.000000000       3
1.917233062    3.696457353    0.000000000       2
0.589861542    4.906661653    0.000000000       3
1.229862812    6.267979893    0.000000000       1
-1.495884398   4.236130303    0.000000000       3
-3.525446998   5.366246493    0.000000000       3
-3.371211228   6.526476703    0.940305280       1
-4.511381718   4.344325873    0.512613700       1
-3.941661958   5.842472343    -1.366678340      1
-1.429388978   1.962153683    0.000000000       3
-2.468437708   0.769094183    0.000000000       4
0.227602602    1.328178493    0.000000000       2
0.209585232    0.265733663    0.000000000       1
1.851205672    1.925248703    0.000000000       3
3.046221842    0.910823503    0.000000000       4
2.917270432    4.041964453    0.000000000       1
%endblock AtomicCoordinatesAndAtomicSpecies
%include ../../../Defaults.fdf
************************** End of input data file *****************************

reinit: -----------------------------------------------------------------------
reinit: System Name: 
reinit: -----------------------------------------------------------------------
reinit: System Label: AT
reinit: -----------------------------------------------------------------------

initatom: Reading input for the pseudopotentials and atomic orbitals ----------
Species number:   1 Atomic number:    1 Label: H
Species number:   2 Atomic number:    7 Label: N
Species number:   3 Atomic number:   14 Label: Si
Species number:   4 Atomic number:    8 Label: O

Ground state valence configuration:   1s01
Reading pseudopotential information in formatted form from H.psf

Pseudopotential generated from a relativistic atomic calculation

Valence configuration for pseudopotential generation:
1s( 1.00) rc: 0.01
2p( 0.00) rc: 0.60
3d( 0.00) rc: 1.99
4f( 0.00) rc: 2.49
Ground state valence configuration:   2s02  2p03
Reading pseudopotential information in formatted form from N.psf

Pseudopotential generated from a relativistic atomic calculation

Valence configuration for pseudopotential generation:
2s( 2.00) rc: 0.94
2p( 3.00) rc: 0.59
3d( 0.00) rc: 3.46
4f( 0.00) rc: 2.47
Ground state valence configuration:   3s02  3p02
Reading pseudopotential information in formatted form from Si.psf

Pseudopotential generated from a relativistic atomic calculation

Valence configuration for pseudopotential generation:
3s( 2.00) rc: 1.67
3p( 2.00) rc: 2.04
3d( 0.00) rc: 2.89
4f( 0.00) rc: 2.49
Ground state valence configuration:   2s02  2p04
Reading pseudopotential information in formatted form from O.psf

Pseudopotential generated from a relativistic atomic calculation

Valence configuration for pseudopotential generation:
2s( 2.00) rc: 0.45
2p( 4.00) rc: 0.92
3d( 0.00) rc: 2.24
4f( 0.00) rc: 0.25
For H, standard SIESTA heuristics set lmxkb to 2
 (one more than the basis l, including polarization orbitals).
Use PS.lmax or PS.KBprojectors blocks to override.
For N, standard SIESTA heuristics set lmxkb to 3
 (one more than the basis l, including polarization orbitals).
Use PS.lmax or PS.KBprojectors blocks to override.
For Si, standard SIESTA heuristics set lmxkb to 3
 (one more than the basis l, including polarization orbitals).
Use PS.lmax or PS.KBprojectors blocks to override.
For O, standard SIESTA heuristics set lmxkb to 3
 (one more than the basis l, including polarization orbitals).
Use PS.lmax or PS.KBprojectors blocks to override.

<basis_specs>
===============================================================================
H                    Z=   1    Mass=  1.0100        Charge= 0.17977+309
Lmxo=0 Lmxkb= 2    BasisType=split      Semic=F
L=0  Nsemic=0  Cnfigmx=1
          i=1  nzeta=2  polorb=1  (1s)
            splnorm:   0.62000    
               vcte:    0.0000    
               rinn:    0.0000    
               qcoe:    0.0000    
               qyuk:    0.0000    
               qwid:   0.10000E-01
                rcs:    0.0000      0.0000    
            lambdas:    1.0000      1.0000    
-------------------------------------------------------------------------------
L=0  Nkbl=1  erefs: 0.17977+309
L=1  Nkbl=1  erefs: 0.17977+309
L=2  Nkbl=1  erefs: 0.17977+309
===============================================================================
</basis_specs>

atom: Called for H                     (Z =   1)

read_vps: Pseudopotential generation method:
read_vps: ATM4.2.7  Troullier-Martins                       
Valence charge for ps generation:    1.00000

xc_check: Exchange-correlation functional:
xc_check: GGA Perdew, Burke & Ernzerhof 1996
V l=0 = -2*Zval/r beyond r=  0.0098
V l=1 = -2*Zval/r beyond r=  0.5817
V l=2 = -2*Zval/r beyond r=  1.9372
All V_l potentials equal beyond r=  1.9372
This should be close to max(r_c) in ps generation
All pots = -2*Zval/r beyond r=  1.9372

VLOCAL1: 99.0% of the norm of Vloc inside     11.567 Ry
VLOCAL1: 99.9% of the norm of Vloc inside     26.362 Ry
atom: Maximum radius for 4*pi*r*r*local-pseudopot. charge    2.25106
atom: Maximum radius for r*vlocal+2*Zval:    1.91306
GHOST: No ghost state for L =  0
GHOST: No ghost state for L =  1
GHOST: No ghost state for L =  2

KBgen: Kleinman-Bylander projectors: 
   l= 0   rc=  2.036604   el= -0.477180   Ekb= -6.081590   kbcos= -0.277285
   l= 1   rc=  2.195416   el=  0.001076   Ekb= -0.926943   kbcos= -0.034643
   l= 2   rc=  2.251056   el=  0.002010   Ekb= -0.130941   kbcos= -0.009788

KBgen: Total number of Kleinman-Bylander projectors:    9
atom: -------------------------------------------------------------------------

atom: SANKEY-TYPE ORBITALS:
atom: Selected multiple-zeta basis: split     

SPLIT: Orbitals with angular momentum L= 0

SPLIT: Basis orbitals for state 1s

SPLIT: PAO cut-off radius determined from an
SPLIT: energy shift=  0.002000 Ry

   izeta = 1
                 lambda =    1.000000
                     rc =    6.518340
                 energy =   -0.475305
                kinetic =    0.912139
    potential(screened) =   -1.387444
       potential(ionic) =   -1.907295

   izeta = 2
                 rmatch =    2.141150
              splitnorm =    0.620000
                 energy =    0.566467
                kinetic =    3.772856
    potential(screened) =   -3.206389
       potential(ionic) =   -3.759093

POLgen: Perturbative polarization orbital with L=  1

POLgen: Polarization orbital for state 1s

   izeta = 1
                     rc =    6.518340
                 energy =    0.533861
                kinetic =    1.121086
    potential(screened) =   -0.587225
       potential(ionic) =   -1.053027
atom: Total number of Sankey-type orbitals:  5

atm_pop: Valence configuration (for local Pseudopot. screening):
 1s( 1.00)                                                            
Vna: chval, zval:    1.00000   1.00000

Vna:  Cut-off radius for the neutral-atom potential:   6.518340

atom: _________________________________________________________________________

<basis_specs>
===============================================================================
N                    Z=   7    Mass=  14.010        Charge= 0.17977+309
Lmxo=1 Lmxkb= 3    BasisType=split      Semic=F
L=0  Nsemic=0  Cnfigmx=2
          i=1  nzeta=2  polorb=0  (2s)
            splnorm:   0.28000    
               vcte:    0.0000    
               rinn:    0.0000    
               qcoe:    0.0000    
               qyuk:    0.0000    
               qwid:   0.10000E-01
                rcs:    0.0000      0.0000    
            lambdas:    1.0000      1.0000    
L=1  Nsemic=0  Cnfigmx=2
          i=1  nzeta=2  polorb=1  (2p)
            splnorm:   0.28000    
               vcte:    0.0000    
               rinn:    0.0000    
               qcoe:    0.0000    
               qyuk:    0.0000    
               qwid:   0.10000E-01
                rcs:    0.0000      0.0000    
            lambdas:    1.0000      1.0000    
-------------------------------------------------------------------------------
L=0  Nkbl=1  erefs: 0.17977+309
L=1  Nkbl=1  erefs: 0.17977+309
L=2  Nkbl=1  erefs: 0.17977+309
L=3  Nkbl=1  erefs: 0.17977+309
===============================================================================
</basis_specs>

atom: Called for N                     (Z =   7)

read_vps: Pseudopotential generation method:
read_vps: ATM4.2.7  Troullier-Martins                       
Valence charge for ps generation:    5.00000

xc_check: Exchange-correlation functional:
xc_check: GGA Perdew, Burke & Ernzerhof 1996
V l=0 = -2*Zval/r beyond r=  1.2889
V l=1 = -2*Zval/r beyond r=  1.2889
V l=2 = -2*Zval/r beyond r=  3.4178
V l=3 = -2*Zval/r beyond r=  2.4084
All V_l potentials equal beyond r=  3.3753
This should be close to max(r_c) in ps generation
All pots = -2*Zval/r beyond r=  3.4178

VLOCAL1: 99.0% of the norm of Vloc inside      3.810 Ry
VLOCAL1: 99.9% of the norm of Vloc inside      8.683 Ry
atom: Maximum radius for 4*pi*r*r*local-pseudopot. charge    4.02088
atom: Maximum radius for r*vlocal+2*Zval:    3.54838
GHOST: No ghost state for L =  0
GHOST: No ghost state for L =  1
GHOST: No ghost state for L =  2
GHOST: No ghost state for L =  3

KBgen: Kleinman-Bylander projectors: 
   l= 0   rc=  3.417763   el= -1.365098   Ekb= -4.433130   kbcos= -0.707855
   l= 1   rc=  3.375302   el= -0.521201   Ekb=-13.264039   kbcos= -0.535594
   l= 2   rc=  3.872880   el=  0.001991   Ekb= -0.641094   kbcos= -0.062456
   l= 3   rc=  3.970931   el=  0.003093   Ekb= -0.474517   kbcos= -0.018236

KBgen: Total number of Kleinman-Bylander projectors:   16
atom: -------------------------------------------------------------------------

atom: SANKEY-TYPE ORBITALS:
atom: Selected multiple-zeta basis: split     

SPLIT: Orbitals with angular momentum L= 0

SPLIT: Basis orbitals for state 2s

SPLIT: PAO cut-off radius determined from an
SPLIT: energy shift=  0.002000 Ry

   izeta = 1
                 lambda =    1.000000
                     rc =    4.730425
                 energy =   -1.363399
                kinetic =    1.245246
    potential(screened) =   -2.608645
       potential(ionic) =   -8.121105

   izeta = 2
                 rmatch =    2.531849
              splitnorm =    0.280000
                 energy =   -0.959908
                kinetic =    2.409435
    potential(screened) =   -3.369343
       potential(ionic) =   -9.427975

SPLIT: Orbitals with angular momentum L= 1

SPLIT: Basis orbitals for state 2p

SPLIT: PAO cut-off radius determined from an
SPLIT: energy shift=  0.002000 Ry

   izeta = 1
                 lambda =    1.000000
                     rc =    5.924108
                 energy =   -0.519262
                kinetic =    3.672940
    potential(screened) =   -4.192202
       potential(ionic) =   -9.518354

   izeta = 2
                 rmatch =    2.531849
              splitnorm =    0.280000
                 energy =   -0.104258
                kinetic =    6.807538
    potential(screened) =   -6.911796
       potential(ionic) =  -13.149920

POLgen: Perturbative polarization orbital with L=  2

POLgen: Polarization orbital for state 2p

   izeta = 1
                     rc =    5.924108
                 energy =    1.427508
                kinetic =    2.872379
    potential(screened) =   -1.444871
       potential(ionic) =   -5.563644
atom: Total number of Sankey-type orbitals: 13

atm_pop: Valence configuration (for local Pseudopot. screening):
 2s( 2.00)                                                            
 2p( 3.00)                                                            
Vna: chval, zval:    5.00000   5.00000

Vna:  Cut-off radius for the neutral-atom potential:   5.924108

atom: _________________________________________________________________________

<basis_specs>
===============================================================================
Si                   Z=  14    Mass=  28.090        Charge= 0.17977+309
Lmxo=1 Lmxkb= 3    BasisType=split      Semic=F
L=0  Nsemic=0  Cnfigmx=3
          i=1  nzeta=2  polorb=0  (3s)
            splnorm:   0.28000    
               vcte:    0.0000    
               rinn:    0.0000    
               qcoe:    0.0000    
               qyuk:    0.0000    
               qwid:   0.10000E-01
                rcs:    0.0000      0.0000    
            lambdas:    1.0000      1.0000    
L=1  Nsemic=0  Cnfigmx=3
          i=1  nzeta=2  polorb=1  (3p)
            splnorm:   0.28000    
               vcte:    0.0000    
               rinn:    0.0000    
               qcoe:    0.0000    
               qyuk:    0.0000    
               qwid:   0.10000E-01
                rcs:    0.0000      0.0000    
            lambdas:    1.0000      1.0000    
-------------------------------------------------------------------------------
L=0  Nkbl=1  erefs: 0.17977+309
L=1  Nkbl=1  erefs: 0.17977+309
L=2  Nkbl=1  erefs: 0.17977+309
L=3  Nkbl=1  erefs: 0.17977+309
===============================================================================
</basis_specs>

atom: Called for Si                    (Z =  14)

read_vps: Pseudopotential generation method:
read_vps: ATM4.2.7  Troullier-Martins                       
Valence charge for ps generation:    4.00000

xc_check: Exchange-correlation functional:
xc_check: GGA Perdew, Burke & Ernzerhof 1996
V l=0 = -2*Zval/r beyond r=  2.7826
V l=1 = -2*Zval/r beyond r=  2.7826
V l=2 = -2*Zval/r beyond r=  2.9253
V l=3 = -2*Zval/r beyond r=  2.7826
All V_l potentials equal beyond r=  2.8530
This should be close to max(r_c) in ps generation
All pots = -2*Zval/r beyond r=  2.9253

VLOCAL1: 99.0% of the norm of Vloc inside      5.333 Ry
VLOCAL1: 99.9% of the norm of Vloc inside     12.154 Ry
atom: Maximum radius for 4*pi*r*r*local-pseudopot. charge    3.39869
atom: Maximum radius for r*vlocal+2*Zval:    2.96205
GHOST: No ghost state for L =  0
GHOST: No ghost state for L =  1
GHOST: No ghost state for L =  2
GHOST: No ghost state for L =  3

KBgen: Kleinman-Bylander projectors: 
   l= 0   rc=  3.075247   el= -0.794092   Ekb=  5.879390   kbcos=  0.167461
   l= 1   rc=  3.153101   el= -0.300068   Ekb=  2.642817   kbcos=  0.058301
   l= 2   rc=  3.273594   el=  0.001958   Ekb= -1.185135   kbcos= -0.104411
   l= 3   rc=  3.232927   el=  0.003046   Ekb= -0.497174   kbcos= -0.015889

KBgen: Total number of Kleinman-Bylander projectors:   16
atom: -------------------------------------------------------------------------

atom: SANKEY-TYPE ORBITALS:
atom: Selected multiple-zeta basis: split     

SPLIT: Orbitals with angular momentum L= 0

SPLIT: Basis orbitals for state 3s

SPLIT: PAO cut-off radius determined from an
SPLIT: energy shift=  0.002000 Ry

   izeta = 1
                 lambda =    1.000000
                     rc =    6.429618
                 energy =   -0.792283
                kinetic =    0.525293
    potential(screened) =   -1.317576
       potential(ionic) =   -3.744923

   izeta = 2
                 rmatch =    3.998416
              splitnorm =    0.280000
                 energy =   -0.583081
                kinetic =    1.069570
    potential(screened) =   -1.652651
       potential(ionic) =   -4.235185

SPLIT: Orbitals with angular momentum L= 1

SPLIT: Basis orbitals for state 3p

SPLIT: PAO cut-off radius determined from an
SPLIT: energy shift=  0.002000 Ry

   izeta = 1
                 lambda =    1.000000
                     rc =    8.464845
                 energy =   -0.298236
                kinetic =    0.785360
    potential(screened) =   -1.083596
       potential(ionic) =   -3.273779

   izeta = 2
                 rmatch =    4.587816
              splitnorm =    0.280000
                 energy =   -0.131871
                kinetic =    1.403687
    potential(screened) =   -1.535557
       potential(ionic) =   -4.015310

POLgen: Perturbative polarization orbital with L=  2

POLgen: Polarization orbital for state 3p

   izeta = 1
                     rc =    8.464845
                 energy =    0.321949
                kinetic =    1.055677
    potential(screened) =   -0.733728
       potential(ionic) =   -2.672950
atom: Total number of Sankey-type orbitals: 13

atm_pop: Valence configuration (for local Pseudopot. screening):
 3s( 2.00)                                                            
 3p( 2.00)                                                            
Vna: chval, zval:    4.00000   4.00000

Vna:  Cut-off radius for the neutral-atom potential:   8.464845

atom: _________________________________________________________________________

<basis_specs>
===============================================================================
O                    Z=   8    Mass=  16.000        Charge= 0.17977+309
Lmxo=1 Lmxkb= 3    BasisType=split      Semic=F
L=0  Nsemic=0  Cnfigmx=2
          i=1  nzeta=2  polorb=0  (2s)
            splnorm:   0.28000    
               vcte:    0.0000    
               rinn:    0.0000    
               qcoe:    0.0000    
               qyuk:    0.0000    
               qwid:   0.10000E-01
                rcs:    0.0000      0.0000    
            lambdas:    1.0000      1.0000    
L=1  Nsemic=0  Cnfigmx=2
          i=1  nzeta=2  polorb=1  (2p)
            splnorm:   0.28000    
               vcte:    0.0000    
               rinn:    0.0000    
               qcoe:    0.0000    
               qyuk:    0.0000    
               qwid:   0.10000E-01
                rcs:    0.0000      0.0000    
            lambdas:    1.0000      1.0000    
-------------------------------------------------------------------------------
L=0  Nkbl=1  erefs: 0.17977+309
L=1  Nkbl=1  erefs: 0.17977+309
L=2  Nkbl=1  erefs: 0.17977+309
L=3  Nkbl=1  erefs: 0.17977+309
===============================================================================
</basis_specs>

atom: Called for O                     (Z =   8)

read_vps: Pseudopotential generation method:
read_vps: ATM4.2.7  Troullier-Martins                       
Valence charge for ps generation:    6.00000

xc_check: Exchange-correlation functional:
xc_check: GGA Perdew, Burke & Ernzerhof 1996
V l=0 = -2*Zval/r beyond r=  1.1000
V l=1 = -2*Zval/r beyond r=  1.1000
V l=2 = -2*Zval/r beyond r=  2.2154
V l=3 = -2*Zval/r beyond r=  1.1000
All V_l potentials equal beyond r=  2.2154
This should be close to max(r_c) in ps generation
All pots = -2*Zval/r beyond r=  2.2154

VLOCAL1: 99.0% of the norm of Vloc inside      8.845 Ry
VLOCAL1: 99.9% of the norm of Vloc inside     20.157 Ry
atom: Maximum radius for 4*pi*r*r*local-pseudopot. charge    2.67231
atom: Maximum radius for r*vlocal+2*Zval:    2.32897
GHOST: No ghost state for L =  0
GHOST: No ghost state for L =  1
GHOST: No ghost state for L =  2
GHOST: No ghost state for L =  3

KBgen: Kleinman-Bylander projectors: 
   l= 0   rc=  2.243238   el= -1.759686   Ekb=**********   kbcos= -0.171774
   l= 1   rc=  2.328968   el= -0.663873   Ekb=-14.506792   kbcos= -0.519897
   l= 2   rc=  2.573941   el=  0.002031   Ekb= -1.137373   kbcos= -0.019581
   l= 3   rc=  2.606321   el=  0.003153   Ekb= -1.013546   kbcos= -0.003122

KBgen: Total number of Kleinman-Bylander projectors:   16
atom: -------------------------------------------------------------------------

atom: SANKEY-TYPE ORBITALS:
atom: Selected multiple-zeta basis: split     

SPLIT: Orbitals with angular momentum L= 0

SPLIT: Basis orbitals for state 2s

SPLIT: PAO cut-off radius determined from an
SPLIT: energy shift=  0.002000 Ry

   izeta = 1
                 lambda =    1.000000
                     rc =    4.243912
                 energy =   -1.758270
                kinetic =    3.286084
    potential(screened) =   -5.044353
       potential(ionic) =  -12.921184

   izeta = 2
                 rmatch =    2.187845
              splitnorm =    0.280000
                 energy =   -0.885018
                kinetic =    8.134434
    potential(screened) =   -9.019452
       potential(ionic) =  -17.710645

SPLIT: Orbitals with angular momentum L= 1

SPLIT: Basis orbitals for state 2p

SPLIT: PAO cut-off radius determined from an
SPLIT: energy shift=  0.002000 Ry

   izeta = 1
                 lambda =    1.000000
                     rc =    5.314825
                 energy =   -0.661986
                kinetic =    4.917472
    potential(screened) =   -5.579458
       potential(ionic) =  -13.236259

   izeta = 2
                 rmatch =    2.160663
              splitnorm =    0.280000
                 energy =   -0.068760
                kinetic =    9.183374
    potential(screened) =   -9.252135
       potential(ionic) =  -18.274251

POLgen: Perturbative polarization orbital with L=  2

POLgen: Polarization orbital for state 2p

   izeta = 1
                     rc =    5.314825
                 energy =    1.970580
                kinetic =    3.886128
    potential(screened) =   -1.915547
       potential(ionic) =   -7.749584
atom: Total number of Sankey-type orbitals: 13

atm_pop: Valence configuration (for local Pseudopot. screening):
 2s( 2.00)                                                            
 2p( 4.00)                                                            
Vna: chval, zval:    6.00000   6.00000

Vna:  Cut-off radius for the neutral-atom potential:   5.314825

atom: _________________________________________________________________________

prinput: Basis input ----------------------------------------------------------

PAO.BasisType split     

%block ChemicalSpeciesLabel
    1    1 H                       # Species index, atomic number, species label
    2    7 N                       # Species index, atomic number, species label
    3   14 Si                      # Species index, atomic number, species label
    4    8 O                       # Species index, atomic number, species label
%endblock ChemicalSpeciesLabel

%block PAO.Basis                 # Define Basis set
H                     1                    # Species label, number of l-shells
 n=1   0   2 P   1                   # n, l, Nzeta, Polarization, NzetaPol
   6.518      2.141   
   1.000      1.000   
N                     2                    # Species label, number of l-shells
 n=2   0   2                         # n, l, Nzeta 
   4.730      2.532   
   1.000      1.000   
 n=2   1   2 P   1                   # n, l, Nzeta, Polarization, NzetaPol
   5.924      2.532   
   1.000      1.000   
Si                    2                    # Species label, number of l-shells
 n=3   0   2                         # n, l, Nzeta 
   6.430      3.998   
   1.000      1.000   
 n=3   1   2 P   1                   # n, l, Nzeta, Polarization, NzetaPol
   8.465      4.588   
   1.000      1.000   
O                     2                    # Species label, number of l-shells
 n=2   0   2                         # n, l, Nzeta 
   4.244      2.188   
   1.000      1.000   
 n=2   1   2 P   1                   # n, l, Nzeta, Polarization, NzetaPol
   5.315      2.161   
   1.000      1.000   
%endblock PAO.Basis

prinput: ----------------------------------------------------------------------

Dumping basis to NetCDF file H.ion.nc
Dumping basis to NetCDF file N.ion.nc
Dumping basis to NetCDF file Si.ion.nc
Dumping basis to NetCDF file O.ion.nc
coor:   Atomic-coordinates input format  =     Cartesian coordinates
coor:                                          (in Angstroms)

siesta: Atomic coordinates (Bohr) and species
siesta:      4.87999 -10.91663   0.00000  1        1
siesta:      3.12704  -9.95765   0.00000  2        2
siesta:      0.11930 -11.53056   0.00000  3        3
siesta:      0.22530 -14.35597   0.00000  1        4
siesta:     -2.60195  -9.79371   0.00000  2        5
siesta:     -1.55784  -6.54009   0.00000  3        6
siesta:     -2.21206  -2.39996   0.00000  3        7
siesta:     -5.11537  -0.78899   0.00000  2        8
siesta:     -5.20538   1.19971   0.00000  1        9
siesta:     -6.87421  -1.71959   0.00000  1       10
siesta:      0.41213  -0.44256   0.00000  2       11
siesta:      3.53758  -1.31745   0.00000  3       12
siesta:      5.34415   0.87204   0.00000  1       13
siesta:      5.00428  -4.26138   0.00000  2       14
siesta:      2.63035  -6.52849   0.00000  3       15
siesta:      3.62305   6.98529   0.00000  2       16
siesta:      1.11468   9.27225   0.00000  3       17
siesta:      2.32410  11.84477   0.00000  1       18
siesta:     -2.82681   8.00513   0.00000  3       19
siesta:     -6.66213  10.14074   0.00000  3       20
siesta:     -6.37067  12.33326   1.77692  1       21
siesta:     -8.52528   8.20959   0.96870  1       22
siesta:     -7.44866  11.04068  -2.58265  1       23
siesta:     -2.70115   3.70793   0.00000  3       24
siesta:     -4.66467   1.45338   0.00000  4       25
siesta:      0.43011   2.50989   0.00000  2       26
siesta:      0.39606   0.50216   0.00000  1       27
siesta:      3.49827   3.63819   0.00000  3       28
siesta:      5.75653   1.72121   0.00000  4       29
siesta:      5.51284   7.63821   0.00000  1       30

siesta: Automatic unit cell vectors (Ang):
siesta:   15.808622    0.000000    0.000000
siesta:    0.000000   23.124242    0.000000
siesta:    0.000000    0.000000   10.224979

siesta: System type = molecule  

initatomlists: Number of atoms, orbitals, and projectors:     30   302   403

siesta: ******************** Simulation parameters ****************************
siesta:
siesta: The following are some of the parameters of the simulation.
siesta: A complete list of the parameters used, including default values,
siesta: can be found in file out.fdf
siesta:
redata: Spin configuration                          = spin-orbit
redata: Number of spin components                   = 8
redata: Time-Reversal Symmetry                      = F
redata: Spin spiral                                 = F
############################################################
This spin-orbit implementation uses a local approximation.
From 4.2 and onwards the full non-local approximation is implemented
You are strongly advised to use >=4.2 versions!
############################################################
redata: Long output                                 =   F
redata: Number of Atomic Species                    =        4
redata: Charge density info will appear in .RHO file
redata: Write Mulliken Pop.                         = Atomic and Orbital charges
redata: Matel table size (NRTAB)                    =     1024
redata: Mesh Cutoff                                 =   340.0000 Ry
redata: Net charge of the system                    =     0.0000 |e|
redata: Min. number of SCF Iter                     =        1
redata: Max. number of SCF Iter                     =      200
redata: SCF mix quantity                            = Hamiltonian
redata: Mix DM or H after convergence               =   F
redata: Recompute H after scf cycle                 =   F
redata: Mix DM in first SCF step                    =   T
redata: Write Pulay info on disk                    =   F
redata: New DM Occupancy tolerance                  = 0.000000000001
redata: No kicks to SCF
redata: DM Mixing Weight for Kicks                  =     0.5000
redata: Require Harris convergence for SCF          =   F
redata: Harris energy tolerance for SCF             =     0.000100 eV
redata: Require DM convergence for SCF              =   T
redata: DM tolerance for SCF                        =     0.000008
redata: Require EDM convergence for SCF             =   F
redata: EDM tolerance for SCF                       =     0.001000 eV
redata: Require H convergence for SCF               =   T
redata: Hamiltonian tolerance for SCF               =     0.000001 eV
redata: Require (free) Energy convergence for SCF   =   F
redata: (free) Energy tolerance for SCF             =     0.000100 eV
redata: Using Saved Data (generic)                  =   F
redata: Use continuation files for DM               =   F
redata: Neglect nonoverlap interactions             =   F
redata: Method of Calculation                       = Diagonalization
redata: Electronic Temperature                      =   299.9978 K
redata: Fix the spin of the system                  =   F
redata: Dynamics option                             = Single-point calculation
mix.SCF: Pulay mixing                            = Pulay
mix.SCF:    Variant                              = stable
mix.SCF:    History steps                        = 6
mix.SCF:    Linear mixing weight                 =     0.250000
mix.SCF:    Mixing weight                        =     0.250000
mix.SCF:    SVD condition                        = 0.1000E-07
mix.SCF:    Restart steps                        = 24
mix.SCF:    Restart save steps                   = 3
mix.SCF: Spin-component mixing                   all
redata: Save all siesta data in one NC              =   F
redata: ***********************************************************************

%block SCF.Mixers
  Pulay
%endblock SCF.Mixers

%block SCF.Mixer.Pulay
  # Mixing method
  method pulay
  variant stable

  # Mixing options
  weight 0.2500
  weight.linear 0.2500
  history 6
  restart 24
  restart.save 3
%endblock SCF.Mixer.Pulay

DM_history_depth set to one: no extrapolation allowed by default for geometry relaxation
Size of DM history Fstack: 1
Total number of electrons:    98.000000
Total ionic charge:    98.000000

* ProcessorY, Blocksize:    2  24


* Orbital distribution balance (max,min):    62    48


Time-reversal symmetry not used.

siesta: k-grid: Number of k-points =     1
siesta: k-grid: Cutoff (effective) =     5.112 Ang
siesta: k-grid: Supercell and displacements
siesta: k-grid:    1   0   0      0.000
siesta: k-grid:    0   1   0      0.000
siesta: k-grid:    0   0   1      0.000

diag: Algorithm                                     = ELPA-1stage
diag: Parallel over k                               =   F
diag: Use parallel 2D distribution                  =   T
diag: Parallel block-size                           = 24
diag: Parallel distribution                         =     2 x     3
diag: Used triangular part                          = Lower
diag: Absolute tolerance                            =  0.100E-15
diag: Orthogonalization factor                      =  0.100E-05
diag: Memory factor                                 =  1.0000


ts: **************************************************************
ts: Save H and S matrices                           =    F
ts: Save DM and EDM matrices                        =    F
ts: Only save the overlap matrix S                  =    F
ts: **************************************************************

************************ Begin: TS CHECKS AND WARNINGS ************************
************************ End: TS CHECKS AND WARNINGS **************************


                     ====================================
                        Single-point calculation
                     ====================================

outcoor: Atomic coordinates (Ang):                          
    2.58237765   -5.77683044    0.00000000   1       1  H
    1.65475924   -5.26936198    0.00000000   2       2  N
    0.06312884   -6.10170459    0.00000000   3       3  Si
    0.11922324   -7.59684950    0.00000000   1       4  H
   -1.37689205   -5.18260374    0.00000000   2       5  N
   -0.82437190   -3.46086644    0.00000000   3       6  Si
   -1.17057148   -1.27000210    0.00000000   3       7  Si
   -2.70693368   -0.41751578    0.00000000   2       8  N
   -2.75456966    0.63485862    0.00000000   1       9  H
   -3.63767564   -0.90996786    0.00000000   1      10  H
    0.21809179   -0.23419397    0.00000000   2      11  N
    1.87200410   -0.69716230    0.00000000   3      12  Si
    2.82800113    0.46146477    0.00000000   1      13  H
    2.64815008   -2.25502447    0.00000000   2      14  N
    1.39192138   -3.45472722    0.00000000   3      15  Si
    1.91723306    3.69645735    0.00000000   2      16  N
    0.58986154    4.90666165    0.00000000   3      17  Si
    1.22986281    6.26797989    0.00000000   1      18  H
   -1.49588440    4.23613030    0.00000000   3      19  Si
   -3.52544700    5.36624649    0.00000000   3      20  Si
   -3.37121123    6.52647670    0.94030528   1      21  H
   -4.51138172    4.34432587    0.51261370   1      22  H
   -3.94166196    5.84247234   -1.36667834   1      23  H
   -1.42938898    1.96215368    0.00000000   3      24  Si
   -2.46843771    0.76909418    0.00000000   4      25  O
    0.22760260    1.32817849    0.00000000   2      26  N
    0.20958523    0.26573366    0.00000000   1      27  H
    1.85120567    1.92524870    0.00000000   3      28  Si
    3.04622184    0.91082350    0.00000000   4      29  O
    2.91727043    4.04196445    0.00000000   1      30  H

outcell: Unit cell vectors (Ang):
       15.808622    0.000000    0.000000
        0.000000   23.124242    0.000000
        0.000000    0.000000   10.224979

outcell: Cell vector modules (Ang)   :   15.808622   23.124242   10.224979
outcell: Cell angles (23,13,12) (deg):     90.0000     90.0000     90.0000
outcell: Cell volume (Ang**3)        :   3737.8679
siesta: WARNING: Atoms     9    25 too close: rij =    0.316055 Ang
siesta: WARNING: Atoms    11    27 too close: rij =    0.500000 Ang
siesta: WARNING: Atoms    13    29 too close: rij =    0.499543 Ang
<dSpData1D:S at geom step 0
  <sparsity:sparsity for geom step 0
    nrows_g=302 nrows=62 sparsity=.1734 nnzs=15819, refcount: 8>
  <dData1D:(new from dSpData1D) n=15819, refcount: 1>
refcount: 1>
new_DM -- step:     1
Initializing Density Matrix...
DM filled with atomic data:
<dSpData2D:DM initialized from atoms
  <sparsity:sparsity for geom step 0
    nrows_g=302 nrows=62 sparsity=.1734 nnzs=15819, refcount: 9>
  <dData2D:DM n=15819 m=8, refcount: 1>
refcount: 1>
     spin moment: S , {S} =   56.00000   0.00000   0.00000  56.00000
No. of atoms with KB's overlaping orbs in proc 0. Max # of overlaps:      25     230

Initializing spin-orbit part of the Hamiltonian
  Adding spin-orbit effects for H 
  Adding spin-orbit effects for N 
  Adding spin-orbit effects for Si
  Adding spin-orbit effects for O 


New grid distribution:   1
           1       1:   90    1:   68    1:   20
           2       1:   90    1:   68   21:   40
           3       1:   90    1:   68   41:   60
           4       1:   90   69:  135    1:   20
           5       1:   90   69:  135   21:   40
           6       1:   90   69:  135   41:   60

InitMesh: MESH =   180 x   270 x   120 =     5832000
InitMesh: (bp) =    90 x   135 x    60 =      729000
InitMesh: Mesh cutoff (required, used) =   340.000   358.310 Ry
ExtMesh (bp) on 0 =   194 x   176 x   128 =     4370432
New grid distribution:   2
           1       1:   11   36:  135    1:   60
           2      14:   90    1:   13    1:   60
           3       1:   13    1:   35    1:   60
           4      12:   90   36:  119    1:   60
           5      14:   90   14:   35    1:   60
           6      12:   90  120:  135    1:   60
New grid distribution:   3
           1      24:   90    1:   25    1:   60
           2       1:   18   50:  135    1:   60
           3       1:   23    1:   49    1:   60
           4      19:   90   50:  111    1:   60
           5      19:   90  112:  135    1:   60
           6      24:   90   26:   49    1:   60
Setting up quadratic distribution...
ExtMesh (bp) on 0 =   115 x   208 x   168 =     4018560
PhiOnMesh: Number of (b)points on node 0 =                66000
PhiOnMesh: nlist on node 0 =              1544602

stepf: Fermi-Dirac step function

siesta: Program's energy decomposition (eV):
siesta: Ebs     =      -738.497075
siesta: Eions   =      3553.971015
siesta: Ena     =       661.323186
siesta: Ekin    =      3435.259789
siesta: Enl     =     -3300.614359
siesta: Eso     =        -0.004978
siesta: Edftu   =         0.000000
siesta: DEna    =       115.353320
siesta: DUscf   =        87.757706
siesta: DUext   =         0.000000
siesta: Exc     =     -1211.955317
siesta: eta*DQ  =         0.000000
siesta: Emadel  =         0.000000
siesta: Emeta   =         0.000000
siesta: Emolmec =         0.000000
siesta: Ekinion =         0.000000
siesta: Eharris =     -3623.034615
siesta: Etot    =     -3766.851667
siesta: FreeEng =     -3766.855203

        iscf     Eharris(eV)        E_KS(eV)     FreeEng(eV)     dDmax    Ef(eV) dHmax(eV)
   scf:    1    -3623.034615    -3766.851667    -3766.855203  0.915643 -4.841256 26.997249
     spin moment: S , {S} =    5.97458  -0.00002  -0.00002   5.97458
timer: Routine,Calls,Time,% = IterSCF        1       5.689  20.85
   scf:    2    -3795.339784    -3795.759657    -3795.766664  0.485592 -3.832056  9.782966
     spin moment: S , {S} =    5.99868  -0.00005   0.00000   5.99868
   scf:    3    -3762.911797    -3795.691371    -3795.700565  1.083777 -3.743486 17.546690
     spin moment: S , {S} =    5.91397  -0.00004   0.00001   5.91397
   scf:    4    -3812.092502    -3808.022288    -3808.023608  1.138008 -3.545643  8.768842
     spin moment: S , {S} =    4.00004  -0.00002   0.00002   4.00004
   scf:    5    -3810.350356    -3809.878284    -3809.879986  0.269284 -3.238482  5.281690
     spin moment: S , {S} =    3.99770  -0.00003  -0.00001   3.99770
   scf:    6    -3811.396092    -3811.180026    -3811.189644  0.437165 -3.111712  4.873050
     spin moment: S , {S} =    2.08328   0.00008   0.00001   2.08328
   scf:    7    -3811.764994    -3811.521670    -3811.537630  0.049976 -3.068045  2.835062
     spin moment: S , {S} =    2.17462   0.00010  -0.00000   2.17462
   scf:    8    -3812.183579    -3811.930308    -3811.939269  0.095557 -2.970758  2.002855
     spin moment: S , {S} =    2.00007   0.00023   0.00013   2.00007
   scf:    9    -3812.209855    -3812.080619    -3812.090535  0.062637 -2.928117  0.999231
     spin moment: S , {S} =    1.99524   0.00043   0.00035   1.99524
   scf:   10    -3812.177619    -3812.130436    -3812.146926  0.031405 -2.900673  0.801761
     spin moment: S , {S} =    1.88162   0.00066   0.00071   1.88162
   scf:   11    -3812.169221    -3812.152651    -3812.166742  0.020905 -2.914334  0.290875
     spin moment: S , {S} =    1.89090   0.00076   0.00076   1.89090
   scf:   12    -3812.168225    -3812.160357    -3812.175725  0.013527 -2.913344  0.173998
     spin moment: S , {S} =    1.86961   0.00093   0.00097   1.86961
   scf:   13    -3812.177019    -3812.168350    -3812.183101  0.013358 -2.912384  0.158479
     spin moment: S , {S} =    1.88005   0.00117   0.00124   1.88005
   scf:   14    -3812.185853    -3812.176521    -3812.189563  0.016061 -2.911428  0.099175
     spin moment: S , {S} =    1.90745   0.00149   0.00157   1.90745
   scf:   15    -3812.185111    -3812.180456    -3812.192808  0.012002 -2.908071  0.066096
     spin moment: S , {S} =    1.92388   0.00184   0.00195   1.92388
   scf:   16    -3812.187125    -3812.183457    -3812.194668  0.011329 -2.905593  0.035583
     spin moment: S , {S} =    1.94643   0.00224   0.00235   1.94642
   scf:   17    -3812.184280    -3812.183857    -3812.194913  0.002422 -2.905773  0.029200
     spin moment: S , {S} =    1.94934   0.00237   0.00248   1.94933
   scf:   18    -3812.185689    -3812.184693    -3812.195331  0.005095 -2.905278  0.016024
     spin moment: S , {S} =    1.95770   0.00272   0.00280   1.95770
   scf:   19    -3812.185832    -3812.185163    -3812.195558  0.005187 -2.905307  0.006747
     spin moment: S , {S} =    1.96206   0.00340   0.00341   1.96205
   scf:   20    -3812.185273    -3812.185207    -3812.195577  0.001207 -2.905471  0.004810
     spin moment: S , {S} =    1.96229   0.00364   0.00363   1.96228
   scf:   21    -3812.185328    -3812.185258    -3812.195587  0.000659 -2.905641  0.003722
     spin moment: S , {S} =    1.96269   0.00386   0.00382   1.96269
   scf:   22    -3812.185426    -3812.185313    -3812.195600  0.001797 -2.906005  0.002967
     spin moment: S , {S} =    1.96221   0.00447   0.00434   1.96220
   scf:   23    -3812.185402    -3812.185339    -3812.195605  0.001342 -2.906141  0.003084
     spin moment: S , {S} =    1.96133   0.00493   0.00472   1.96132
   scf:   24    -3812.185367    -3812.185348    -3812.195607  0.000460 -2.906178  0.003124
     spin moment: S , {S} =    1.96095   0.00509   0.00486   1.96094
mix: Pulay -- resetting history
   scf:   25    -3812.185378    -3812.185356    -3812.195610  0.000645 -2.906191  0.003188
     spin moment: S , {S} =    1.96027   0.00531   0.00504   1.96026
   scf:   26    -3812.185303    -3812.185338    -3812.195603  0.001721 -2.906169  0.003016
     spin moment: S , {S} =    1.96209   0.00471   0.00454   1.96208
   scf:   27    -3812.185309    -3812.185331    -3812.195600  0.001404 -2.906179  0.002869
     spin moment: S , {S} =    1.96357   0.00421   0.00413   1.96357
   scf:   28    -3812.185379    -3812.185331    -3812.195602  0.005272 -2.906170  0.002335
     spin moment: S , {S} =    1.96795   0.00234   0.00257   1.96795
   scf:   29    -3812.185350    -3812.185329    -3812.195600  0.000904 -2.906187  0.002426
     spin moment: S , {S} =    1.96738   0.00266   0.00284   1.96737
   scf:   30    -3812.185530    -3812.185374    -3812.195617  0.006531 -2.906218  0.002143
     spin moment: S , {S} =    1.97119   0.00028   0.00087   1.97119
   scf:   31    -3812.185419    -3812.185397    -3812.195621  0.002572 -2.906260  0.002323
     spin moment: S , {S} =    1.97205  -0.00069   0.00007   1.97205
   scf:   32    -3812.185397    -3812.185397    -3812.195621  0.000021 -2.906260  0.002320
     spin moment: S , {S} =    1.97206  -0.00070   0.00006   1.97206
   scf:   33    -3812.185481    -3812.185378    -3812.195572  0.004716 -2.906318  0.003648
     spin moment: S , {S} =    1.97218  -0.00246  -0.00141   1.97218
   scf:   34    -3812.185778    -3812.185326    -3812.195615  0.009042 -2.906119  0.001976
     spin moment: S , {S} =    1.96993   0.00080   0.00131   1.96993
   scf:   35    -3812.185783    -3812.185340    -3812.195565  0.009521 -2.906197  0.002212
     spin moment: S , {S} =    1.97171  -0.00283  -0.00169   1.97171
   scf:   36    -3812.185260    -3812.185281    -3812.195620  0.003333 -2.905951  0.001418
     spin moment: S , {S} =    1.97043  -0.00183  -0.00085   1.97043
   scf:   37    -3812.185317    -3812.185206    -3812.195530  0.005067 -2.905996  0.001061
     spin moment: S , {S} =    1.96970  -0.00395  -0.00258   1.96969
   scf:   38    -3812.185180    -3812.185194    -3812.195534  0.000133 -2.905985  0.000945
     spin moment: S , {S} =    1.96956  -0.00400  -0.00262   1.96955
   scf:   39    -3812.185167    -3812.185163    -3812.195502  0.001376 -2.906029  0.000941
     spin moment: S , {S} =    1.96915  -0.00477  -0.00323   1.96914
   scf:   40    -3812.185121    -3812.185142    -3812.195501  0.000084 -2.906022  0.000794
     spin moment: S , {S} =    1.96898  -0.00508  -0.00346   1.96897
   scf:   41    -3812.185111    -3812.185076    -3812.195434  0.002921 -2.906070  0.000647
     spin moment: S , {S} =    1.96775  -0.00699  -0.00497   1.96773
   scf:   42    -3812.185066    -3812.185076    -3812.195448  0.000661 -2.906041  0.000558
     spin moment: S , {S} =    1.96793  -0.00679  -0.00480   1.96792
   scf:   43    -3812.185084    -3812.185023    -3812.195379  0.003149 -2.906098  0.000600
     spin moment: S , {S} =    1.96628  -0.00896  -0.00652   1.96625
   scf:   44    -3812.184989    -3812.184992    -3812.195357  0.001076 -2.906094  0.000417
     spin moment: S , {S} =    1.96542  -0.01012  -0.00742   1.96538
   scf:   45    -3812.184979    -3812.184982    -3812.195351  0.000250 -2.906079  0.000280
     spin moment: S , {S} =    1.96518  -0.01061  -0.00780   1.96514
   scf:   46    -3812.184988    -3812.184979    -3812.195340  0.000563 -2.906084  0.000246
     spin moment: S , {S} =    1.96479  -0.01119  -0.00826   1.96474
   scf:   47    -3812.184976    -3812.184975    -3812.195336  0.000187 -2.906073  0.000217
     spin moment: S , {S} =    1.96464  -0.01153  -0.00852   1.96459
   scf:   48    -3812.184976    -3812.184976    -3812.195336  0.000040 -2.906062  0.000118
     spin moment: S , {S} =    1.96463  -0.01177  -0.00871   1.96458
mix: Pulay -- resetting history
   scf:   49    -3812.184980    -3812.184979    -3812.195338  0.000134 -2.906057  0.000105
     spin moment: S , {S} =    1.96475  -0.01177  -0.00871   1.96470
   scf:   50    -3812.184982    -3812.184981    -3812.195340  0.000086 -2.906052  0.000102
     spin moment: S , {S} =    1.96483  -0.01188  -0.00880   1.96477
   scf:   51    -3812.184982    -3812.184981    -3812.195340  0.000014 -2.906052  0.000102
     spin moment: S , {S} =    1.96484  -0.01198  -0.00888   1.96478
   scf:   52    -3812.184981    -3812.184982    -3812.195340  0.000038 -2.906052  0.000101
     spin moment: S , {S} =    1.96487  -0.01230  -0.00913   1.96481
   scf:   53    -3812.184981    -3812.184981    -3812.195340  0.000024 -2.906053  0.000101
     spin moment: S , {S} =    1.96487  -0.01250  -0.00929   1.96481
   scf:   54    -3812.184981    -3812.184981    -3812.195340  0.000008 -2.906053  0.000101
     spin moment: S , {S} =    1.96488  -0.01254  -0.00932   1.96481
   scf:   55    -3812.184982    -3812.184982    -3812.195341  0.000012 -2.906053  0.000101
     spin moment: S , {S} =    1.96488  -0.01264  -0.00939   1.96482
   scf:   56    -3812.184981    -3812.184981    -3812.195340  0.000039 -2.906053  0.000101
     spin moment: S , {S} =    1.96486  -0.01241  -0.00921   1.96480
   scf:   57    -3812.184981    -3812.184981    -3812.195340  0.000008 -2.906053  0.000101
     spin moment: S , {S} =    1.96486  -0.01237  -0.00918   1.96480
   scf:   58    -3812.184980    -3812.184980    -3812.195339  0.000077 -2.906055  0.000103
     spin moment: S , {S} =    1.96481  -0.01205  -0.00892   1.96476
   scf:   59    -3812.184979    -3812.184979    -3812.195338  0.000094 -2.906056  0.000104
     spin moment: S , {S} =    1.96476  -0.01168  -0.00862   1.96471
   scf:   60    -3812.184978    -3812.184978    -3812.195336  0.000118 -2.906058  0.000106
     spin moment: S , {S} =    1.96469  -0.01129  -0.00831   1.96464
   scf:   61    -3812.184978    -3812.184977    -3812.195334  0.000114 -2.906058  0.000107
     spin moment: S , {S} =    1.96463  -0.01097  -0.00804   1.96459
   scf:   62    -3812.184977    -3812.184977    -3812.195334  0.000008 -2.906058  0.000107
     spin moment: S , {S} =    1.96463  -0.01102  -0.00807   1.96458
   scf:   63    -3812.184977    -3812.184977    -3812.195334  0.000033 -2.906058  0.000107
     spin moment: S , {S} =    1.96461  -0.01105  -0.00809   1.96456
   scf:   64    -3812.184977    -3812.184977    -3812.195334  0.000023 -2.906058  0.000107
     spin moment: S , {S} =    1.96461  -0.01124  -0.00823   1.96456
   scf:   65    -3812.184976    -3812.184976    -3812.195334  0.000011 -2.906058  0.000107
     spin moment: S , {S} =    1.96460  -0.01127  -0.00826   1.96455
   scf:   66    -3812.184976    -3812.184976    -3812.195334  0.000008 -2.906058  0.000107
     spin moment: S , {S} =    1.96461  -0.01131  -0.00828   1.96456
   scf:   67    -3812.184976    -3812.184976    -3812.195334  0.000003 -2.906058  0.000107
     spin moment: S , {S} =    1.96461  -0.01132  -0.00829   1.96456
   scf:   68    -3812.184976    -3812.184976    -3812.195334  0.000005 -2.906058  0.000107
     spin moment: S , {S} =    1.96461  -0.01136  -0.00833   1.96456
   scf:   69    -3812.184976    -3812.184976    -3812.195334  0.000001 -2.906058  0.000107
     spin moment: S , {S} =    1.96461  -0.01137  -0.00833   1.96456
   scf:   70    -3812.184976    -3812.184976    -3812.195334  0.000003 -2.906058  0.000107
     spin moment: S , {S} =    1.96461  -0.01136  -0.00833   1.96456
   scf:   71    -3812.184976    -3812.184976    -3812.195334  0.000007 -2.906058  0.000107
     spin moment: S , {S} =    1.96461  -0.01130  -0.00828   1.96456
   scf:   72    -3812.184977    -3812.184977    -3812.195334  0.000004 -2.906058  0.000107
     spin moment: S , {S} =    1.96461  -0.01127  -0.00826   1.96456
mix: Pulay -- resetting history
   scf:   73    -3812.184977    -3812.184977    -3812.195334  0.000003 -2.906058  0.000107
     spin moment: S , {S} =    1.96461  -0.01129  -0.00827   1.96456
   scf:   74    -3812.184977    -3812.184977    -3812.195334  0.000006 -2.906058  0.000107
     spin moment: S , {S} =    1.96461  -0.01130  -0.00828   1.96456
   scf:   75    -3812.184977    -3812.184977    -3812.195334  0.000003 -2.906058  0.000107
     spin moment: S , {S} =    1.96461  -0.01128  -0.00827   1.96456
   scf:   76    -3812.184977    -3812.184977    -3812.195334  0.000017 -2.906057  0.000107
     spin moment: S , {S} =    1.96461  -0.01114  -0.00816   1.96456
   scf:   77    -3812.184977    -3812.184977    -3812.195334  0.000097 -2.906057  0.000107
     spin moment: S , {S} =    1.96463  -0.01033  -0.00754   1.96459
   scf:   78    -3812.184977    -3812.184977    -3812.195334  0.000227 -2.906057  0.000108
     spin moment: S , {S} =    1.96463  -0.00843  -0.00609   1.96460
   scf:   79    -3812.184977    -3812.184977    -3812.195334  0.000040 -2.906057  0.000108
     spin moment: S , {S} =    1.96463  -0.00810  -0.00583   1.96460
   scf:   80    -3812.184977    -3812.184977    -3812.195334  0.000046 -2.906057  0.000108
     spin moment: S , {S} =    1.96463  -0.00772  -0.00554   1.96461
   scf:   81    -3812.184977    -3812.184977    -3812.195334  0.000017 -2.906057  0.000108
     spin moment: S , {S} =    1.96464  -0.00764  -0.00548   1.96462
   scf:   82    -3812.184977    -3812.184977    -3812.195335  0.000015 -2.906057  0.000108
     spin moment: S , {S} =    1.96465  -0.00772  -0.00553   1.96463
   scf:   83    -3812.184977    -3812.184977    -3812.195335  0.000006 -2.906057  0.000108
     spin moment: S , {S} =    1.96466  -0.00770  -0.00552   1.96463
   scf:   84    -3812.184977    -3812.184977    -3812.195335  0.000006 -2.906057  0.000108
     spin moment: S , {S} =    1.96465  -0.00775  -0.00555   1.96463
   scf:   85    -3812.184977    -3812.184977    -3812.195335  0.000030 -2.906057  0.000108
     spin moment: S , {S} =    1.96466  -0.00800  -0.00574   1.96463
   scf:   86    -3812.184977    -3812.184977    -3812.195335  0.000002 -2.906057  0.000108
     spin moment: S , {S} =    1.96466  -0.00802  -0.00575   1.96463
   scf:   87    -3812.184977    -3812.184977    -3812.195335  0.000007 -2.906057  0.000108
     spin moment: S , {S} =    1.96466  -0.00807  -0.00579   1.96463
   scf:   88    -3812.184977    -3812.184977    -3812.195335  0.000016 -2.906057  0.000108
     spin moment: S , {S} =    1.96466  -0.00794  -0.00569   1.96463
   scf:   89    -3812.184977    -3812.184977    -3812.195335  0.000010 -2.906057  0.000108
     spin moment: S , {S} =    1.96466  -0.00785  -0.00563   1.96463
   scf:   90    -3812.184977    -3812.184977    -3812.195335  0.000011 -2.906057  0.000108
     spin moment: S , {S} =    1.96466  -0.00795  -0.00570   1.96463
   scf:   91    -3812.184977    -3812.184977    -3812.195335  0.000023 -2.906057  0.000108
     spin moment: S , {S} =    1.96466  -0.00814  -0.00584   1.96463
   scf:   92    -3812.184977    -3812.184977    -3812.195335  0.000121 -2.906057  0.000108
     spin moment: S , {S} =    1.96465  -0.00713  -0.00509   1.96463
   scf:   93    -3812.184977    -3812.184977    -3812.195335  0.000012 -2.906057  0.000108
     spin moment: S , {S} =    1.96465  -0.00703  -0.00501   1.96464
   scf:   94    -3812.184977    -3812.184977    -3812.195335  0.000013 -2.906057  0.000108
     spin moment: S , {S} =    1.96465  -0.00713  -0.00509   1.96463
   scf:   95    -3812.184977    -3812.184977    -3812.195335  0.000048 -2.906057  0.000108
     spin moment: S , {S} =    1.96465  -0.00753  -0.00539   1.96463
   scf:   96    -3812.184977    -3812.184977    -3812.195335  0.000005 -2.906057  0.000108
     spin moment: S , {S} =    1.96465  -0.00757  -0.00542   1.96463
mix: Pulay -- resetting history
   scf:   97    -3812.184977    -3812.184977    -3812.195335  0.000013 -2.906057  0.000108
     spin moment: S , {S} =    1.96465  -0.00747  -0.00534   1.96463
   scf:   98    -3812.184977    -3812.184977    -3812.195335  0.000117 -2.906057  0.000108
     spin moment: S , {S} =    1.96465  -0.00844  -0.00607   1.96462
   scf:   99    -3812.184977    -3812.184977    -3812.195335  0.000063 -2.906057  0.000108
     spin moment: S , {S} =    1.96465  -0.00792  -0.00568   1.96463
   scf:  100    -3812.184977    -3812.184977    -3812.195334  0.000179 -2.906057  0.000108
     spin moment: S , {S} =    1.96465  -0.00642  -0.00456   1.96463
   scf:  101    -3812.184977    -3812.184977    -3812.195335  0.000022 -2.906057  0.000108
     spin moment: S , {S} =    1.96465  -0.00661  -0.00470   1.96463
   scf:  102    -3812.184977    -3812.184977    -3812.195335  0.000007 -2.906057  0.000108
     spin moment: S , {S} =    1.96465  -0.00655  -0.00466   1.96463
   scf:  103    -3812.184977    -3812.184977    -3812.195335  0.000077 -2.906057  0.000108
     spin moment: S , {S} =    1.96465  -0.00591  -0.00418   1.96464
   scf:  104    -3812.184977    -3812.184977    -3812.195335  0.000016 -2.906057  0.000108
     spin moment: S , {S} =    1.96465  -0.00604  -0.00429   1.96464
   scf:  105    -3812.184977    -3812.184977    -3812.195334  0.000060 -2.906057  0.000108
     spin moment: S , {S} =    1.96465  -0.00655  -0.00466   1.96463
   scf:  106    -3812.184977    -3812.184977    -3812.195334  0.000020 -2.906057  0.000108
     spin moment: S , {S} =    1.96465  -0.00671  -0.00478   1.96463
   scf:  107    -3812.184977    -3812.184977    -3812.195334  0.000086 -2.906057  0.000108
     spin moment: S , {S} =    1.96465  -0.00600  -0.00425   1.96463
   scf:  108    -3812.184977    -3812.184977    -3812.195334  0.000051 -2.906057  0.000108
     spin moment: S , {S} =    1.96465  -0.00642  -0.00457   1.96463
   scf:  109    -3812.184977    -3812.184977    -3812.195334  0.000112 -2.906057  0.000108
     spin moment: S , {S} =    1.96465  -0.00549  -0.00387   1.96464
   scf:  110    -3812.184978    -3812.184977    -3812.195334  0.000286 -2.906057  0.000108
     spin moment: S , {S} =    1.96465  -0.00787  -0.00564   1.96462
   scf:  111    -3812.184997    -3812.184978    -3812.195334  0.001259 -2.906059  0.000108
     spin moment: S , {S} =    1.96466   0.00263   0.00215   1.96465
   scf:  112    -3812.184981    -3812.184977    -3812.195335  0.000537 -2.906058  0.000108
     spin moment: S , {S} =    1.96465  -0.00184  -0.00117   1.96465
   scf:  113    -3812.184997    -3812.184980    -3812.195335  0.001190 -2.906063  0.000108
     spin moment: S , {S} =    1.96468   0.00809   0.00619   1.96465
   scf:  114    -3812.184986    -3812.184981    -3812.195335  0.000575 -2.906068  0.000111
     spin moment: S , {S} =    1.96468   0.01288   0.00976   1.96462
   scf:  115    -3812.185068    -3812.184993    -3812.195335  0.002355 -2.906101  0.000440
     spin moment: S , {S} =    1.96479   0.03253   0.02433   1.96437
   scf:  116    -3812.185010    -3812.184983    -3812.195335  0.001727 -2.906073  0.000161
     spin moment: S , {S} =    1.96471   0.01812   0.01366   1.96458
   scf:  117    -3812.185111    -3812.184977    -3812.195335  0.003414 -2.906055  0.000108
     spin moment: S , {S} =    1.96465  -0.01037  -0.00747   1.96461
   scf:  118    -3812.186088    -3812.185031    -3812.195334  0.009249 -2.906211  0.001522
     spin moment: S , {S} =    1.96511   0.06681   0.04976   1.96335
   scf:  119    -3812.190368    -3812.185484    -3812.195308  0.019384 -2.907670  0.015603
     spin moment: S , {S} =    1.96924   0.22824   0.16960   1.94860
   scf:  120    -3812.186020    -3812.185211    -3812.195329  0.009508 -2.906756  0.006873
     spin moment: S , {S} =    1.96671   0.14914   0.11079   1.95792
mix: Pulay -- resetting history
   scf:  121    -3812.186195    -3812.185023    -3812.195335  0.010687 -2.906187  0.001293
     spin moment: S , {S} =    1.96505   0.06005   0.04466   1.96362
   scf:  122    -3812.185031    -3812.185026    -3812.195334  0.000299 -2.906197  0.001389
     spin moment: S , {S} =    1.96505   0.06254   0.04648   1.96350
   scf:  123    -3812.185026    -3812.185026    -3812.195334  0.000006 -2.906197  0.001387
     spin moment: S , {S} =    1.96505   0.06249   0.04644   1.96351
   scf:  124    -3812.185026    -3812.185026    -3812.195334  0.000022 -2.906196  0.001383
     spin moment: S , {S} =    1.96506   0.06236   0.04635   1.96352
   scf:  125    -3812.185028    -3812.185027    -3812.195334  0.000060 -2.906199  0.001409
     spin moment: S , {S} =    1.96507   0.06286   0.04672   1.96351
   scf:  126    -3812.185041    -3812.185005    -3812.195335  0.002173 -2.906135  0.000785
     spin moment: S , {S} =    1.96492   0.04472   0.03339   1.96413
   scf:  127    -3812.185034    -3812.184986    -3812.195334  0.002334 -2.906082  0.000254
     spin moment: S , {S} =    1.96471   0.02524   0.01898   1.96446
   scf:  128    -3812.184988    -3812.184981    -3812.195334  0.000993 -2.906068  0.000115
     spin moment: S , {S} =    1.96465   0.01696   0.01286   1.96454
   scf:  129    -3812.184979    -3812.184980    -3812.195334  0.000145 -2.906066  0.000111
     spin moment: S , {S} =    1.96464   0.01575   0.01197   1.96454
   scf:  130    -3812.184983    -3812.184981    -3812.195334  0.000158 -2.906069  0.000124
     spin moment: S , {S} =    1.96466   0.01707   0.01291   1.96455
   scf:  131    -3812.184982    -3812.184981    -3812.195334  0.000339 -2.906068  0.000110
     spin moment: S , {S} =    1.96468   0.01424   0.01078   1.96460
   scf:  132    -3812.184980    -3812.184979    -3812.195334  0.000429 -2.906063  0.000109
     spin moment: S , {S} =    1.96466   0.01066   0.00811   1.96461
   scf:  133    -3812.184981    -3812.184979    -3812.195334  0.000517 -2.906060  0.000108
     spin moment: S , {S} =    1.96466   0.00635   0.00492   1.96464
   scf:  134    -3812.184989    -3812.184981    -3812.195335  0.000782 -2.906065  0.000109
     spin moment: S , {S} =    1.96470   0.01287   0.00975   1.96463
   scf:  135    -3812.184984    -3812.184978    -3812.195335  0.000785 -2.906059  0.000109
     spin moment: S , {S} =    1.96467   0.00632   0.00489   1.96465
   scf:  136    -3812.184979    -3812.184978    -3812.195335  0.000372 -2.906058  0.000108
     spin moment: S , {S} =    1.96467   0.00321   0.00257   1.96466
   scf:  137    -3812.184978    -3812.184978    -3812.195335  0.000015 -2.906057  0.000108
     spin moment: S , {S} =    1.96467   0.00308   0.00249   1.96466
   scf:  138    -3812.184977    -3812.184977    -3812.195335  0.000054 -2.906057  0.000109
     spin moment: S , {S} =    1.96466   0.00264   0.00215   1.96465
   scf:  139    -3812.184978    -3812.184978    -3812.195335  0.000055 -2.906057  0.000108
     spin moment: S , {S} =    1.96466   0.00218   0.00182   1.96466
   scf:  140    -3812.184977    -3812.184978    -3812.195335  0.000006 -2.906057  0.000108
     spin moment: S , {S} =    1.96466   0.00223   0.00185   1.96466
   scf:  141    -3812.184977    -3812.184977    -3812.195335  0.000092 -2.906056  0.000109
     spin moment: S , {S} =    1.96465   0.00299   0.00242   1.96465
   scf:  142    -3812.184978    -3812.184977    -3812.195335  0.000163 -2.906056  0.000109
     spin moment: S , {S} =    1.96466   0.00163   0.00141   1.96465
   scf:  143    -3812.184978    -3812.184977    -3812.195335  0.000189 -2.906057  0.000109
     spin moment: S , {S} =    1.96466   0.00005   0.00023   1.96466
   scf:  144    -3812.184979    -3812.184977    -3812.195335  0.000274 -2.906057  0.000108
     spin moment: S , {S} =    1.96466  -0.00223  -0.00147   1.96465
mix: Pulay -- resetting history
   scf:  145    -3812.184978    -3812.184977    -3812.195335  0.000203 -2.906057  0.000108
     spin moment: S , {S} =    1.96466  -0.00393  -0.00274   1.96465
   scf:  146    -3812.184979    -3812.184977    -3812.195335  0.000424 -2.906057  0.000108
     spin moment: S , {S} =    1.96466  -0.00039  -0.00010   1.96466
   scf:  147    -3812.184978    -3812.184978    -3812.195335  0.000010 -2.906057  0.000108
     spin moment: S , {S} =    1.96465  -0.00047  -0.00016   1.96465
   scf:  148    -3812.184978    -3812.184978    -3812.195335  0.000027 -2.906057  0.000108
     spin moment: S , {S} =    1.96465  -0.00070  -0.00033   1.96465
   scf:  149    -3812.184978    -3812.184978    -3812.195335  0.000138 -2.906057  0.000108
     spin moment: S , {S} =    1.96465   0.00045   0.00052   1.96465
   scf:  150    -3812.184978    -3812.184978    -3812.195334  0.000102 -2.906057  0.000109
     spin moment: S , {S} =    1.96465   0.00130   0.00116   1.96465
   scf:  151    -3812.185002    -3812.184978    -3812.195335  0.001371 -2.906058  0.000109
     spin moment: S , {S} =    1.96467  -0.01014  -0.00731   1.96463
   scf:  152    -3812.184979    -3812.184978    -3812.195335  0.000391 -2.906058  0.000109
     spin moment: S , {S} =    1.96466  -0.00688  -0.00489   1.96464
   scf:  153    -3812.184982    -3812.184977    -3812.195335  0.000693 -2.906056  0.000109
     spin moment: S , {S} =    1.96466  -0.00109  -0.00061   1.96466
   scf:  154    -3812.184978    -3812.184977    -3812.195335  0.000203 -2.906056  0.000109
     spin moment: S , {S} =    1.96466   0.00060   0.00065   1.96465
   scf:  155    -3812.184985    -3812.184978    -3812.195335  0.000816 -2.906058  0.000109
     spin moment: S , {S} =    1.96466   0.00741   0.00569   1.96464
   scf:  156    -3812.184978    -3812.184977    -3812.195335  0.000260 -2.906057  0.000109
     spin moment: S , {S} =    1.96466   0.00524   0.00409   1.96464
   scf:  157    -3812.184977    -3812.184977    -3812.195335  0.000007 -2.906057  0.000109
     spin moment: S , {S} =    1.96466   0.00524   0.00409   1.96464
   scf:  158    -3812.184978    -3812.184978    -3812.195334  0.000200 -2.906057  0.000109
     spin moment: S , {S} =    1.96465   0.00357   0.00285   1.96465
   scf:  159    -3812.184982    -3812.184978    -3812.195335  0.000629 -2.906058  0.000109
     spin moment: S , {S} =    1.96466   0.00882   0.00674   1.96463
   scf:  160    -3812.184991    -3812.184977    -3812.195335  0.001094 -2.906056  0.000109
     spin moment: S , {S} =    1.96466  -0.00032  -0.00003   1.96466
   scf:  161    -3812.184978    -3812.184977    -3812.195335  0.000172 -2.906056  0.000109
     spin moment: S , {S} =    1.96466  -0.00175  -0.00110   1.96466
   scf:  162    -3812.184979    -3812.184977    -3812.195335  0.000267 -2.906056  0.000109
     spin moment: S , {S} =    1.96466  -0.00398  -0.00275   1.96466
   scf:  163    -3812.184987    -3812.184977    -3812.195335  0.000948 -2.906056  0.000109
     spin moment: S , {S} =    1.96466   0.00393   0.00310   1.96465
   scf:  164    -3812.184978    -3812.184977    -3812.195335  0.000053 -2.906056  0.000109
     spin moment: S , {S} =    1.96466   0.00437   0.00343   1.96465
   scf:  165    -3812.184987    -3812.184978    -3812.195335  0.000855 -2.906059  0.000109
     spin moment: S , {S} =    1.96466   0.01150   0.00873   1.96461
   scf:  166    -3812.185001    -3812.184977    -3812.195335  0.001410 -2.906056  0.000109
     spin moment: S , {S} =    1.96466  -0.00027  -0.00000   1.96466
   scf:  167    -3812.185019    -3812.184980    -3812.195335  0.001707 -2.906064  0.000109
     spin moment: S , {S} =    1.96468  -0.01451  -0.01056   1.96460
   scf:  168    -3812.184990    -3812.184982    -3812.195335  0.000678 -2.906069  0.000143
     spin moment: S , {S} =    1.96471  -0.02017  -0.01477   1.96455
mix: Pulay -- resetting history
   scf:  169    -3812.184992    -3812.184984    -3812.195335  0.000650 -2.906075  0.000207
     spin moment: S , {S} =    1.96473  -0.02559  -0.01880   1.96448
   scf:  170    -3812.185053    -3812.184978    -3812.195335  0.002668 -2.906057  0.000109
     spin moment: S , {S} =    1.96466  -0.00332  -0.00226   1.96466
   scf:  171    -3812.184979    -3812.184977    -3812.195335  0.000527 -2.906056  0.000109
     spin moment: S , {S} =    1.96466   0.00108   0.00100   1.96466
   scf:  172    -3812.184993    -3812.184977    -3812.195335  0.001193 -2.906056  0.000109
     spin moment: S , {S} =    1.96466   0.01103   0.00837   1.96461
   scf:  173    -3812.184978    -3812.184977    -3812.195335  0.000017 -2.906057  0.000109
     spin moment: S , {S} =    1.96466   0.01090   0.00828   1.96461
   scf:  174    -3812.184981    -3812.184977    -3812.195335  0.000598 -2.906055  0.000109
     spin moment: S , {S} =    1.96466   0.00591   0.00457   1.96465
   scf:  175    -3812.185021    -3812.184979    -3812.195335  0.001814 -2.906060  0.000109
     spin moment: S , {S} =    1.96468  -0.00923  -0.00666   1.96464
   scf:  176    -3812.184978    -3812.184978    -3812.195335  0.000249 -2.906059  0.000109
     spin moment: S , {S} =    1.96467  -0.00715  -0.00511   1.96465
   scf:  177    -3812.184995    -3812.184981    -3812.195335  0.000970 -2.906065  0.000109
     spin moment: S , {S} =    1.96469  -0.01525  -0.01111   1.96460
   scf:  178    -3812.184978    -3812.184978    -3812.195334  0.000391 -2.906059  0.000110
     spin moment: S , {S} =    1.96466  -0.01852  -0.01353   1.96453
   scf:  179    -3812.184988    -3812.184979    -3812.195335  0.000930 -2.906060  0.000109
     spin moment: S , {S} =    1.96466  -0.01075  -0.00777   1.96462
   scf:  180    -3812.185017    -3812.184980    -3812.195334  0.001768 -2.906065  0.000109
     spin moment: S , {S} =    1.96468   0.00400   0.00317   1.96467
   scf:  181    -3812.185063    -3812.184980    -3812.195335  0.002610 -2.906065  0.000109
     spin moment: S , {S} =    1.96468  -0.01779  -0.01298   1.96455
   scf:  182    -3812.184983    -3812.184980    -3812.195335  0.000617 -2.906063  0.000108
     spin moment: S , {S} =    1.96470  -0.01264  -0.00919   1.96463
   scf:  183    -3812.185042    -3812.184987    -3812.195335  0.001964 -2.906084  0.000290
     spin moment: S , {S} =    1.96475  -0.02902  -0.02132   1.96442
   scf:  184    -3812.185057    -3812.184980    -3812.195335  0.002714 -2.906063  0.000109
     spin moment: S , {S} =    1.96469  -0.00638  -0.00455   1.96467
   scf:  185    -3812.184979    -3812.184979    -3812.195335  0.000085 -2.906060  0.000110
     spin moment: S , {S} =    1.96467  -0.00567  -0.00401   1.96466
   scf:  186    -3812.184977    -3812.184978    -3812.195335  0.000077 -2.906058  0.000109
     spin moment: S , {S} =    1.96466  -0.00630  -0.00448   1.96465
   scf:  187    -3812.184977    -3812.184977    -3812.195335  0.000391 -2.906056  0.000109
     spin moment: S , {S} =    1.96465  -0.00304  -0.00205   1.96465
   scf:  188    -3812.184978    -3812.184977    -3812.195334  0.000291 -2.906056  0.000109
     spin moment: S , {S} =    1.96465  -0.00547  -0.00384   1.96463
   scf:  189    -3812.184977    -3812.184977    -3812.195335  0.000024 -2.906056  0.000109
     spin moment: S , {S} =    1.96465  -0.00567  -0.00400   1.96464
   scf:  190    -3812.184977    -3812.184977    -3812.195335  0.000066 -2.906056  0.000109
     spin moment: S , {S} =    1.96466  -0.00622  -0.00441   1.96464
   scf:  191    -3812.184979    -3812.184977    -3812.195335  0.000304 -2.906056  0.000109
     spin moment: S , {S} =    1.96466  -0.00876  -0.00629   1.96463
   scf:  192    -3812.185001    -3812.184978    -3812.195334  0.001394 -2.906059  0.000109
     spin moment: S , {S} =    1.96466   0.00288   0.00233   1.96466
mix: Pulay -- resetting history
   scf:  193    -3812.184979    -3812.184978    -3812.195335  0.000419 -2.906057  0.000109
     spin moment: S , {S} =    1.96466  -0.00062  -0.00026   1.96466
   scf:  194    -3812.184979    -3812.184978    -3812.195335  0.000282 -2.906057  0.000109
     spin moment: S , {S} =    1.96466   0.00174   0.00148   1.96466
   scf:  195    -3812.184978    -3812.184978    -3812.195335  0.000124 -2.906057  0.000109
     spin moment: S , {S} =    1.96466   0.00071   0.00072   1.96466
   scf:  196    -3812.184979    -3812.184978    -3812.195334  0.000291 -2.906058  0.000109
     spin moment: S , {S} =    1.96466  -0.00172  -0.00107   1.96465
   scf:  197    -3812.184984    -3812.184978    -3812.195334  0.000687 -2.906059  0.000109
     spin moment: S , {S} =    1.96466   0.00401   0.00318   1.96465
   scf:  198    -3812.184997    -3812.184978    -3812.195334  0.001271 -2.906058  0.000109
     spin moment: S , {S} =    1.96466  -0.00660  -0.00468   1.96464
   scf:  199    -3812.184978    -3812.184977    -3812.195334  0.000302 -2.906057  0.000109
     spin moment: S , {S} =    1.96465  -0.00408  -0.00281   1.96465
   scf:  200    -3812.184977    -3812.184977    -3812.195335  0.000032 -2.906057  0.000109
     spin moment: S , {S} =    1.96465  -0.00381  -0.00261   1.96465
SCF_NOT_CONV: SCF did not converge in maximum number of steps.
Geom step, scf iteration, dmax:    0   200    0.000008

Using DM_out to compute the final energy and forces
No. of atoms with KB's overlaping orbs in proc 0. Max # of overlaps:      25     230

siesta: E_KS(eV) =            -3812.1850

siesta: E_KS - E_eggbox =     -3812.1850
     spin moment: S , {S} =    1.96465  -0.00381  -0.00261   1.96465

siesta: Atomic forces (eV/Ang):
     1   -0.003910    0.015563   -0.000350
     2   -0.062122   -0.136681   -0.000190
     3   -0.020850   -0.085418    0.003887
     4   -0.002220   -0.097754   -0.001591
     5    0.070236   -0.169192    0.009098
     6   -0.550602    0.317848   -0.017089
     7    1.009452   -4.451904    0.024907
     8   -0.683081  -53.734832   -0.032198
     9 -680.334296 -285.784288    0.046178
    10   -0.784120    0.825213    0.004249
    11    0.174026 -204.325175    0.011869
    12   -3.005178   -9.537928    0.037558
    13  -78.897013 -166.076832    0.049432
    14   -0.172666   -0.604562   -0.021623
    15    0.030466   -0.036922    0.001188
    16    2.145161   -1.390057    0.072318
    17   -1.093816    0.855425    0.053377
    18    0.384866   -0.035323   -0.095962
    19    0.319769   -0.318680    0.030938
    20    0.441481    0.045607   -0.068456
    21   -0.177816    0.147417    0.106165
    22   -0.101270    0.021176    0.036724
    23   -0.180640   -0.023049   -0.049012
    24    5.811161    9.178863    0.090642
    25  676.917063  333.331313   -0.100399
    26    0.871519   34.499384   -0.061497
    27   -4.758834  169.663768   -0.007769
    28   -7.352697    5.147225   -0.116815
    29   95.292749  174.491000   -0.005722
    30    0.187941    0.586106    0.006104
----------------------------------------
   Tot    5.474761    2.317312    0.005962
----------------------------------------
   Max  680.334296
   Res  118.422747    sqrt( Sum f_i^2 / 3N )
----------------------------------------
   Max  680.334296    constrained

Stress tensor Voigt[x,y,z,yz,xz,xy] (kbar):     -104.50     -154.72       -0.24       -0.03        0.04      -60.98
(Free)E + p*V (eV/cell)    -3610.4212
Target enthalpy (eV/cell)    -3812.1953

mulliken: Atomic and Orbital Populations:

Species: H                   

Atom      Orb        Charge      Spin       Svec
----------------------------------------------------------------
    1  1 1s         0.51345   0.00018      0.000   0.000  -0.000
    1  2 1s         0.18710   0.00001     -0.000   0.000   0.000
    1  3 2Ppy       0.02819   0.00001      0.000   0.000   0.000
    1  4 2Ppz       0.03981   0.00013      0.000   0.000  -0.000
    1  5 2Ppx       0.02526   0.00003     -0.000  -0.000   0.000
    1     Total     0.79381   0.00027      0.000   0.000  -0.000

    4  1 1s         1.02082   0.00651      0.000   0.000  -0.007
    4  2 1s         0.09570   0.00042     -0.000  -0.000   0.000
    4  3 2Ppy       0.03969   0.00005      0.000   0.000  -0.000
    4  4 2Ppz       0.01912   0.00162     -0.000  -0.000   0.002
    4  5 2Ppx       0.01371   0.00004     -0.000   0.000   0.000
    4     Total     1.18904   0.00448      0.000   0.000  -0.004

    9  1 1s         0.11321   0.02357      0.000   0.000  -0.024
    9  2 1s         0.18791   0.00402     -0.000  -0.000   0.004
    9  3 2Ppy      -0.02993   0.01542      0.000   0.000  -0.015
    9  4 2Ppz      -0.07100   0.01384      0.000   0.000  -0.014
    9  5 2Ppx      -0.07337   0.00674     -0.000  -0.000   0.007
    9     Total     0.12682   0.04206      0.000   0.000  -0.042

   10  1 1s         0.48795   0.02509     -0.000  -0.000   0.025
   10  2 1s         0.18017   0.00037      0.000  -0.000   0.000
   10  3 2Ppy       0.03950   0.01221     -0.000  -0.000   0.012
   10  4 2Ppz       0.05673   0.00021      0.000   0.000  -0.000
   10  5 2Ppx       0.03611   0.00038     -0.000  -0.000   0.000
   10     Total     0.80047   0.03783     -0.000  -0.000   0.038

   13  1 1s         0.42375   0.00166      0.000  -0.000  -0.002
   13  2 1s         0.25694   0.00008     -0.000  -0.000  -0.000
   13  3 2Ppy       0.05630   0.00067      0.000   0.000  -0.001
   13  4 2Ppz       0.14264   0.00125      0.000   0.000  -0.001
   13  5 2Ppx       0.14562   0.00033      0.000   0.000  -0.000
   13     Total     1.02525   0.00399      0.000   0.000  -0.004

   18  1 1s         1.04305   0.00849     -0.000  -0.000   0.008
   18  2 1s         0.08689   0.00409      0.000  -0.000   0.004
   18  3 2Ppy       0.02679   0.00012     -0.000  -0.000   0.000
   18  4 2Ppz       0.02367   0.00833      0.000   0.000   0.008
   18  5 2Ppx       0.02025   0.00186     -0.000  -0.000   0.002
   18     Total     1.20064   0.02288     -0.000  -0.000   0.023

   21  1 1s         1.06718   0.00398     -0.000  -0.000  -0.004
   21  2 1s         0.08269   0.00008     -0.000   0.000   0.000
   21  3 2Ppy       0.02212   0.00012      0.000   0.000   0.000
   21  4 2Ppz       0.02050   0.00002     -0.000   0.000   0.000
   21  5 2Ppx       0.01362   0.00116      0.000   0.000   0.001
   21     Total     1.20610   0.00260     -0.000  -0.000  -0.003

   22  1 1s         1.07470   0.00237     -0.000  -0.000   0.002
   22  2 1s         0.08147   0.00061      0.000   0.000  -0.001
   22  3 2Ppy       0.02016   0.00134     -0.000  -0.000   0.001
   22  4 2Ppz       0.01790   0.00018      0.000   0.000   0.000
   22  5 2Ppx       0.01744   0.00023     -0.000  -0.000   0.000
   22     Total     1.21167   0.00351     -0.000  -0.000   0.004

   23  1 1s         1.06713   0.00352      0.000  -0.000  -0.004
   23  2 1s         0.08279   0.00006     -0.000  -0.000   0.000
   23  3 2Ppy       0.01667   0.00014     -0.000   0.000   0.000
   23  4 2Ppz       0.02385   0.00001      0.000  -0.000  -0.000
   23  5 2Ppx       0.01490   0.00090     -0.000  -0.000   0.001
   23     Total     1.20534   0.00242      0.000  -0.000  -0.002

   27  1 1s        -0.21645   0.00079      0.000   0.000   0.001
   27  2 1s         0.36644   0.00035      0.000  -0.000   0.000
   27  3 2Ppy       0.03869   0.00038      0.000   0.000  -0.000
   27  4 2Ppz       0.10001   0.00082      0.000   0.000  -0.001
   27  5 2Ppx       0.01165   0.00000     -0.000   0.000  -0.000
   27     Total     0.30035   0.00007      0.000   0.000  -0.000

   30  1 1s         0.53596   0.00135     -0.000   0.000  -0.001
   30  2 1s         0.17893   0.00015      0.000  -0.000  -0.000
   30  3 2Ppy       0.02974   0.00020     -0.000  -0.000  -0.000
   30  4 2Ppz       0.03972   0.00071     -0.000  -0.000   0.001
   30  5 2Ppx       0.02570   0.00025      0.000   0.000   0.000
   30     Total     0.81004   0.00074     -0.000   0.000  -0.001

----------------------------------------------------------------
Total               9.86953   0.00760     -0.000  -0.000   0.008


Species: N                   

Atom      Orb        Charge      Spin       Svec
----------------------------------------------------------------
    2  1 2s         1.38179   0.00132      0.000   0.000  -0.001
    2  2 2s         0.12534   0.00046     -0.000   0.000   0.000
    2  3 2py        1.06922   0.00257      0.000  -0.000  -0.003
    2  4 2pz        1.48904   0.00740      0.000   0.000  -0.007
    2  5 2px        1.01425   0.00164      0.000   0.000  -0.002
    2  6 2py        0.19651   0.00057      0.000   0.000   0.001
    2  7 2pz        0.01479   0.00106     -0.000  -0.000   0.001
    2  8 2px        0.21080   0.00040     -0.000  -0.000   0.000
    2  9 3Pdxy      0.00673   0.00003      0.000   0.000  -0.000
    2 10 3Pdyz      0.00563   0.00074     -0.000  -0.000   0.001
    2 11 3Pdz2      0.00154   0.00003     -0.000  -0.000   0.000
    2 12 3Pdxz      0.00302   0.00008     -0.000  -0.000   0.000
    2 13 3Pdx2-y2   0.00304   0.00003     -0.000  -0.000   0.000
    2     Total     5.52170   0.00958      0.000   0.000  -0.010

    5  1 2s         1.55851   0.00035      0.000   0.000  -0.000
    5  2 2s         0.08057   0.00003      0.000  -0.000   0.000
    5  3 2py        0.90484   0.00093      0.000   0.000  -0.001
    5  4 2pz        1.21694   0.01596      0.000   0.000  -0.016
    5  5 2px        1.13414   0.00219      0.000   0.000  -0.002
    5  6 2py        0.23122   0.00122     -0.000  -0.000   0.001
    5  7 2pz        0.05616   0.00125     -0.000  -0.000   0.001
    5  8 2px        0.14730   0.00030     -0.000  -0.000   0.000
    5  9 3Pdxy      0.00863   0.00004      0.000   0.000  -0.000
    5 10 3Pdyz      0.00632   0.00049     -0.000  -0.000   0.000
    5 11 3Pdz2      0.00182   0.00001      0.000  -0.000   0.000
    5 12 3Pdxz      0.01116   0.00008     -0.000  -0.000   0.000
    5 13 3Pdx2-y2   0.00921   0.00015     -0.000  -0.000   0.000
    5     Total     5.36683   0.01592      0.000   0.000  -0.016

    8  1 2s         1.11088   0.01850     -0.000  -0.000   0.019
    8  2 2s         0.24310   0.00497      0.000   0.000  -0.005
    8  3 2py        0.42487   0.05288     -0.000  -0.000   0.053
    8  4 2pz        1.68465   0.01425      0.000   0.000  -0.014
    8  5 2px        1.08691   0.00128      0.000   0.000  -0.001
    8  6 2py        0.37430   0.00356      0.000   0.000  -0.004
[...]
    7  3 3py        0.43571   0.01840     -0.000  -0.000   0.018
    7  4 3pz        0.63651   0.04939     -0.000  -0.000   0.049
    7  5 3px        0.16356   0.00375      0.000   0.000   0.004
    7  6 3py        0.31522   0.00629      0.000   0.000  -0.006
    7  7 3pz        0.20249   0.00499     -0.000  -0.000   0.005
    7  8 3px        0.35791   0.00125     -0.000  -0.000  -0.001
    7  9 3Pdxy      0.24895   0.00016     -0.000  -0.000  -0.000
    7 10 3Pdyz      0.11793   0.01211     -0.000  -0.000   0.012
    7 11 3Pdz2      0.01857   0.00028     -0.000  -0.000   0.000
    7 12 3Pdxz      0.11269   0.00246     -0.000  -0.000   0.002
    7 13 3Pdx2-y2   0.20445   0.02290     -0.000  -0.000   0.023
    7     Total     3.87983   0.11356     -0.001  -0.000   0.114

   12  1 3s         0.96928   0.00079      0.000   0.000  -0.001
   12  2 3s         0.30898   0.00003      0.000  -0.000  -0.000
   12  3 3py        0.32962   0.00095     -0.000  -0.000  -0.001
   12  4 3pz        0.27115   0.00253     -0.000  -0.000  -0.002
   12  5 3px        0.31259   0.00030      0.000   0.000  -0.000
   12  6 3py        0.40365   0.00172      0.000   0.000  -0.002
   12  7 3pz        0.19552   0.00066     -0.000  -0.000  -0.001
   12  8 3px        0.22655   0.00166      0.000   0.000  -0.002
   12  9 3Pdxy      0.17592   0.00505     -0.000  -0.000   0.005
   12 10 3Pdyz      0.10131   0.00360     -0.000  -0.000   0.004
   12 11 3Pdz2      0.06232   0.00017     -0.000  -0.000  -0.000
   12 12 3Pdxz      0.06457   0.00154     -0.000  -0.000   0.002
   12 13 3Pdx2-y2   0.22601   0.00084     -0.000  -0.000   0.001
   12     Total     3.64748   0.00239     -0.001  -0.000   0.002

   15  1 3s         0.68903   0.00491      0.000   0.000   0.005
   15  2 3s         0.35789   0.00036      0.000  -0.000   0.000
   15  3 3py       -0.00262   0.00214      0.000   0.000   0.002
   15  4 3pz        0.48904   0.04400      0.000   0.000   0.044
   15  5 3px        0.38746   0.00419      0.000   0.000   0.004
   15  6 3py        0.46081   0.00075      0.000  -0.000  -0.001
   15  7 3pz        0.19279   0.00237      0.000   0.000   0.002
   15  8 3px        0.34183   0.00224      0.000   0.000  -0.002
   15  9 3Pdxy      0.15534   0.00154     -0.000  -0.000   0.002
   15 10 3Pdyz      0.13209   0.00087      0.000   0.000   0.001
   15 11 3Pdz2      0.01912   0.00094      0.000  -0.000   0.001
   15 12 3Pdxz      0.12019   0.00839     -0.000  -0.000   0.008
   15 13 3Pdx2-y2   0.32129   0.00101      0.000   0.000  -0.001
   15     Total     3.66425   0.06571      0.000   0.000   0.066

   17  1 3s         0.73989   0.03915      0.000   0.000   0.039
   17  2 3s         0.34128   0.00109      0.000   0.000  -0.001
   17  3 3py        0.11789   0.01340      0.000   0.000   0.013
   17  4 3pz        0.77927   0.29526      0.005   0.004   0.295
   17  5 3px        0.37357   0.02457      0.000   0.000   0.025
   17  6 3py        0.41733   0.00012     -0.000  -0.000   0.000
   17  7 3pz        0.12752   0.02467      0.000   0.000   0.025
   17  8 3px        0.30612   0.00541      0.000   0.000   0.005
   17  9 3Pdxy      0.20954   0.05304     -0.000  -0.000   0.053
   17 10 3Pdyz      0.02785   0.00454      0.000   0.000   0.005
   17 11 3Pdz2      0.01565   0.00567     -0.000  -0.000   0.006
   17 12 3Pdxz      0.09605   0.00447     -0.000  -0.000   0.004
   17 13 3Pdx2-y2   0.11652   0.00496      0.000  -0.000   0.005
   17     Total     3.66847   0.47413      0.005   0.004   0.474

   19  1 3s         0.87768   0.03068     -0.000  -0.000   0.031
   19  2 3s         0.32019   0.01985      0.000  -0.000   0.020
   19  3 3py        0.42946   0.00684      0.000  -0.000   0.007
   19  4 3pz        0.64722   0.09676     -0.001  -0.001  -0.097
   19  5 3px        0.32956   0.00787     -0.000  -0.000  -0.008
   19  6 3py        0.31001   0.05469     -0.000  -0.000   0.055
   19  7 3pz        0.22571   0.00143     -0.000  -0.000  -0.001
   19  8 3px        0.35527   0.00159     -0.000  -0.000  -0.002
   19  9 3Pdxy      0.14121   0.01645     -0.000  -0.000   0.016
   19 10 3Pdyz      0.06182   0.03997     -0.000  -0.000   0.040
   19 11 3Pdz2      0.02006   0.01072     -0.000  -0.000   0.011
   19 12 3Pdxz      0.06176   0.02217      0.000   0.000   0.022
   19 13 3Pdx2-y2   0.13642   0.01159     -0.000  -0.000   0.012
   19     Total     3.91637   0.10535     -0.002  -0.002   0.105

   20  1 3s         0.54650   0.00628     -0.000  -0.000   0.006
   20  2 3s         0.43952   0.00271      0.000   0.000  -0.003
   20  3 3py        0.33382   0.00119      0.000   0.000  -0.001
   20  4 3pz        0.27244   0.00355      0.000  -0.000   0.004
   20  5 3px        0.49871   0.01539     -0.000  -0.000   0.015
   20  6 3py        0.36784   0.00084     -0.000   0.000   0.001
   20  7 3pz        0.40731   0.00024      0.000   0.000  -0.000
   20  8 3px        0.26984   0.00006      0.000  -0.000   0.000
   20  9 3Pdxy      0.08511   0.01262     -0.000  -0.000   0.013
   20 10 3Pdyz      0.08668   0.00408     -0.000  -0.000  -0.004
   20 11 3Pdz2      0.05164   0.00044     -0.000  -0.000  -0.000
   20 12 3Pdxz      0.07327   0.00490     -0.000  -0.000  -0.005
   20 13 3Pdx2-y2   0.04514   0.00134     -0.000  -0.000  -0.001
   20     Total     3.47782   0.02380     -0.001  -0.000   0.024

   24  1 3s         0.93308   0.16478     -0.001  -0.001   0.165
   24  2 3s         0.23002   0.00680     -0.000   0.000  -0.007
   24  3 3py        0.29290   0.03432     -0.000  -0.000   0.034
   24  4 3pz        0.76566   0.42419     -0.001  -0.000   0.424
   24  5 3px        0.33366   0.13681     -0.000  -0.000   0.137
   24  6 3py        0.32590   0.01043     -0.000  -0.000  -0.010
   24  7 3pz        0.15300   0.02186     -0.000  -0.000   0.022
   24  8 3px        0.24011   0.01373      0.000   0.000  -0.014
   24  9 3Pdxy      0.28161   0.00611      0.000  -0.000   0.006
   24 10 3Pdyz      0.08503   0.00058     -0.000  -0.000  -0.000
   24 11 3Pdz2      0.06413   0.05210     -0.000  -0.000   0.052
   24 12 3Pdxz      0.06982   0.01017      0.000   0.000   0.010
   24 13 3Pdx2-y2   0.18430   0.05532     -0.000  -0.000   0.055
   24     Total     3.95922   0.87420     -0.002  -0.002   0.874

   28  1 3s         0.62649   0.01390     -0.000  -0.000   0.014
   28  2 3s         0.33521   0.00024     -0.000  -0.000   0.000
   28  3 3py        0.18082   0.00054     -0.000  -0.000   0.000
   28  4 3pz        0.35261   0.03231     -0.002  -0.001   0.032
   28  5 3px        0.27497   0.00167     -0.000  -0.000   0.002
   28  6 3py        0.46992   0.00105      0.000   0.000  -0.001
   28  7 3pz        0.22798   0.00537     -0.000  -0.000   0.005
   28  8 3px        0.27476   0.00001      0.000  -0.000  -0.000
   28  9 3Pdxy      0.26192   0.00260     -0.000   0.000  -0.003
   28 10 3Pdyz      0.15012   0.00940     -0.000  -0.000   0.009
   28 11 3Pdz2      0.02222   0.00598     -0.000  -0.000   0.006
   28 12 3Pdxz      0.10676   0.00491      0.000   0.000   0.005
   28 13 3Pdx2-y2   0.30287   0.00128     -0.000  -0.000   0.001
   28     Total     3.58663   0.07189     -0.003  -0.001   0.072

----------------------------------------------------------------
Total              85.04539   1.96790     -0.004  -0.003   1.968


Species: O                   

Atom      Orb        Charge      Spin       Svec
----------------------------------------------------------------
   25  1 2s         1.30035   0.00980     -0.000  -0.000   0.010
   25  2 2s         0.29121   0.01801      0.000   0.000  -0.018
   25  3 2py        0.99119   0.01474      0.000   0.000  -0.015
   25  4 2pz        1.91594   0.00598      0.000   0.000  -0.006
   25  5 2px        1.37759   0.00015      0.000  -0.000  -0.000
   25  6 2py        0.31647   0.00503     -0.000  -0.000   0.005
   25  7 2pz        0.01226   0.00564     -0.000  -0.000   0.006
   25  8 2px        0.36875   0.00355     -0.000  -0.000   0.004
   25  9 3Pdxy      0.02828   0.00096     -0.000  -0.000   0.001
   25 10 3Pdyz      0.04919   0.00209     -0.000  -0.000   0.002
   25 11 3Pdz2      0.00778   0.00040     -0.000  -0.000   0.000
   25 12 3Pdxz      0.00878   0.00156     -0.000  -0.000   0.002
   25 13 3Pdx2-y2   0.03392   0.00346     -0.000  -0.000   0.003
   25     Total     6.70170   0.00636      0.000   0.000  -0.006

   29  1 2s         1.31948   0.00022      0.000   0.000  -0.000
   29  2 2s         0.27520   0.00023     -0.000  -0.000   0.000
   29  3 2py        0.95393   0.00034     -0.000   0.000   0.000
   29  4 2pz        1.61915   0.00269     -0.000  -0.000   0.003
   29  5 2px        1.37856   0.00051      0.000   0.000  -0.001
   29  6 2py        0.41285   0.00011      0.000  -0.000  -0.000
   29  7 2pz        0.06029   0.00022      0.000   0.000   0.000
   29  8 2px        0.18890   0.00033     -0.000  -0.000   0.000
   29  9 3Pdxy      0.01787   0.00005      0.000  -0.000  -0.000
   29 10 3Pdyz      0.00190   0.00002      0.000   0.000  -0.000
   29 11 3Pdz2      0.00298   0.00002     -0.000  -0.000   0.000
   29 12 3Pdxz      0.01101   0.00015     -0.000  -0.000   0.000
   29 13 3Pdx2-y2   0.01079   0.00005     -0.000  -0.000   0.000
   29     Total     6.25290   0.00313     -0.000  -0.000   0.003

----------------------------------------------------------------
Total              98.00000   1.96465     -0.004  -0.003   1.965


siesta: Eigenvalues (eV):
ik =     1
  -42.1205  -41.9915  -33.8038  -33.7979  -29.6411  -29.6013  -23.1502  -22.9702  -22.1540  -22.0358
  -21.5907  -21.5358  -21.0421  -21.0419  -19.4902  -19.4519  -19.2332  -19.2324  -18.9790  -18.9383
  -17.9992  -17.9773  -17.9402  -17.8322  -16.2404  -16.0820  -15.6581  -15.6255  -14.8114  -14.7598
  -14.1396  -14.0308  -13.4780  -13.4225  -13.3867  -13.2728  -13.0046  -12.9526  -12.8560  -12.7987
  -12.1990  -12.1808  -12.1675  -12.1480  -11.7579  -11.7320  -11.7238  -11.5760  -11.3057  -11.2732
  -10.8718  -10.8262  -10.5422  -10.4632  -10.0745  -10.0243   -9.7699   -9.6228   -9.1820   -9.1632
   -8.9288   -8.8934   -8.7430   -8.7359   -8.7323   -8.7303   -8.3046   -8.2378   -8.2135   -8.1950
   -8.1511   -8.0833   -8.0624   -7.8804   -7.8121   -7.7076   -7.6427   -7.5617   -7.2994   -7.2704
   -6.9666   -6.9001   -6.5052   -6.4895   -6.2286   -6.1493   -5.9509   -5.9297   -5.2015   -4.9239
   -4.8781   -4.8542   -4.5723   -4.4514   -3.9688   -3.8191   -3.4118   -2.9846   -2.8168   -2.7977
   -2.6388   -2.4658   -2.3788   -2.3125   -2.2774   -2.2548   -2.2374   -2.1328   -2.0447   -1.9266
   -1.8451   -1.8405   -1.6854   -1.6263   -1.4283   -1.3360   -1.2850   -1.2194   -1.2149   -1.0674
   -0.9213   -0.8559   -0.7769   -0.6185   -0.2861   -0.1687   -0.1509   -0.0662   -0.0094    0.0455
    0.0779    0.1814    0.2355    0.3328    0.4641    0.5231    0.5792    0.6087    0.6808    0.8198
    0.8677    0.9859    1.0195    1.1059    1.1331    1.2918    1.3002    1.4015    1.6468    1.7217
    1.7962    1.8277    1.8616    1.9778    2.0097    2.1618    2.1871    2.3275    2.4216    2.5043
    2.5586    2.5879    2.8134    2.8370    2.8823    2.8985    3.0724    3.1374    3.1603    3.2614
    3.2911    3.3984    3.6248    3.6694    3.7988    3.8371    3.9158    3.9668    3.9993    4.0381
    4.1319    4.2569    4.2590    4.3679    4.4619    4.5014    4.5477    4.5947    4.8786    4.9810
    5.0309    5.0483    5.1775    5.3211    5.3965    5.4128    5.4448    5.4753    5.5243    5.6497
    5.6688    5.7106    5.7658    5.8111    5.8303    5.9079    5.9310    6.0117    6.2443    6.3424
    6.4135    6.4577    6.6784    6.8125    6.8149    6.8614    6.9066    6.9305    7.0383    7.1145
    7.1555    7.3543    7.4333    7.4573    7.5739    7.5829    7.6078    7.6275    7.6735    7.7391
    7.8782    7.9307    7.9604    8.1483    8.4556    8.5074    8.5530    8.5906    8.6241    8.6446
    8.7491    8.9204    9.0316    9.1591    9.1930    9.2704    9.3133    9.3265    9.6149    9.6887
    9.8071    9.9479    9.9995   10.0126   10.0408   10.1384   10.1752   10.2233   10.4483   10.5025
   10.5630   10.6490   10.6696   10.7429   10.7569   10.8663   11.1506   11.1950   11.2534   11.4405
   11.4731   11.5770   11.7232   11.8325   11.8608   11.9791   11.9814   12.0585   12.0717   12.1557
   12.2580   12.3939   12.4050   12.5212   12.5647   12.7338   12.7936   12.9861   13.0275   13.1917
   13.2369   13.3633   13.4953   13.5784   13.7905   13.9230   14.0728   14.1163   14.1292   14.2363
   14.5909   14.6282   14.6919   14.7332   15.0402   15.1457   15.2746   15.3443   15.9207   15.9849
   16.0739   16.2108   16.2620   16.3487   16.4747   16.5495   17.0084   17.0785   17.1129   17.1869
   17.4263   17.4575   17.5071   17.5570   18.5063   18.6169   18.6430   18.6868   18.6957   18.7455
   18.9442   19.0266   19.1417   19.3077   19.3244   19.5195   19.5394   19.6441   19.9216   20.0145
   20.5115   20.6035   20.7490   20.8221   20.8445   20.9625   21.6326   21.6811   21.8271   21.9483
   22.1878   22.2434   22.4251   22.4818   22.7232   22.8235   23.2794   23.3288   23.5287   23.6438
   23.7225   23.7731   24.2769   24.3668   24.6418   24.7463   24.9796   25.0819   25.7059   25.7792
   25.8117   25.9323   26.1576   26.1947   26.3354   26.4543   26.6189   26.6708   27.0012   27.0841
   27.2150   27.2977   28.4618   28.5348   28.8688   28.9695   29.0368   29.1441   29.1747   29.2680
   29.6009   29.6478   29.9836   30.0757   30.2747   30.3490   30.5815   30.6289   30.9248   30.9412
   31.3966   31.4296   31.4766   31.5282   31.7097   31.7952   32.4456   32.5315   32.7461   32.8662
   33.3539   33.4372   33.6425   33.7567   33.7931   33.8318   34.4850   34.5440   35.3979   35.4759
   35.6818   35.7466   36.4288   36.5016   36.9019   36.9494   37.1939   37.2047   37.3538   37.4645
   37.5673   37.6141   38.6610   38.7571   39.1803   39.2421   39.4769   39.5880   39.9821   40.0213
   40.5642   40.6038   40.6076   40.6567   41.0923   41.1375   41.1739   41.2961   41.5333   41.5904
   41.9978   42.0550   42.3635   42.4268   43.5026   43.5488   43.7348   43.7854   43.8690   43.9406
   44.4302   44.5106   44.5286   44.5798   45.4781   45.4876   45.6566   45.7004   45.8363   45.8675
   46.1656   46.1999   47.4945   47.5339   47.6627   47.7300   47.8246   47.9042   47.9328   47.9685
   48.6836   48.7252   49.2971   49.3365   49.6719   49.7105   50.0282   50.0314   50.4937   50.5115
   50.8183   50.8705   51.4691   51.5320   52.1102   52.1782   53.5992   53.6729   54.0665   54.1295
   54.3428   54.4439   55.2952   55.4365   55.6928   55.7635   55.8939   55.9244   57.0497   57.1721
   57.3567   57.4313   57.5608   57.6650   59.5325   59.5906   60.3430   60.3699   60.8196   60.8955
   62.0431   62.0829   62.4197   62.4668   65.5880   65.6546   65.8710   65.8973   66.8332   66.8656
   67.5161   67.5686   67.9444   67.9702   69.5028   69.5687   69.9761   70.1160   71.9457   71.9774
   73.1159   73.2619   74.1358   74.2699   77.4288   77.4845   78.1164   78.3477   82.2049   82.3194
   86.3158   86.3753   86.4030   86.4583   87.4101   87.4764   89.7198   89.7910   93.8501   93.8890
   94.3731   94.4490   94.9380   95.0373   96.8051   96.9006   98.3746   98.4150  100.6877  100.7663
  101.5479  101.5847  105.8191  105.8490  111.6636  111.7809  116.0569  116.0944  119.0898  119.1184
  123.9086  123.9225  130.8341  130.8695  141.3564  141.4906  143.8400  143.9011  150.2818  150.3103
  152.6305  152.8186  161.0858  161.1366  164.5018  164.5336  181.3837  181.5105  241.5527  241.5596
  338.2768  338.2937  526.7043  526.9571
siesta: Fermi energy =      -2.906057 eV

siesta: Program's energy decomposition (eV):
siesta: Ebs     =     -1276.037795
siesta: Eions   =      3553.971015
siesta: Ena     =       661.323186
siesta: Ekin    =      2992.694458
siesta: Enl     =     -2836.011460
siesta: Eso     =        -0.005406
siesta: Edftu   =         0.000000
siesta: DEna    =        38.888373
siesta: DUscf   =        20.491953
siesta: DUext   =         0.000000
siesta: Exc     =     -1135.595066
siesta: eta*DQ  =         0.000000
siesta: Emadel  =         0.000000
siesta: Emeta   =         0.000000
siesta: Emolmec =         0.000000
siesta: Ekinion =         0.000000
siesta: Eharris =     -3812.184977
siesta: Etot    =     -3812.184977
siesta: FreeEng =     -3812.195335

siesta: Final energy (eV):
siesta:  Band Struct. =   -1276.037795
siesta:       Kinetic =    2992.694458
siesta:       Hartree =    9421.978709
siesta:       Edftu   =       0.000000
siesta:       Eso     =      -0.005406
siesta:    Ext. field =       0.000000
siesta:   Exch.-corr. =   -1135.595066
siesta:  Ion-electron =  -21637.707112
siesta:       Ion-ion =    6546.449440
siesta:       Ekinion =       0.000000
siesta:         Total =   -3812.184977
siesta:         Fermi =      -2.906057

siesta: Atomic forces (eV/Ang):
siesta:      1   -0.003910    0.015563   -0.000350
siesta:      2   -0.062122   -0.136681   -0.000190
siesta:      3   -0.020850   -0.085418    0.003887
siesta:      4   -0.002220   -0.097754   -0.001591
siesta:      5    0.070236   -0.169192    0.009098
siesta:      6   -0.550602    0.317848   -0.017089
siesta:      7    1.009452   -4.451904    0.024907
siesta:      8   -0.683081  -53.734832   -0.032198
siesta:      9 -680.334296 -285.784288    0.046178
siesta:     10   -0.784120    0.825213    0.004249
siesta:     11    0.174026 -204.325175    0.011869
siesta:     12   -3.005178   -9.537928    0.037558
siesta:     13  -78.897013 -166.076832    0.049432
siesta:     14   -0.172666   -0.604562   -0.021623
siesta:     15    0.030466   -0.036922    0.001188
siesta:     16    2.145161   -1.390057    0.072318
siesta:     17   -1.093816    0.855425    0.053377
siesta:     18    0.384866   -0.035323   -0.095962
siesta:     19    0.319769   -0.318680    0.030938
siesta:     20    0.441481    0.045607   -0.068456
siesta:     21   -0.177816    0.147417    0.106165
siesta:     22   -0.101270    0.021176    0.036724
siesta:     23   -0.180640   -0.023049   -0.049012
siesta:     24    5.811161    9.178863    0.090642
siesta:     25  676.917063  333.331313   -0.100399
siesta:     26    0.871519   34.499384   -0.061497
siesta:     27   -4.758834  169.663768   -0.007769
siesta:     28   -7.352697    5.147225   -0.116815
siesta:     29   95.292749  174.491000   -0.005722
siesta:     30    0.187941    0.586106    0.006104
siesta: ----------------------------------------
siesta:    Tot    5.474761    2.317312    0.005962

siesta: Stress tensor (static) (eV/Ang**3):
siesta:    -0.065226   -0.038059    0.000025
siesta:    -0.038059   -0.096566   -0.000019
siesta:     0.000025   -0.000019   -0.000151

siesta: Cell volume =       3737.867931 Ang**3

siesta: Pressure (static):
siesta:                Solid            Molecule  Units
siesta:           0.00058792         -0.00000685  Ry/Bohr**3
siesta:           0.05398107         -0.00062927  eV/Ang**3
siesta:          86.48814302         -1.00820898  kBar
(Free)E+ p_basis*V_orbitals  =       -3791.067249
(Free)Eharris+ p_basis*V_orbitals  =       -3791.067249
     spin moment: S , {S} =    1.96465  -0.00381  -0.00261   1.96465

siesta: Electric dipole (a.u.)  =   -0.311328   -0.328293   -0.016458
siesta: Electric dipole (Debye) =   -0.791317   -0.834438   -0.041832

cite: Please see "AT.bib" for an exhaustive BiBTeX file.
cite: Please clearly indicate Siesta version in published work: v4.1.5-1-g384057250
cite: This calculation has made use of the following articles
cite: which are encouraged to be cited in a published work.
        Primary SIESTA paper
          DOI: www.doi.org/10.1088/0953-8984/14/11/302
        Spin-orbit coupling (on-site approximation)
          DOI: www.doi.org/10.1088/0953-8984/19/19/489001


WARNING: alloc-realloc-dealloc name mismatch
         Name: atomlist isa
         Size:              -120. Bytes
         Node:     0
         Subsequent mismatches will not be reported
>> End of run:  22-MAY-2023   9:18:38
Job completed
