Siesta Version  : v4.1.5-1-g384057250
Architecture    : gcc
Compiler version: GNU Fortran (Ubuntu 11.4.0-1ubuntu1~22.04) 11.4.0
Compiler flags  : mpifort -O2 -fPIC -ftree-vectorize -fallow-argument-mismatch
PP flags        : -DFC_HAVE_ABORT -DMPI -DSIESTA__FLOOK -DSIESTA__METIS -DSIESTA__MUMPS -DCDF -DNCDF -DNCDF_4 -DNCDF_PARALLEL -DSIESTA__MRRR -DSIESTA__ELPA
Libraries       : libncdf.a libfdict.a  -lflookall -ldl -lnetcdff -lnetcdf -lhdf5_hl -lhdf5 -lhdf5_fortran -lz -lscalapack-openmpi -lopenblas -lmetis -lzmumps -lcmumps -ldmumps -lmumps_common -lpord -lsmumps -lesmumps -lscotch -lscotcherr -fopenmp -lelpa
PARALLEL version
NetCDF support
NetCDF-4 support
NetCDF-4 MPI-IO support
METIS ordering support
Lua support

* Running on 8 nodes in parallel
>> Start of run:   1-FEB-2024  22:58:13

                           ***********************       
                           *  WELCOME TO SIESTA  *       
                           ***********************       

reinit: Reading from standard input
reinit: Dumped input in INPUT_TMP.63875
************************** Dump of input data file ****************************
# mpirun -np 4 siesta-4.1.5 < GC.fdf > GC.out &
SystemLabel      GC
NumberOfAtoms    29
NumberOfSpecies  4
%block ChemicalSpeciesLabel
    1    1  H
    2    7  N
    3   14  Si
    4    8  O
%endblock ChemicalSpeciesLabel
############################################
# This overrides Defaults.fdf configuration
############################################
MD.TypeOfRun                Verlet # CG, Verlet
MD.Steps                    0
MaxSCFIterations            200
SCF.MustConverge            F
AtomicCoordinatesFormat NotScaledCartesianAng
%block AtomicCoordinatesAndAtomicSpecies
    -0.7412826049352979 6.240242561561997 0.0  1  1  H
    -1.4477693349352978 5.450206381561998 0.0  2  2  N
    -3.1780562449352976 5.891570291561997 0.0  3  3  Si
    -3.333835924935298 7.381562551561997 0.0  1  4  H
    -4.7013778649352975 4.332662771561997 0.0  3  5  Si
    -6.184565494935298 4.575493131561997 0.0  1  6  H
    -3.5029870049352976 2.419386611561997 0.0  3  7  Si
    -4.269012464935297 0.886669871561997 0.0  2  8  N
    -3.6787659149352976 -0.07054315843800296 0.0  1  9  H
    -5.320634784935297 0.806209641561997 0.0  1  10  H
    -1.7867869449352978 2.474560921561997 0.0  2  11  N
    -0.7117643249352978 3.8048997615619973 0.0  3  12  Si
    0.896908995064702 3.786089501561997 0.0  4  13  O
    5.6164483 -7.44953905 0.0  1  14  H
    4.58206954 -7.2320376 0.0  2  15  N
    3.29666389 -8.492636 0.0  3  16  Si
    3.80117524 -9.90371886 -0.0  1  17  H
    1.65934232 -8.01362137 0.0  2  18  N
    1.68097912 -6.20463398 -0.0  3  19  Si
    0.54543521 -4.28636135 0.0  3  20  Si
    -1.03431493 -3.94450034 0.0  4  21  O
    1.73226934 -2.87719605 0.0  2  22  N
    1.20957366 -1.92961761 -0.0  1  23  H
    3.50853448 -2.77677601 0.0  3  24  Si
    4.13684451 -1.17938608 0.0  2  25  N
    3.54296161 -0.26248101 0.0  1  26  H
    5.18364407 -1.05231197 -0.0  1  27  H
    4.63288658 -4.07521596 -0.0  2  28  N
    3.79410501 -5.58634043 0.0  3  29  Si
%endblock AtomicCoordinatesAndAtomicSpecies
#############
# Unit Cell
#############
LatticeConstant 1.0 Ang
%block LatticeVectors
    30.00000    0.000000    0.000000
    0.000000    45.00000    0.000000
    0.000000    0.000000    10.00000
%endblock LatticeVectors
%include ../../../../Defaults.fdf
************************** End of input data file *****************************

reinit: -----------------------------------------------------------------------
reinit: System Name: 
reinit: -----------------------------------------------------------------------
reinit: System Label: GC
reinit: -----------------------------------------------------------------------

initatom: Reading input for the pseudopotentials and atomic orbitals ----------
Species number:   1 Atomic number:    1 Label: H
Species number:   2 Atomic number:    7 Label: N
Species number:   3 Atomic number:   14 Label: Si
Species number:   4 Atomic number:    8 Label: O

Ground state valence configuration:   1s01
Reading pseudopotential information in formatted form from H.psf

Pseudopotential generated from a relativistic atomic calculation

Valence configuration for pseudopotential generation:
1s( 1.00) rc: 0.01
2p( 0.00) rc: 0.60
3d( 0.00) rc: 1.99
4f( 0.00) rc: 2.49
Ground state valence configuration:   2s02  2p03
Reading pseudopotential information in formatted form from N.psf

Pseudopotential generated from a relativistic atomic calculation

Valence configuration for pseudopotential generation:
2s( 2.00) rc: 0.94
2p( 3.00) rc: 0.59
3d( 0.00) rc: 3.46
4f( 0.00) rc: 2.47
Ground state valence configuration:   3s02  3p02
Reading pseudopotential information in formatted form from Si.psf

Pseudopotential generated from a relativistic atomic calculation

Valence configuration for pseudopotential generation:
3s( 2.00) rc: 1.67
3p( 2.00) rc: 2.04
3d( 0.00) rc: 2.89
4f( 0.00) rc: 2.49
Ground state valence configuration:   2s02  2p04
Reading pseudopotential information in formatted form from O.psf

Pseudopotential generated from a relativistic atomic calculation

Valence configuration for pseudopotential generation:
2s( 2.00) rc: 0.45
2p( 4.00) rc: 0.92
3d( 0.00) rc: 2.24
4f( 0.00) rc: 0.25
For H, standard SIESTA heuristics set lmxkb to 2
 (one more than the basis l, including polarization orbitals).
Use PS.lmax or PS.KBprojectors blocks to override.
For N, standard SIESTA heuristics set lmxkb to 3
 (one more than the basis l, including polarization orbitals).
Use PS.lmax or PS.KBprojectors blocks to override.
For Si, standard SIESTA heuristics set lmxkb to 3
 (one more than the basis l, including polarization orbitals).
Use PS.lmax or PS.KBprojectors blocks to override.
For O, standard SIESTA heuristics set lmxkb to 3
 (one more than the basis l, including polarization orbitals).
Use PS.lmax or PS.KBprojectors blocks to override.

<basis_specs>
===============================================================================
H                    Z=   1    Mass=  1.0100        Charge= 0.17977+309
Lmxo=0 Lmxkb= 2    BasisType=split      Semic=F
L=0  Nsemic=0  Cnfigmx=1
          i=1  nzeta=2  polorb=1  (1s)
            splnorm:   0.62000    
               vcte:    0.0000    
               rinn:    0.0000    
               qcoe:    0.0000    
               qyuk:    0.0000    
               qwid:   0.10000E-01
                rcs:    0.0000      0.0000    
            lambdas:    1.0000      1.0000    
-------------------------------------------------------------------------------
L=0  Nkbl=1  erefs: 0.17977+309
L=1  Nkbl=1  erefs: 0.17977+309
L=2  Nkbl=1  erefs: 0.17977+309
===============================================================================
</basis_specs>

atom: Called for H                     (Z =   1)

read_vps: Pseudopotential generation method:
read_vps: ATM4.2.7  Troullier-Martins                       
Valence charge for ps generation:    1.00000

xc_check: Exchange-correlation functional:
xc_check: GGA Perdew, Burke & Ernzerhof 1996
V l=0 = -2*Zval/r beyond r=  0.0098
V l=1 = -2*Zval/r beyond r=  0.5817
V l=2 = -2*Zval/r beyond r=  1.9372
All V_l potentials equal beyond r=  1.9372
This should be close to max(r_c) in ps generation
All pots = -2*Zval/r beyond r=  1.9372

VLOCAL1: 99.0% of the norm of Vloc inside     11.567 Ry
VLOCAL1: 99.9% of the norm of Vloc inside     26.362 Ry
atom: Maximum radius for 4*pi*r*r*local-pseudopot. charge    2.25106
atom: Maximum radius for r*vlocal+2*Zval:    1.91306
GHOST: No ghost state for L =  0
GHOST: No ghost state for L =  1
GHOST: No ghost state for L =  2

KBgen: Kleinman-Bylander projectors: 
   l= 0   rc=  2.036604   el= -0.477180   Ekb= -6.081590   kbcos= -0.277285
   l= 1   rc=  2.195416   el=  0.001076   Ekb= -0.926943   kbcos= -0.034643
   l= 2   rc=  2.251056   el=  0.002010   Ekb= -0.130941   kbcos= -0.009788

KBgen: Total number of Kleinman-Bylander projectors:    9
atom: -------------------------------------------------------------------------

atom: SANKEY-TYPE ORBITALS:
atom: Selected multiple-zeta basis: split     

SPLIT: Orbitals with angular momentum L= 0

SPLIT: Basis orbitals for state 1s

SPLIT: PAO cut-off radius determined from an
SPLIT: energy shift=  0.002000 Ry

   izeta = 1
                 lambda =    1.000000
                     rc =    6.518340
                 energy =   -0.475305
                kinetic =    0.912139
    potential(screened) =   -1.387444
       potential(ionic) =   -1.907295

   izeta = 2
                 rmatch =    2.141150
              splitnorm =    0.620000
                 energy =    0.566467
                kinetic =    3.772856
    potential(screened) =   -3.206389
       potential(ionic) =   -3.759093

POLgen: Perturbative polarization orbital with L=  1

POLgen: Polarization orbital for state 1s

   izeta = 1
                     rc =    6.518340
                 energy =    0.533861
                kinetic =    1.121086
    potential(screened) =   -0.587225
       potential(ionic) =   -1.053027
atom: Total number of Sankey-type orbitals:  5

atm_pop: Valence configuration (for local Pseudopot. screening):
 1s( 1.00)                                                            
Vna: chval, zval:    1.00000   1.00000

Vna:  Cut-off radius for the neutral-atom potential:   6.518340

atom: _________________________________________________________________________

<basis_specs>
===============================================================================
N                    Z=   7    Mass=  14.010        Charge= 0.17977+309
Lmxo=1 Lmxkb= 3    BasisType=split      Semic=F
L=0  Nsemic=0  Cnfigmx=2
          i=1  nzeta=2  polorb=0  (2s)
            splnorm:   0.28000    
               vcte:    0.0000    
               rinn:    0.0000    
               qcoe:    0.0000    
               qyuk:    0.0000    
               qwid:   0.10000E-01
                rcs:    0.0000      0.0000    
            lambdas:    1.0000      1.0000    
L=1  Nsemic=0  Cnfigmx=2
          i=1  nzeta=2  polorb=1  (2p)
            splnorm:   0.28000    
               vcte:    0.0000    
               rinn:    0.0000    
               qcoe:    0.0000    
               qyuk:    0.0000    
               qwid:   0.10000E-01
                rcs:    0.0000      0.0000    
            lambdas:    1.0000      1.0000    
-------------------------------------------------------------------------------
L=0  Nkbl=1  erefs: 0.17977+309
L=1  Nkbl=1  erefs: 0.17977+309
L=2  Nkbl=1  erefs: 0.17977+309
L=3  Nkbl=1  erefs: 0.17977+309
===============================================================================
</basis_specs>

atom: Called for N                     (Z =   7)

read_vps: Pseudopotential generation method:
read_vps: ATM4.2.7  Troullier-Martins                       
Valence charge for ps generation:    5.00000

xc_check: Exchange-correlation functional:
xc_check: GGA Perdew, Burke & Ernzerhof 1996
V l=0 = -2*Zval/r beyond r=  1.2889
V l=1 = -2*Zval/r beyond r=  1.2889
V l=2 = -2*Zval/r beyond r=  3.4178
V l=3 = -2*Zval/r beyond r=  2.4084
All V_l potentials equal beyond r=  3.3753
This should be close to max(r_c) in ps generation
All pots = -2*Zval/r beyond r=  3.4178

VLOCAL1: 99.0% of the norm of Vloc inside      3.810 Ry
VLOCAL1: 99.9% of the norm of Vloc inside      8.683 Ry
atom: Maximum radius for 4*pi*r*r*local-pseudopot. charge    4.02088
atom: Maximum radius for r*vlocal+2*Zval:    3.54838
GHOST: No ghost state for L =  0
GHOST: No ghost state for L =  1
GHOST: No ghost state for L =  2
GHOST: No ghost state for L =  3

KBgen: Kleinman-Bylander projectors: 
   l= 0   rc=  3.417763   el= -1.365098   Ekb= -4.433130   kbcos= -0.707855
   l= 1   rc=  3.375302   el= -0.521201   Ekb=-13.264039   kbcos= -0.535594
   l= 2   rc=  3.872880   el=  0.001991   Ekb= -0.641094   kbcos= -0.062456
   l= 3   rc=  3.970931   el=  0.003093   Ekb= -0.474517   kbcos= -0.018236

KBgen: Total number of Kleinman-Bylander projectors:   16
atom: -------------------------------------------------------------------------

atom: SANKEY-TYPE ORBITALS:
atom: Selected multiple-zeta basis: split     

SPLIT: Orbitals with angular momentum L= 0

SPLIT: Basis orbitals for state 2s

SPLIT: PAO cut-off radius determined from an
SPLIT: energy shift=  0.002000 Ry

   izeta = 1
                 lambda =    1.000000
                     rc =    4.730425
                 energy =   -1.363399
                kinetic =    1.245246
    potential(screened) =   -2.608645
       potential(ionic) =   -8.121105

   izeta = 2
                 rmatch =    2.531849
              splitnorm =    0.280000
                 energy =   -0.959908
                kinetic =    2.409435
    potential(screened) =   -3.369343
       potential(ionic) =   -9.427975

SPLIT: Orbitals with angular momentum L= 1

SPLIT: Basis orbitals for state 2p

SPLIT: PAO cut-off radius determined from an
SPLIT: energy shift=  0.002000 Ry

   izeta = 1
                 lambda =    1.000000
                     rc =    5.924108
                 energy =   -0.519262
                kinetic =    3.672940
    potential(screened) =   -4.192202
       potential(ionic) =   -9.518354

   izeta = 2
                 rmatch =    2.531849
              splitnorm =    0.280000
                 energy =   -0.104258
                kinetic =    6.807538
    potential(screened) =   -6.911796
       potential(ionic) =  -13.149920

POLgen: Perturbative polarization orbital with L=  2

POLgen: Polarization orbital for state 2p

   izeta = 1
                     rc =    5.924108
                 energy =    1.427508
                kinetic =    2.872379
    potential(screened) =   -1.444871
       potential(ionic) =   -5.563644
atom: Total number of Sankey-type orbitals: 13

atm_pop: Valence configuration (for local Pseudopot. screening):
 2s( 2.00)                                                            
 2p( 3.00)                                                            
Vna: chval, zval:    5.00000   5.00000

Vna:  Cut-off radius for the neutral-atom potential:   5.924108

atom: _________________________________________________________________________

<basis_specs>
===============================================================================
Si                   Z=  14    Mass=  28.090        Charge= 0.17977+309
Lmxo=1 Lmxkb= 3    BasisType=split      Semic=F
L=0  Nsemic=0  Cnfigmx=3
          i=1  nzeta=2  polorb=0  (3s)
            splnorm:   0.28000    
               vcte:    0.0000    
               rinn:    0.0000    
               qcoe:    0.0000    
               qyuk:    0.0000    
               qwid:   0.10000E-01
                rcs:    0.0000      0.0000    
            lambdas:    1.0000      1.0000    
L=1  Nsemic=0  Cnfigmx=3
          i=1  nzeta=2  polorb=1  (3p)
            splnorm:   0.28000    
               vcte:    0.0000    
               rinn:    0.0000    
               qcoe:    0.0000    
               qyuk:    0.0000    
               qwid:   0.10000E-01
                rcs:    0.0000      0.0000    
            lambdas:    1.0000      1.0000    
-------------------------------------------------------------------------------
L=0  Nkbl=1  erefs: 0.17977+309
L=1  Nkbl=1  erefs: 0.17977+309
L=2  Nkbl=1  erefs: 0.17977+309
L=3  Nkbl=1  erefs: 0.17977+309
===============================================================================
</basis_specs>

atom: Called for Si                    (Z =  14)

read_vps: Pseudopotential generation method:
read_vps: ATM4.2.7  Troullier-Martins                       
Valence charge for ps generation:    4.00000

xc_check: Exchange-correlation functional:
xc_check: GGA Perdew, Burke & Ernzerhof 1996
V l=0 = -2*Zval/r beyond r=  2.7826
V l=1 = -2*Zval/r beyond r=  2.7826
V l=2 = -2*Zval/r beyond r=  2.9253
V l=3 = -2*Zval/r beyond r=  2.7826
All V_l potentials equal beyond r=  2.8530
This should be close to max(r_c) in ps generation
All pots = -2*Zval/r beyond r=  2.9253

VLOCAL1: 99.0% of the norm of Vloc inside      5.333 Ry
VLOCAL1: 99.9% of the norm of Vloc inside     12.154 Ry
atom: Maximum radius for 4*pi*r*r*local-pseudopot. charge    3.39869
atom: Maximum radius for r*vlocal+2*Zval:    2.96205
GHOST: No ghost state for L =  0
GHOST: No ghost state for L =  1
GHOST: No ghost state for L =  2
GHOST: No ghost state for L =  3

KBgen: Kleinman-Bylander projectors: 
   l= 0   rc=  3.075247   el= -0.794092   Ekb=  5.879390   kbcos=  0.167461
   l= 1   rc=  3.153101   el= -0.300068   Ekb=  2.642817   kbcos=  0.058301
   l= 2   rc=  3.273594   el=  0.001958   Ekb= -1.185135   kbcos= -0.104411
   l= 3   rc=  3.232927   el=  0.003046   Ekb= -0.497174   kbcos= -0.015889

KBgen: Total number of Kleinman-Bylander projectors:   16
atom: -------------------------------------------------------------------------

atom: SANKEY-TYPE ORBITALS:
atom: Selected multiple-zeta basis: split     

SPLIT: Orbitals with angular momentum L= 0

SPLIT: Basis orbitals for state 3s

SPLIT: PAO cut-off radius determined from an
SPLIT: energy shift=  0.002000 Ry

   izeta = 1
                 lambda =    1.000000
                     rc =    6.429618
                 energy =   -0.792283
                kinetic =    0.525293
    potential(screened) =   -1.317576
       potential(ionic) =   -3.744923

   izeta = 2
                 rmatch =    3.998416
              splitnorm =    0.280000
                 energy =   -0.583081
                kinetic =    1.069570
    potential(screened) =   -1.652651
       potential(ionic) =   -4.235185

SPLIT: Orbitals with angular momentum L= 1

SPLIT: Basis orbitals for state 3p

SPLIT: PAO cut-off radius determined from an
SPLIT: energy shift=  0.002000 Ry

   izeta = 1
                 lambda =    1.000000
                     rc =    8.464845
                 energy =   -0.298236
                kinetic =    0.785360
    potential(screened) =   -1.083596
       potential(ionic) =   -3.273779

   izeta = 2
                 rmatch =    4.587816
              splitnorm =    0.280000
                 energy =   -0.131871
                kinetic =    1.403687
    potential(screened) =   -1.535557
       potential(ionic) =   -4.015310

POLgen: Perturbative polarization orbital with L=  2

POLgen: Polarization orbital for state 3p

   izeta = 1
                     rc =    8.464845
                 energy =    0.321949
                kinetic =    1.055677
    potential(screened) =   -0.733728
       potential(ionic) =   -2.672950
atom: Total number of Sankey-type orbitals: 13

atm_pop: Valence configuration (for local Pseudopot. screening):
 3s( 2.00)                                                            
 3p( 2.00)                                                            
Vna: chval, zval:    4.00000   4.00000

Vna:  Cut-off radius for the neutral-atom potential:   8.464845

atom: _________________________________________________________________________

<basis_specs>
===============================================================================
O                    Z=   8    Mass=  16.000        Charge= 0.17977+309
Lmxo=1 Lmxkb= 3    BasisType=split      Semic=F
L=0  Nsemic=0  Cnfigmx=2
          i=1  nzeta=2  polorb=0  (2s)
            splnorm:   0.28000    
               vcte:    0.0000    
               rinn:    0.0000    
               qcoe:    0.0000    
               qyuk:    0.0000    
               qwid:   0.10000E-01
                rcs:    0.0000      0.0000    
            lambdas:    1.0000      1.0000    
L=1  Nsemic=0  Cnfigmx=2
          i=1  nzeta=2  polorb=1  (2p)
            splnorm:   0.28000    
               vcte:    0.0000    
               rinn:    0.0000    
               qcoe:    0.0000    
               qyuk:    0.0000    
               qwid:   0.10000E-01
                rcs:    0.0000      0.0000    
            lambdas:    1.0000      1.0000    
-------------------------------------------------------------------------------
L=0  Nkbl=1  erefs: 0.17977+309
L=1  Nkbl=1  erefs: 0.17977+309
L=2  Nkbl=1  erefs: 0.17977+309
L=3  Nkbl=1  erefs: 0.17977+309
===============================================================================
</basis_specs>

atom: Called for O                     (Z =   8)

read_vps: Pseudopotential generation method:
read_vps: ATM4.2.7  Troullier-Martins                       
Valence charge for ps generation:    6.00000

xc_check: Exchange-correlation functional:
xc_check: GGA Perdew, Burke & Ernzerhof 1996
V l=0 = -2*Zval/r beyond r=  1.1000
V l=1 = -2*Zval/r beyond r=  1.1000
V l=2 = -2*Zval/r beyond r=  2.2154
V l=3 = -2*Zval/r beyond r=  1.1000
All V_l potentials equal beyond r=  2.2154
This should be close to max(r_c) in ps generation
All pots = -2*Zval/r beyond r=  2.2154

VLOCAL1: 99.0% of the norm of Vloc inside      8.845 Ry
VLOCAL1: 99.9% of the norm of Vloc inside     20.157 Ry
atom: Maximum radius for 4*pi*r*r*local-pseudopot. charge    2.67231
atom: Maximum radius for r*vlocal+2*Zval:    2.32897
GHOST: No ghost state for L =  0
GHOST: No ghost state for L =  1
GHOST: No ghost state for L =  2
GHOST: No ghost state for L =  3

KBgen: Kleinman-Bylander projectors: 
   l= 0   rc=  2.243238   el= -1.759686   Ekb=**********   kbcos= -0.171774
   l= 1   rc=  2.328968   el= -0.663873   Ekb=-14.506792   kbcos= -0.519897
   l= 2   rc=  2.573941   el=  0.002031   Ekb= -1.137373   kbcos= -0.019581
   l= 3   rc=  2.606321   el=  0.003153   Ekb= -1.013546   kbcos= -0.003122

KBgen: Total number of Kleinman-Bylander projectors:   16
atom: -------------------------------------------------------------------------

atom: SANKEY-TYPE ORBITALS:
atom: Selected multiple-zeta basis: split     

SPLIT: Orbitals with angular momentum L= 0

SPLIT: Basis orbitals for state 2s

SPLIT: PAO cut-off radius determined from an
SPLIT: energy shift=  0.002000 Ry

   izeta = 1
                 lambda =    1.000000
                     rc =    4.243912
                 energy =   -1.758270
                kinetic =    3.286084
    potential(screened) =   -5.044353
       potential(ionic) =  -12.921184

   izeta = 2
                 rmatch =    2.187845
              splitnorm =    0.280000
                 energy =   -0.885018
                kinetic =    8.134434
    potential(screened) =   -9.019452
       potential(ionic) =  -17.710645

SPLIT: Orbitals with angular momentum L= 1

SPLIT: Basis orbitals for state 2p

SPLIT: PAO cut-off radius determined from an
SPLIT: energy shift=  0.002000 Ry

   izeta = 1
                 lambda =    1.000000
                     rc =    5.314825
                 energy =   -0.661986
                kinetic =    4.917472
    potential(screened) =   -5.579458
       potential(ionic) =  -13.236259

   izeta = 2
                 rmatch =    2.160663
              splitnorm =    0.280000
                 energy =   -0.068760
                kinetic =    9.183374
    potential(screened) =   -9.252135
       potential(ionic) =  -18.274251

POLgen: Perturbative polarization orbital with L=  2

POLgen: Polarization orbital for state 2p

   izeta = 1
                     rc =    5.314825
                 energy =    1.970580
                kinetic =    3.886128
    potential(screened) =   -1.915547
       potential(ionic) =   -7.749584
atom: Total number of Sankey-type orbitals: 13

atm_pop: Valence configuration (for local Pseudopot. screening):
 2s( 2.00)                                                            
 2p( 4.00)                                                            
Vna: chval, zval:    6.00000   6.00000

Vna:  Cut-off radius for the neutral-atom potential:   5.314825

atom: _________________________________________________________________________

prinput: Basis input ----------------------------------------------------------

PAO.BasisType split     

%block ChemicalSpeciesLabel
    1    1 H                       # Species index, atomic number, species label
    2    7 N                       # Species index, atomic number, species label
    3   14 Si                      # Species index, atomic number, species label
    4    8 O                       # Species index, atomic number, species label
%endblock ChemicalSpeciesLabel

%block PAO.Basis                 # Define Basis set
H                     1                    # Species label, number of l-shells
 n=1   0   2 P   1                   # n, l, Nzeta, Polarization, NzetaPol
   6.518      2.141   
   1.000      1.000   
N                     2                    # Species label, number of l-shells
 n=2   0   2                         # n, l, Nzeta 
   4.730      2.532   
   1.000      1.000   
 n=2   1   2 P   1                   # n, l, Nzeta, Polarization, NzetaPol
   5.924      2.532   
   1.000      1.000   
Si                    2                    # Species label, number of l-shells
 n=3   0   2                         # n, l, Nzeta 
   6.430      3.998   
   1.000      1.000   
 n=3   1   2 P   1                   # n, l, Nzeta, Polarization, NzetaPol
   8.465      4.588   
   1.000      1.000   
O                     2                    # Species label, number of l-shells
 n=2   0   2                         # n, l, Nzeta 
   4.244      2.188   
   1.000      1.000   
 n=2   1   2 P   1                   # n, l, Nzeta, Polarization, NzetaPol
   5.315      2.161   
   1.000      1.000   
%endblock PAO.Basis

prinput: ----------------------------------------------------------------------

Dumping basis to NetCDF file H.ion.nc
Dumping basis to NetCDF file N.ion.nc
Dumping basis to NetCDF file Si.ion.nc
Dumping basis to NetCDF file O.ion.nc
coor:   Atomic-coordinates input format  =     Cartesian coordinates
coor:                                          (in Angstroms)

siesta: Atomic coordinates (Bohr) and species
siesta:     -1.40082  11.79235   0.00000  1        1
siesta:     -2.73589  10.29940   0.00000  2        2
siesta:     -6.00566  11.13346   0.00000  3        3
siesta:     -6.30004  13.94914   0.00000  1        4
siesta:     -8.88432   8.18755   0.00000  3        5
siesta:    -11.68714   8.64643   0.00000  1        6
siesta:     -6.61969   4.57198   0.00000  3        7
siesta:     -8.06727   1.67556   0.00000  2        8
siesta:     -6.95186  -0.13331   0.00000  1        9
siesta:    -10.05455   1.52352   0.00000  1       10
siesta:     -3.37654   4.67624   0.00000  2       11
siesta:     -1.34504   7.19022   0.00000  3       12
siesta:      1.69491   7.15468   0.00000  4       13
siesta:     10.61355 -14.07759   0.00000  1       14
siesta:      8.65886 -13.66658   0.00000  2       15
siesta:      6.22979 -16.04876   0.00000  3       16
siesta:      7.18318 -18.71532  -0.00000  1       17
siesta:      3.13570 -15.14356   0.00000  2       18
siesta:      3.17659 -11.72506  -0.00000  3       19
siesta:      1.03072  -8.10005   0.00000  3       20
siesta:     -1.95457  -7.45403   0.00000  4       21
siesta:      3.27352  -5.43711   0.00000  2       22
siesta:      2.28576  -3.64645  -0.00000  1       23
siesta:      6.63017  -5.24735   0.00000  3       24
siesta:      7.81751  -2.22872   0.00000  2       25
siesta:      6.69523  -0.49602   0.00000  1       26
siesta:      9.79567  -1.98858  -0.00000  1       27
siesta:      8.75489  -7.70105  -0.00000  2       28
siesta:      7.16982 -10.55666   0.00000  3       29

siesta: System type = molecule  

initatomlists: Number of atoms, orbitals, and projectors:     29   297   394

siesta: ******************** Simulation parameters ****************************
siesta:
siesta: The following are some of the parameters of the simulation.
siesta: A complete list of the parameters used, including default values,
siesta: can be found in file out.fdf
siesta:
redata: Spin configuration                          = spin-orbit
redata: Number of spin components                   = 8
redata: Time-Reversal Symmetry                      = F
redata: Spin spiral                                 = F
############################################################
This spin-orbit implementation uses a local approximation.
From 4.2 and onwards the full non-local approximation is implemented
You are strongly advised to use >=4.2 versions!
############################################################
redata: Long output                                 =   F
redata: Number of Atomic Species                    =        4
redata: Charge density info will appear in .RHO file
redata: Write Mulliken Pop.                         = NO
redata: Matel table size (NRTAB)                    =     1024
redata: Mesh Cutoff                                 =   340.0000 Ry
redata: Net charge of the system                    =     0.0000 |e|
redata: Min. number of SCF Iter                     =        1
redata: Max. number of SCF Iter                     =      200
redata: SCF mix quantity                            = Hamiltonian
redata: Mix DM or H after convergence               =   F
redata: Recompute H after scf cycle                 =   F
redata: Mix DM in first SCF step                    =   T
redata: Write Pulay info on disk                    =   F
redata: New DM Occupancy tolerance                  = 0.000000000001
redata: No kicks to SCF
redata: DM Mixing Weight for Kicks                  =     0.5000
redata: Require Harris convergence for SCF          =   F
redata: Harris energy tolerance for SCF             =     0.000100 eV
redata: Require DM convergence for SCF              =   T
redata: DM tolerance for SCF                        =     0.000008
redata: Require EDM convergence for SCF             =   F
redata: EDM tolerance for SCF                       =     0.001000 eV
redata: Require H convergence for SCF               =   T
redata: Hamiltonian tolerance for SCF               =     0.000001 eV
redata: Require (free) Energy convergence for SCF   =   F
redata: (free) Energy tolerance for SCF             =     0.000100 eV
redata: Using Saved Data (generic)                  =   F
redata: Use continuation files for DM               =   T
redata: Neglect nonoverlap interactions             =   F
redata: Method of Calculation                       = Diagonalization
redata: Electronic Temperature                      =   299.9978 K
redata: Fix the spin of the system                  =   F
redata: Dynamics option                             = Verlet MD run
redata: Initial MD time step                        =        1
redata:   Final MD time step                        =        1
redata: Length of MD time step                      =     0.5000 fs
redata: Initial Temperature of MD run               =     0.0000 K
redata: Perform a MD quench                         =   F
mix.SCF: Pulay mixing                            = Pulay
mix.SCF:    Variant                              = stable
mix.SCF:    History steps                        = 6
mix.SCF:    Linear mixing weight                 =     0.250000
mix.SCF:    Mixing weight                        =     0.250000
mix.SCF:    SVD condition                        = 0.1000E-07
mix.SCF:    Restart steps                        = 24
mix.SCF:    Restart save steps                   = 3
mix.SCF: Spin-component mixing                   all
redata: Save all siesta data in one NC              =   F
redata: ***********************************************************************

%block SCF.Mixers
  Pulay
%endblock SCF.Mixers

%block SCF.Mixer.Pulay
  # Mixing method
  method pulay
  variant stable

  # Mixing options
  weight 0.2500
  weight.linear 0.2500
  history 6
  restart 24
  restart.save 3
%endblock SCF.Mixer.Pulay

Size of DM history Fstack: 3
Total number of electrons:    98.000000
Total ionic charge:    98.000000

* ProcessorY, Blocksize:    2  24


* Orbital distribution balance (max,min):    48    24


Time-reversal symmetry not used.

siesta: k-grid: Number of k-points =     1
siesta: k-grid: Cutoff (effective) =     5.000 Ang
siesta: k-grid: Supercell and displacements
siesta: k-grid:    1   0   0      0.000
siesta: k-grid:    0   1   0      0.000
siesta: k-grid:    0   0   1      0.000

diag: Algorithm                                     = ELPA-1stage
diag: Parallel over k                               =   F
diag: Use parallel 2D distribution                  =   T
diag: Parallel block-size                           = 24
diag: Parallel distribution                         =     2 x     4
diag: Used triangular part                          = Lower
diag: Absolute tolerance                            =  0.100E-15
diag: Orthogonalization factor                      =  0.100E-05
diag: Memory factor                                 =  1.0000


ts: **************************************************************
ts: Save H and S matrices                           =    F
ts: Save DM and EDM matrices                        =    F
ts: Only save the overlap matrix S                  =    F
ts: **************************************************************

************************ Begin: TS CHECKS AND WARNINGS ************************
************************ End: TS CHECKS AND WARNINGS **************************


                     ====================================
                        Begin MD step =      1
                     ====================================

outcoor: Atomic coordinates (Ang):                          
   -0.74128260    6.24024256    0.00000000   1       1  H
   -1.44776933    5.45020638    0.00000000   2       2  N
   -3.17805624    5.89157029    0.00000000   3       3  Si
   -3.33383592    7.38156255    0.00000000   1       4  H
   -4.70137786    4.33266277    0.00000000   3       5  Si
   -6.18456549    4.57549313    0.00000000   1       6  H
   -3.50298700    2.41938661    0.00000000   3       7  Si
   -4.26901246    0.88666987    0.00000000   2       8  N
   -3.67876591   -0.07054316    0.00000000   1       9  H
   -5.32063478    0.80620964    0.00000000   1      10  H
   -1.78678694    2.47456092    0.00000000   2      11  N
   -0.71176432    3.80489976    0.00000000   3      12  Si
    0.89690900    3.78608950    0.00000000   4      13  O
    5.61644830   -7.44953905    0.00000000   1      14  H
    4.58206954   -7.23203760    0.00000000   2      15  N
    3.29666389   -8.49263600    0.00000000   3      16  Si
    3.80117524   -9.90371886    0.00000000   1      17  H
    1.65934232   -8.01362137    0.00000000   2      18  N
    1.68097912   -6.20463398    0.00000000   3      19  Si
    0.54543521   -4.28636135    0.00000000   3      20  Si
   -1.03431493   -3.94450034    0.00000000   4      21  O
    1.73226934   -2.87719605    0.00000000   2      22  N
    1.20957366   -1.92961761    0.00000000   1      23  H
    3.50853448   -2.77677601    0.00000000   3      24  Si
    4.13684451   -1.17938608    0.00000000   2      25  N
    3.54296161   -0.26248101    0.00000000   1      26  H
    5.18364407   -1.05231197    0.00000000   1      27  H
    4.63288658   -4.07521596    0.00000000   2      28  N
    3.79410501   -5.58634043    0.00000000   3      29  Si

outcell: Unit cell vectors (Ang):
       30.000000    0.000000    0.000000
        0.000000   45.000000    0.000000
        0.000000    0.000000   10.000000

outcell: Cell vector modules (Ang)   :   30.000000   45.000000   10.000000
outcell: Cell angles (23,13,12) (deg):     90.0000     90.0000     90.0000
outcell: Cell volume (Ang**3)        :  13500.0000
<dSpData1D:S at geom step 1
  <sparsity:sparsity for geom step 1
    nrows_g=297 nrows=48 sparsity=.0860 nnzs=7587, refcount: 8>
  <dData1D:(new from dSpData1D) n=7587, refcount: 1>
refcount: 1>
new_DM -- step:     1
Initializing Density Matrix...

Attempting to read DM from file... Failed...
DM filled with atomic data:
<dSpData2D:DM initialized from atoms
  <sparsity:sparsity for geom step 1
    nrows_g=297 nrows=48 sparsity=.0860 nnzs=7587, refcount: 9>
  <dData2D:DM n=7587 m=8, refcount: 1>
refcount: 1>
     spin moment: S , {S} =   56.00000   0.00000   0.00000  56.00000
No. of atoms with KB's overlaping orbs in proc 0. Max # of overlaps:      26     142

Initializing spin-orbit part of the Hamiltonian
  Adding spin-orbit effects for H 
  Adding spin-orbit effects for N 
  Adding spin-orbit effects for Si
  Adding spin-orbit effects for O 


New grid distribution:   1
           1       1:  180    1:  125    1:   15
           2       1:  180    1:  125   16:   30
           3       1:  180    1:  125   31:   45
           4       1:  180    1:  125   46:   60
           5       1:  180  126:  250    1:   15
           6       1:  180  126:  250   16:   30
           7       1:  180  126:  250   31:   45
           8       1:  180  126:  250   46:   60

InitMesh: MESH =   360 x   500 x   120 =    21600000
InitMesh: (bp) =   180 x   250 x    60 =     2700000
InitMesh: Mesh cutoff (required, used) =   340.000   341.206 Ry
ExtMesh (bp) on 0 =   288 x   225 x   123 =     7970400
New grid distribution:   2
           1       1:  157   29:  206    1:   60
           2     158:  180   24:  206    1:   60
           3     158:  180    1:   23    1:   60
           4       1:   21  207:  225    1:   60
           5       1:  157    1:   28    1:   60
           6      22:  180  227:  250    1:   60
           7      22:  180  207:  226    1:   60
           8       1:   21  226:  250    1:   60
New grid distribution:   3
           1       1:  145   25:  190    1:   60
           2       1:  145    1:   24    1:   60
           3     146:  180    1:   27    1:   60
           4       1:   31  221:  250    1:   60
           5     146:  180   28:  190    1:   60
           6      32:  180  191:  227    1:   60
           7      32:  180  228:  250    1:   60
           8       1:   31  191:  220    1:   60
Setting up quadratic distribution...
ExtMesh (bp) on 0 =   265 x   278 x   168 =    12376560
PhiOnMesh: Number of (b)points on node 0 =              1676760
PhiOnMesh: nlist on node 0 =              1712046

stepf: Fermi-Dirac step function

siesta: Program's energy decomposition (eV):
siesta: Ebs     =      -596.597055
siesta: Eions   =      3585.165840
siesta: Ena     =       381.828390
siesta: Ekin    =      3369.280056
siesta: Enl     =     -3297.610602
siesta: Eso     =        -0.003410
siesta: Edftu   =         0.000000
siesta: DEna    =       153.539835
siesta: DUscf   =        81.851545
siesta: DUext   =         0.000000
siesta: Exc     =     -1204.162919
siesta: eta*DQ  =         0.000000
siesta: Emadel  =         0.000000
siesta: Emeta   =         0.000000
siesta: Emolmec =         0.000000
siesta: Ekinion =         0.000000
siesta: Eharris =     -4020.707003
siesta: Etot    =     -4100.442945
siesta: FreeEng =     -4100.443980

        iscf     Eharris(eV)        E_KS(eV)     FreeEng(eV)     dDmax    Ef(eV) dHmax(eV)
   scf:    1    -4020.707003    -4100.442945    -4100.443980  0.965660 -4.903624 22.247382
     spin moment: S , {S} =    2.00583   0.00000   0.00000   2.00583
timer: Routine,Calls,Time,% = IterSCF        1      18.333  26.53
   scf:    2    -4145.518641    -4135.437257    -4135.438396  0.454686 -4.157783 12.075709
     spin moment: S , {S} =    1.99432  -0.00000  -0.00000   1.99432
   scf:    3    -4094.302994    -4129.737152    -4129.767280  0.428700 -4.313019 14.275069
     spin moment: S , {S} =    2.48515   0.00000  -0.00000   2.48515
   scf:    4    -4150.731326    -4144.909496    -4144.909497  0.327263 -3.843442  7.286758
     spin moment: S , {S} =    0.00010   0.00000  -0.00000   0.00010
   scf:    5    -4146.382496    -4145.766091    -4145.766091  0.040381 -3.593912  4.794358
     spin moment: S , {S} =    0.00006   0.00000   0.00000   0.00006
   scf:    6    -4146.522798    -4146.150728    -4146.150728  0.024267 -3.449524  2.465532
     spin moment: S , {S} =    0.00003   0.00000  -0.00000   0.00003
   scf:    7    -4146.525700    -4146.334817    -4146.334817  0.022608 -3.663790  0.919275
     spin moment: S , {S} =    0.00001   0.00000   0.00000   0.00001
   scf:    8    -4146.447499    -4146.389688    -4146.389688  0.012178 -3.599602  0.568249
     spin moment: S , {S} =    0.00000   0.00000   0.00000   0.00000
   scf:    9    -4146.431552    -4146.409918    -4146.409918  0.007307 -3.712466  0.459454
     spin moment: S , {S} =    0.00000   0.00000   0.00000   0.00000
   scf:   10    -4146.465538    -4146.429027    -4146.429027  0.024833 -3.693344  0.275728
     spin moment: S , {S} =    0.00000   0.00000  -0.00000  -0.00000
   scf:   11    -4146.433943    -4146.431564    -4146.431564  0.005762 -3.679793  0.087727
     spin moment: S , {S} =    0.00000   0.00000  -0.00000  -0.00000
   scf:   12    -4146.434025    -4146.432805    -4146.432805  0.001695 -3.673059  0.039427
     spin moment: S , {S} =    0.00000   0.00000  -0.00000  -0.00000
   scf:   13    -4146.433582    -4146.433189    -4146.433189  0.000992 -3.669867  0.025483
     spin moment: S , {S} =    0.00000   0.00000  -0.00000  -0.00000
   scf:   14    -4146.433611    -4146.433392    -4146.433392  0.000813 -3.668247  0.015440
     spin moment: S , {S} =    0.00000   0.00000  -0.00000  -0.00000
   scf:   15    -4146.433578    -4146.433479    -4146.433479  0.000663 -3.667602  0.009108
     spin moment: S , {S} =    0.00000   0.00000  -0.00000  -0.00000
   scf:   16    -4146.433554    -4146.433514    -4146.433514  0.000508 -3.667687  0.004206
     spin moment: S , {S} =    0.00000   0.00000  -0.00000  -0.00000
   scf:   17    -4146.433538    -4146.433525    -4146.433525  0.000330 -3.667756  0.003306
     spin moment: S , {S} =    0.00000   0.00000  -0.00000   0.00000
   scf:   18    -4146.433532    -4146.433528    -4146.433528  0.000181 -3.667935  0.002205
     spin moment: S , {S} =    0.00000   0.00000  -0.00000   0.00000
   scf:   19    -4146.433532    -4146.433530    -4146.433530  0.000156 -3.668148  0.001439
     spin moment: S , {S} =    0.00000   0.00000  -0.00000   0.00000
   scf:   20    -4146.433531    -4146.433530    -4146.433530  0.000078 -3.668190  0.001083
     spin moment: S , {S} =    0.00000   0.00000  -0.00000   0.00000
   scf:   21    -4146.433531    -4146.433530    -4146.433530  0.000093 -3.668213  0.000717
     spin moment: S , {S} =    0.00000   0.00000  -0.00000   0.00000
   scf:   22    -4146.433531    -4146.433531    -4146.433531  0.000083 -3.668188  0.000346
     spin moment: S , {S} =    0.00000   0.00000  -0.00000   0.00000
   scf:   23    -4146.433531    -4146.433531    -4146.433531  0.000050 -3.668170  0.000198
     spin moment: S , {S} =    0.00000   0.00000  -0.00000   0.00000
   scf:   24    -4146.433531    -4146.433531    -4146.433531  0.000017 -3.668170  0.000122
     spin moment: S , {S} =    0.00000   0.00000  -0.00000   0.00000
mix: Pulay -- resetting history
   scf:   25    -4146.433531    -4146.433531    -4146.433531  0.000016 -3.668170  0.000075
     spin moment: S , {S} =    0.00000   0.00000  -0.00000   0.00000
   scf:   26    -4146.433531    -4146.433531    -4146.433531  0.000010 -3.668171  0.000042
     spin moment: S , {S} =    0.00000   0.00000  -0.00000   0.00000
   scf:   27    -4146.433531    -4146.433531    -4146.433531  0.000008 -3.668169  0.000018
     spin moment: S , {S} =    0.00000   0.00000  -0.00000   0.00000
   scf:   28    -4146.433531    -4146.433531    -4146.433531  0.000003 -3.668169  0.000012
     spin moment: S , {S} =    0.00000  -0.00000  -0.00000  -0.00000
   scf:   29    -4146.433531    -4146.433531    -4146.433531  0.000001 -3.668169  0.000007
     spin moment: S , {S} =    0.00000   0.00000  -0.00000  -0.00000
   scf:   30    -4146.433531    -4146.433531    -4146.433531  0.000001 -3.668169  0.000003
     spin moment: S , {S} =    0.00000   0.00000  -0.00000  -0.00000
   scf:   31    -4146.433531    -4146.433531    -4146.433531  0.000000 -3.668169  0.000002
     spin moment: S , {S} =    0.00000   0.00000  -0.00000  -0.00000
   scf:   32    -4146.433531    -4146.433531    -4146.433531  0.000000 -3.668169  0.000001
     spin moment: S , {S} =    0.00000   0.00000  -0.00000  -0.00000
   scf:   33    -4146.433531    -4146.433531    -4146.433531  0.000000 -3.668169  0.000001
     spin moment: S , {S} =    0.00000   0.00000  -0.00000  -0.00000

SCF Convergence by DM+H criterion
max |DM_out - DM_in|         :     0.0000001269
max |H_out - H_in|      (eV) :     0.0000007407
SCF cycle converged after 33 iterations

Using DM_out to compute the final energy and forces
No. of atoms with KB's overlaping orbs in proc 0. Max # of overlaps:      26     142

siesta: E_KS(eV) =            -4146.4335

siesta: E_KS - E_eggbox =     -4146.4335
     spin moment: S , {S} =    0.00000   0.00000  -0.00000  -0.00000

siesta: Atomic forces (eV/Ang):
     1    0.024454   -0.086890   -0.000000
     2   -0.528939    0.295395   -0.000000
     3    0.418014   -0.031528    0.000000
     4   -0.063898    0.011513   -0.000000
     5   -0.207217   -0.211643   -0.000000
     6    0.080641    0.119901   -0.000000
     7    1.184574    1.002075   -0.000000
     8    0.794723   -2.302647   -0.000000
     9   -1.242379    1.732714    0.000000
    10    0.013900   -0.250192   -0.000000
    11   -1.013797   -0.311735    0.000000
    12    1.214277   -0.236306    0.000000
    13    1.131734   -1.441018   -0.000000
    14   -0.014670   -0.033639   -0.000000
    15    0.113780    0.032967    0.000000
    16    0.012824   -0.019808    0.000000
    17   -0.001858    0.047362   -0.000000
    18   -0.039549    0.046313   -0.000000
    19    0.257655    0.026336    0.000000
    20   -1.360706   -0.177571   -0.000000
    21    1.245471   -3.858531   -0.000000
    22    0.342050    0.767596    0.000000
    23    0.212444   -0.590064   -0.000000
    24   -0.329411   -0.953597   -0.000000
    25   -0.481900    1.552467    0.000000
    26    0.838684   -1.198282    0.000000
    27   -0.141329    0.098920   -0.000000
    28    0.046063    0.709205    0.000000
    29   -0.309802   -0.409243    0.000000
----------------------------------------
   Tot    2.195835   -5.669929    0.000000
----------------------------------------
   Max    3.858531
   Res    0.725044    sqrt( Sum f_i^2 / 3N )
----------------------------------------
   Max    3.858531    constrained

Stress tensor Voigt[x,y,z,yz,xz,xy] (kbar):        0.51        0.13       -0.05        0.00       -0.00       -0.49
(Free)E + p*V (eV/cell)    -4148.1135
Target enthalpy (eV/cell)    -4146.4335

siesta: Stress tensor (static) (eV/Ang**3):
         0.000321   -0.000308   -0.000000
        -0.000308    0.000081    0.000000
        -0.000000    0.000000   -0.000029

siesta: Pressure (static):         -0.19938496  kBar

siesta: Stress tensor (total) (eV/Ang**3):
         0.000321   -0.000308   -0.000000
        -0.000308    0.000081    0.000000
        -0.000000    0.000000   -0.000029

siesta: Pressure (total):         -0.19938496  kBar

siesta: Temp_ion =       0.000 K

siesta: Eigenvalues (eV):
ik =     1
  -21.7616  -21.7616  -21.7400  -21.7400  -21.5016  -21.5016  -21.4352  -21.4352  -21.1081  -21.1081
  -20.9681  -20.9681  -20.7220  -20.7220  -19.6983  -19.6983  -19.3059  -19.3059  -19.2309  -19.2309
  -14.6832  -14.6832  -13.7726  -13.7726  -13.2606  -13.2606  -13.0613  -13.0613  -12.9452  -12.9452
  -12.7985  -12.7985  -12.7521  -12.7521  -12.3597  -12.3597  -12.3456  -12.3456  -11.9628  -11.9628
  -11.3091  -11.3091  -10.7379  -10.7379  -10.6402  -10.6402  -10.6159  -10.6159  -10.0106  -10.0106
   -9.4860   -9.4860   -9.1452   -9.1452   -8.7235   -8.7235   -8.6076   -8.6076   -8.5717   -8.5717
   -8.5206   -8.5206   -8.3314   -8.3314   -8.0603   -8.0603   -7.7627   -7.7627   -7.5216   -7.5216
   -7.4965   -7.4965   -7.2042   -7.2042   -7.1547   -7.1547   -6.7664   -6.7664   -6.6705   -6.6705
   -6.4069   -6.4069   -6.3869   -6.3869   -6.0252   -6.0252   -5.9855   -5.9855   -5.9727   -5.9727
   -5.6500   -5.6500   -5.4774   -5.4774   -5.3864   -5.3864   -4.1772   -4.1772   -3.1588   -3.1588
   -2.2318   -2.2318   -2.1865   -2.1865   -2.1658   -2.1658   -1.7899   -1.7899   -1.7768   -1.7768
   -1.7252   -1.7252   -1.7162   -1.7162   -1.5195   -1.5195   -1.4418   -1.4418   -0.8983   -0.8983
   -0.8080   -0.8080   -0.6807   -0.6807   -0.2854   -0.2854   -0.0871   -0.0871    0.1129    0.1129
    0.4578    0.4578    0.5363    0.5363    0.6781    0.6781    0.7757    0.7757    0.9105    0.9105
    1.0336    1.0336    1.3654    1.3654    1.3916    1.3916    1.5019    1.5019    1.5058    1.5058
    1.8450    1.8450    1.9009    1.9009    1.9894    1.9894    2.4380    2.4380    2.8510    2.8510
    2.8625    2.8625    2.8851    2.8851    3.1050    3.1050    3.2254    3.2254    3.4059    3.4059
    3.5071    3.5071    3.8575    3.8575    3.9397    3.9397    4.1697    4.1697    4.3798    4.3798
    4.5023    4.5023    4.5054    4.5054    4.6548    4.6548    4.7157    4.7157    4.9171    4.9171
    4.9982    4.9982    5.0943    5.0943    5.3582    5.3582    5.5767    5.5767    5.8048    5.8048
    5.8393    5.8393    5.8841    5.8841    5.9823    5.9823    6.0364    6.0364    6.1013    6.1013
    6.2532    6.2532    6.4825    6.4825    6.7016    6.7016    6.8081    6.8081    6.9083    6.9083
    7.1130    7.1130    7.2946    7.2946    7.5432    7.5432    7.6379    7.6379    7.8529    7.8529
    7.9003    7.9003    8.0331    8.0331    8.1714    8.1714    8.3624    8.3624    8.3840    8.3840
    8.6212    8.6212    8.8336    8.8336    8.9768    8.9768    8.9891    8.9891    9.2501    9.2501
    9.3110    9.3110    9.3188    9.3188    9.8011    9.8011    9.9108    9.9108    9.9592    9.9592
   10.1696   10.1696   10.2414   10.2414   10.5633   10.5633   10.8603   10.8603   10.9001   10.9001
   11.0745   11.0745   11.0889   11.0889   11.2498   11.2498   11.7448   11.7448   11.8418   11.8418
   11.9159   11.9159   11.9745   11.9745   12.1834   12.1834   12.4890   12.4890   12.7925   12.7925
   12.8038   12.8038   12.9134   12.9134   13.3934   13.3934   13.5439   13.5439   13.7562   13.7562
   13.8778   13.8778   14.1835   14.1835   14.3810   14.3810   14.7436   14.7436   14.8632   14.8632
   14.9446   14.9446   15.4253   15.4253   16.1223   16.1223   16.5724   16.5724   16.7773   16.7773
   17.0353   17.0353   17.4034   17.4034   17.6809   17.6809   18.2799   18.2799   18.5282   18.5282
   18.7238   18.7238   19.2793   19.2793   19.4672   19.4672   20.0056   20.0056   20.3484   20.3484
   21.0494   21.0494   21.3202   21.3202   22.0504   22.0504   22.3154   22.3154   22.4510   22.4510
   22.9697   22.9697   23.3400   23.3400   23.8139   23.8139   23.9260   23.9260   23.9704   23.9704
   24.9246   24.9246   25.4477   25.4477   26.0501   26.0501   26.8154   26.8154   27.5009   27.5009
   28.3345   28.3345   29.0646   29.0646   29.2296   29.2296   29.5076   29.5076   29.7220   29.7220
   30.0767   30.0767   30.1925   30.1925   30.2863   30.2863   30.8088   30.8088   30.9500   30.9500
   31.1298   31.1298   31.2802   31.2802   31.5988   31.5988   31.7034   31.7034   32.2107   32.2107
   32.6464   32.6464   33.9158   33.9158   34.7218   34.7218   34.7229   34.7229   35.0149   35.0149
   35.1317   35.1317   35.1456   35.1456   35.6285   35.6285   35.7283   35.7283   35.9834   35.9834
   36.8354   36.8354   36.9379   36.9379   37.1162   37.1162   37.3712   37.3712   37.6373   37.6373
   38.3075   38.3075   38.4525   38.4525   39.4246   39.4246   39.4727   39.4727   39.8149   39.8149
   40.5084   40.5084   40.6050   40.6050   40.6931   40.6931   40.7122   40.7122   41.0201   41.0201
   41.0471   41.0471   41.3652   41.3652   42.5496   42.5496   42.9564   42.9564   42.9597   42.9597
   43.4391   43.4391   43.8459   43.8459   43.9998   43.9998   44.1032   44.1032   44.4072   44.4072
   44.7673   44.7673   44.7844   44.7844   45.1727   45.1727   45.5255   45.5255   46.1177   46.1177
   46.3537   46.3537   47.1014   47.1014   47.4422   47.4422   48.9401   48.9401   49.1340   49.1340
   49.5489   49.5489   50.4335   50.4335   50.5283   50.5283   51.0576   51.0576   51.1594   51.1594
   51.7069   51.7069   51.7199   51.7199   52.8134   52.8134   52.8188   52.8188   54.2748   54.2748
   54.4010   54.4010   54.5754   54.5754   54.7594   54.7594   55.7750   55.7750   55.8198   55.8198
   55.8526   55.8526   56.1096   56.1096   56.4647   56.4647   58.1137   58.1137   58.4480   58.4480
   58.7091   58.7091   60.2309   60.2309   60.3359   60.3359   60.5889   60.5889   61.1479   61.1479
   61.9148   61.9148   62.0467   62.0467   62.2315   62.2315   64.8355   64.8355   66.6185   66.6185
   66.8782   66.8782   67.2639   67.2639   68.0986   68.0986   68.5971   68.5971   70.9674   70.9674
   73.8748   73.8748   80.2535   80.2535   91.1751   91.1751   92.1156   92.1156   93.3250   93.3250
   98.3625   98.3625   98.5751   98.5751   99.5142   99.5142  103.1206  103.1206  103.7140  103.7140
  110.1659  110.1659  111.6301  111.6301  124.1357  124.1357  126.3123  126.3123  129.2352  129.2352
  135.2070  135.2070  138.3418  138.3418
siesta: Fermi energy =      -3.668169 eV

siesta: Program's energy decomposition (eV):
siesta: Ebs     =     -1124.436783
siesta: Eions   =      3585.165840
siesta: Ena     =       381.828390
siesta: Ekin    =      2902.878641
siesta: Enl     =     -2787.487287
siesta: Eso     =        -0.004277
siesta: Edftu   =         0.000000
siesta: DEna    =        46.883126
siesta: DUscf   =        14.336720
siesta: DUext   =         0.000000
siesta: Exc     =     -1119.703004
siesta: eta*DQ  =         0.000000
siesta: Emadel  =         0.000000
siesta: Emeta   =         0.000000
siesta: Emolmec =         0.000000
siesta: Ekinion =         0.000000
siesta: Eharris =     -4146.433531
siesta: Etot    =     -4146.433531
siesta: FreeEng =     -4146.433531

siesta: Final energy (eV):
siesta:  Band Struct. =   -1124.436783
siesta:       Kinetic =    2902.878641
siesta:       Hartree =   13484.813262
siesta:       Edftu   =       0.000000
siesta:       Eso     =      -0.004277
siesta:    Ext. field =       0.000000
siesta:   Exch.-corr. =   -1119.703004
siesta:  Ion-electron =  -29543.452104
siesta:       Ion-ion =   10129.033951
siesta:       Ekinion =       0.000000
siesta:         Total =   -4146.433531
siesta:         Fermi =      -3.668169

siesta: Atomic forces (eV/Ang):
siesta:      1    0.024454   -0.086890   -0.000000
siesta:      2   -0.528939    0.295395   -0.000000
siesta:      3    0.418014   -0.031528    0.000000
siesta:      4   -0.063898    0.011513   -0.000000
siesta:      5   -0.207217   -0.211643   -0.000000
siesta:      6    0.080641    0.119901   -0.000000
siesta:      7    1.184574    1.002075   -0.000000
siesta:      8    0.794723   -2.302647   -0.000000
siesta:      9   -1.242379    1.732714    0.000000
siesta:     10    0.013900   -0.250192   -0.000000
siesta:     11   -1.013797   -0.311735    0.000000
siesta:     12    1.214277   -0.236306    0.000000
siesta:     13    1.131734   -1.441018   -0.000000
siesta:     14   -0.014670   -0.033639   -0.000000
siesta:     15    0.113780    0.032967    0.000000
siesta:     16    0.012824   -0.019808    0.000000
siesta:     17   -0.001858    0.047362   -0.000000
siesta:     18   -0.039549    0.046313   -0.000000
siesta:     19    0.257655    0.026336    0.000000
siesta:     20   -1.360706   -0.177571   -0.000000
siesta:     21    1.245471   -3.858531   -0.000000
siesta:     22    0.342050    0.767596    0.000000
siesta:     23    0.212444   -0.590064   -0.000000
siesta:     24   -0.329411   -0.953597   -0.000000
siesta:     25   -0.481900    1.552467    0.000000
siesta:     26    0.838684   -1.198282    0.000000
siesta:     27   -0.141329    0.098920   -0.000000
siesta:     28    0.046063    0.709205    0.000000
siesta:     29   -0.309802   -0.409243    0.000000
siesta: ----------------------------------------
siesta:    Tot    2.195835   -5.669929    0.000000

siesta: Stress tensor (static) (eV/Ang**3):
siesta:     0.000321   -0.000308   -0.000000
siesta:    -0.000308    0.000081    0.000000
siesta:    -0.000000    0.000000   -0.000029

siesta: Cell volume =      13500.000000 Ang**3

siesta: Pressure (static):
siesta:                Solid            Molecule  Units
siesta:          -0.00000136         -0.00000102  Ry/Bohr**3
siesta:          -0.00012444         -0.00009402  eV/Ang**3
siesta:          -0.19938496         -0.15064580  kBar
(Free)E+ p_basis*V_orbitals  =       -4126.583113
(Free)Eharris+ p_basis*V_orbitals  =       -4126.583113
     spin moment: S , {S} =    0.00000   0.00000  -0.00000  -0.00000

siesta: Electric dipole (a.u.)  =    0.026103    1.467486    0.000000
siesta: Electric dipole (Debye) =    0.066347    3.729979    0.000000

cite: Please see "GC.bib" for an exhaustive BiBTeX file.
cite: Please clearly indicate Siesta version in published work: v4.1.5-1-g384057250
cite: This calculation has made use of the following articles
cite: which are encouraged to be cited in a published work.
        Primary SIESTA paper
          DOI: www.doi.org/10.1088/0953-8984/14/11/302
        Spin-orbit coupling (on-site approximation)
          DOI: www.doi.org/10.1088/0953-8984/19/19/489001


WARNING: alloc-realloc-dealloc name mismatch
         Name: atomlist isa
         Size:              -116. Bytes
         Node:     0
         Subsequent mismatches will not be reported
>> End of run:   1-FEB-2024  23:04:27
Job completed
