Siesta Version  : v4.1.5-1-g384057250
Architecture    : gcc
Compiler version: GNU Fortran (Ubuntu 11.3.0-1ubuntu1~22.04) 11.3.0
Compiler flags  : mpifort -O2 -fPIC -ftree-vectorize -fallow-argument-mismatch
PP flags        : -DFC_HAVE_ABORT -DMPI -DSIESTA__FLOOK -DSIESTA__METIS -DSIESTA__MUMPS -DCDF -DNCDF -DNCDF_4 -DNCDF_PARALLEL -DSIESTA__MRRR -DSIESTA__ELPA
Libraries       : libncdf.a libfdict.a  -lflookall -ldl -lnetcdff -lnetcdf -lhdf5_hl -lhdf5 -lhdf5_fortran -lz -lscalapack-openmpi -lopenblas -lmetis -lzmumps -lcmumps -ldmumps -lmumps_common -lpord -lsmumps -lesmumps -lscotch -lscotcherr -fopenmp -lelpa
PARALLEL version
NetCDF support
NetCDF-4 support
NetCDF-4 MPI-IO support
METIS ordering support
Lua support

* Running on 4 nodes in parallel
>> Start of run:  22-MAY-2023  17:50:55

                           ***********************       
                           *  WELCOME TO SIESTA  *       
                           ***********************       

reinit: Reading from standard input
reinit: Dumped input in INPUT_TMP.08013
************************** Dump of input data file ****************************
SystemLabel      GC
NumberOfAtoms    29
NumberOfSpecies  4
%block ChemicalSpeciesLabel
    1    8  O
    2    7  N
    3   14  Si
    4    1  H
%endblock ChemicalSpeciesLabel
# Single point calculation
MD.TypeOfRun                CG
MD.Steps                    0
SCF.MustConverge            F # In case it does not. There can be 2 very close atoms
AtomicCoordinatesFormat NotScaledCartesianAng
%block AtomicCoordinatesAndAtomicSpecies
0.854927710    3.902811360    0.000000000       1
-3.151486600   0.823854130    0.000000000       2
1.928518680    1.174000900    0.000000000       2
0.979899500    -1.830275890   0.000000000       2
-2.159258930   -2.028004800   0.000000000       2
3.785319770    -1.112700660   0.000000000       2
-1.345933810   0.976250250    0.000000000       3
-0.599439880   -1.096077170   0.000000000       3
0.453182890    2.350510230    0.000000000       3
2.133302030    -0.576510800   0.000000000       3
-3.516065660   -0.842056510   0.000000000       3
2.824527830    1.754723110    0.000000000       4
-4.877551690   -1.469214660   0.000000000       4
3.994952020    -2.143204000   0.000000000       4
4.620903610    -0.483666060   0.000000000       4
-2.279085180   -3.081514090   0.000000000       4
6.120012753    5.953320775    -0.000000000      3
7.988972243    7.212964405    -0.000000000      3
7.530039863    3.211582555    -0.000000000      3
9.597632583    5.718173775    -0.000000000      3
6.179542703    4.268368315    -0.000000000      2
4.490013553    6.583381005    -0.000000000      2
9.173928733    4.002672965    -0.000000000      2
8.269335943    8.683186925    -0.000000000      4
11.093043963   5.937026315    -0.000000000      4
4.245554563    7.601846955    -0.000000000      4
3.663272373    5.926532875    -0.000000000      4
7.589315623    1.629140525    -0.000000000      1
9.945584323    3.275705605    -0.000000000      4
%endblock AtomicCoordinatesAndAtomicSpecies
%include ../../../Defaults.fdf
************************** End of input data file *****************************

reinit: -----------------------------------------------------------------------
reinit: System Name: 
reinit: -----------------------------------------------------------------------
reinit: System Label: GC
reinit: -----------------------------------------------------------------------

initatom: Reading input for the pseudopotentials and atomic orbitals ----------
Species number:   1 Atomic number:    8 Label: O
Species number:   2 Atomic number:    7 Label: N
Species number:   3 Atomic number:   14 Label: Si
Species number:   4 Atomic number:    1 Label: H

Ground state valence configuration:   2s02  2p04
Reading pseudopotential information in formatted form from O.psf

Pseudopotential generated from a relativistic atomic calculation

Valence configuration for pseudopotential generation:
2s( 2.00) rc: 0.45
2p( 4.00) rc: 0.92
3d( 0.00) rc: 2.24
4f( 0.00) rc: 0.25
Ground state valence configuration:   2s02  2p03
Reading pseudopotential information in formatted form from N.psf

Pseudopotential generated from a relativistic atomic calculation

Valence configuration for pseudopotential generation:
2s( 2.00) rc: 0.94
2p( 3.00) rc: 0.59
3d( 0.00) rc: 3.46
4f( 0.00) rc: 2.47
Ground state valence configuration:   3s02  3p02
Reading pseudopotential information in formatted form from Si.psf

Pseudopotential generated from a relativistic atomic calculation

Valence configuration for pseudopotential generation:
3s( 2.00) rc: 1.67
3p( 2.00) rc: 2.04
3d( 0.00) rc: 2.89
4f( 0.00) rc: 2.49
Ground state valence configuration:   1s01
Reading pseudopotential information in formatted form from H.psf

Pseudopotential generated from a relativistic atomic calculation

Valence configuration for pseudopotential generation:
1s( 1.00) rc: 0.01
2p( 0.00) rc: 0.60
3d( 0.00) rc: 1.99
4f( 0.00) rc: 2.49
For O, standard SIESTA heuristics set lmxkb to 3
 (one more than the basis l, including polarization orbitals).
Use PS.lmax or PS.KBprojectors blocks to override.
For N, standard SIESTA heuristics set lmxkb to 3
 (one more than the basis l, including polarization orbitals).
Use PS.lmax or PS.KBprojectors blocks to override.
For Si, standard SIESTA heuristics set lmxkb to 3
 (one more than the basis l, including polarization orbitals).
Use PS.lmax or PS.KBprojectors blocks to override.
For H, standard SIESTA heuristics set lmxkb to 2
 (one more than the basis l, including polarization orbitals).
Use PS.lmax or PS.KBprojectors blocks to override.

<basis_specs>
===============================================================================
O                    Z=   8    Mass=  16.000        Charge= 0.17977+309
Lmxo=1 Lmxkb= 3    BasisType=split      Semic=F
L=0  Nsemic=0  Cnfigmx=2
          i=1  nzeta=2  polorb=0  (2s)
            splnorm:   0.28000    
               vcte:    0.0000    
               rinn:    0.0000    
               qcoe:    0.0000    
               qyuk:    0.0000    
               qwid:   0.10000E-01
                rcs:    0.0000      0.0000    
            lambdas:    1.0000      1.0000    
L=1  Nsemic=0  Cnfigmx=2
          i=1  nzeta=2  polorb=1  (2p)
            splnorm:   0.28000    
               vcte:    0.0000    
               rinn:    0.0000    
               qcoe:    0.0000    
               qyuk:    0.0000    
               qwid:   0.10000E-01
                rcs:    0.0000      0.0000    
            lambdas:    1.0000      1.0000    
-------------------------------------------------------------------------------
L=0  Nkbl=1  erefs: 0.17977+309
L=1  Nkbl=1  erefs: 0.17977+309
L=2  Nkbl=1  erefs: 0.17977+309
L=3  Nkbl=1  erefs: 0.17977+309
===============================================================================
</basis_specs>

atom: Called for O                     (Z =   8)

read_vps: Pseudopotential generation method:
read_vps: ATM4.2.7  Troullier-Martins                       
Valence charge for ps generation:    6.00000

xc_check: Exchange-correlation functional:
xc_check: GGA Perdew, Burke & Ernzerhof 1996
V l=0 = -2*Zval/r beyond r=  1.1000
V l=1 = -2*Zval/r beyond r=  1.1000
V l=2 = -2*Zval/r beyond r=  2.2154
V l=3 = -2*Zval/r beyond r=  1.1000
All V_l potentials equal beyond r=  2.2154
This should be close to max(r_c) in ps generation
All pots = -2*Zval/r beyond r=  2.2154

VLOCAL1: 99.0% of the norm of Vloc inside      8.845 Ry
VLOCAL1: 99.9% of the norm of Vloc inside     20.157 Ry
atom: Maximum radius for 4*pi*r*r*local-pseudopot. charge    2.67231
atom: Maximum radius for r*vlocal+2*Zval:    2.32897
GHOST: No ghost state for L =  0
GHOST: No ghost state for L =  1
GHOST: No ghost state for L =  2
GHOST: No ghost state for L =  3

KBgen: Kleinman-Bylander projectors: 
   l= 0   rc=  2.243238   el= -1.759686   Ekb=**********   kbcos= -0.171774
   l= 1   rc=  2.328968   el= -0.663873   Ekb=-14.506792   kbcos= -0.519897
   l= 2   rc=  2.573941   el=  0.002031   Ekb= -1.137373   kbcos= -0.019581
   l= 3   rc=  2.606321   el=  0.003153   Ekb= -1.013546   kbcos= -0.003122

KBgen: Total number of Kleinman-Bylander projectors:   16
atom: -------------------------------------------------------------------------

atom: SANKEY-TYPE ORBITALS:
atom: Selected multiple-zeta basis: split     

SPLIT: Orbitals with angular momentum L= 0

SPLIT: Basis orbitals for state 2s

SPLIT: PAO cut-off radius determined from an
SPLIT: energy shift=  0.002000 Ry

   izeta = 1
                 lambda =    1.000000
                     rc =    4.243912
                 energy =   -1.758270
                kinetic =    3.286084
    potential(screened) =   -5.044353
       potential(ionic) =  -12.921184

   izeta = 2
                 rmatch =    2.187845
              splitnorm =    0.280000
                 energy =   -0.885018
                kinetic =    8.134434
    potential(screened) =   -9.019452
       potential(ionic) =  -17.710645

SPLIT: Orbitals with angular momentum L= 1

SPLIT: Basis orbitals for state 2p

SPLIT: PAO cut-off radius determined from an
SPLIT: energy shift=  0.002000 Ry

   izeta = 1
                 lambda =    1.000000
                     rc =    5.314825
                 energy =   -0.661986
                kinetic =    4.917472
    potential(screened) =   -5.579458
       potential(ionic) =  -13.236259

   izeta = 2
                 rmatch =    2.160663
              splitnorm =    0.280000
                 energy =   -0.068760
                kinetic =    9.183374
    potential(screened) =   -9.252135
       potential(ionic) =  -18.274251

POLgen: Perturbative polarization orbital with L=  2

POLgen: Polarization orbital for state 2p

   izeta = 1
                     rc =    5.314825
                 energy =    1.970580
                kinetic =    3.886128
    potential(screened) =   -1.915547
       potential(ionic) =   -7.749584
atom: Total number of Sankey-type orbitals: 13

atm_pop: Valence configuration (for local Pseudopot. screening):
 2s( 2.00)                                                            
 2p( 4.00)                                                            
Vna: chval, zval:    6.00000   6.00000

Vna:  Cut-off radius for the neutral-atom potential:   5.314825

atom: _________________________________________________________________________

<basis_specs>
===============================================================================
N                    Z=   7    Mass=  14.010        Charge= 0.17977+309
Lmxo=1 Lmxkb= 3    BasisType=split      Semic=F
L=0  Nsemic=0  Cnfigmx=2
          i=1  nzeta=2  polorb=0  (2s)
            splnorm:   0.28000    
               vcte:    0.0000    
               rinn:    0.0000    
               qcoe:    0.0000    
               qyuk:    0.0000    
               qwid:   0.10000E-01
                rcs:    0.0000      0.0000    
            lambdas:    1.0000      1.0000    
L=1  Nsemic=0  Cnfigmx=2
          i=1  nzeta=2  polorb=1  (2p)
            splnorm:   0.28000    
               vcte:    0.0000    
               rinn:    0.0000    
               qcoe:    0.0000    
               qyuk:    0.0000    
               qwid:   0.10000E-01
                rcs:    0.0000      0.0000    
            lambdas:    1.0000      1.0000    
-------------------------------------------------------------------------------
L=0  Nkbl=1  erefs: 0.17977+309
L=1  Nkbl=1  erefs: 0.17977+309
L=2  Nkbl=1  erefs: 0.17977+309
L=3  Nkbl=1  erefs: 0.17977+309
===============================================================================
</basis_specs>

atom: Called for N                     (Z =   7)

read_vps: Pseudopotential generation method:
read_vps: ATM4.2.7  Troullier-Martins                       
Valence charge for ps generation:    5.00000

xc_check: Exchange-correlation functional:
xc_check: GGA Perdew, Burke & Ernzerhof 1996
V l=0 = -2*Zval/r beyond r=  1.2889
V l=1 = -2*Zval/r beyond r=  1.2889
V l=2 = -2*Zval/r beyond r=  3.4178
V l=3 = -2*Zval/r beyond r=  2.4084
All V_l potentials equal beyond r=  3.3753
This should be close to max(r_c) in ps generation
All pots = -2*Zval/r beyond r=  3.4178

VLOCAL1: 99.0% of the norm of Vloc inside      3.810 Ry
VLOCAL1: 99.9% of the norm of Vloc inside      8.683 Ry
atom: Maximum radius for 4*pi*r*r*local-pseudopot. charge    4.02088
atom: Maximum radius for r*vlocal+2*Zval:    3.54838
GHOST: No ghost state for L =  0
GHOST: No ghost state for L =  1
GHOST: No ghost state for L =  2
GHOST: No ghost state for L =  3

KBgen: Kleinman-Bylander projectors: 
   l= 0   rc=  3.417763   el= -1.365098   Ekb= -4.433130   kbcos= -0.707855
   l= 1   rc=  3.375302   el= -0.521201   Ekb=-13.264039   kbcos= -0.535594
   l= 2   rc=  3.872880   el=  0.001991   Ekb= -0.641094   kbcos= -0.062456
   l= 3   rc=  3.970931   el=  0.003093   Ekb= -0.474517   kbcos= -0.018236

KBgen: Total number of Kleinman-Bylander projectors:   16
atom: -------------------------------------------------------------------------

atom: SANKEY-TYPE ORBITALS:
atom: Selected multiple-zeta basis: split     

SPLIT: Orbitals with angular momentum L= 0

SPLIT: Basis orbitals for state 2s

SPLIT: PAO cut-off radius determined from an
SPLIT: energy shift=  0.002000 Ry

   izeta = 1
                 lambda =    1.000000
                     rc =    4.730425
                 energy =   -1.363399
                kinetic =    1.245246
    potential(screened) =   -2.608645
       potential(ionic) =   -8.121105

   izeta = 2
                 rmatch =    2.531849
              splitnorm =    0.280000
                 energy =   -0.959908
                kinetic =    2.409435
    potential(screened) =   -3.369343
       potential(ionic) =   -9.427975

SPLIT: Orbitals with angular momentum L= 1

SPLIT: Basis orbitals for state 2p

SPLIT: PAO cut-off radius determined from an
SPLIT: energy shift=  0.002000 Ry

   izeta = 1
                 lambda =    1.000000
                     rc =    5.924108
                 energy =   -0.519262
                kinetic =    3.672940
    potential(screened) =   -4.192202
       potential(ionic) =   -9.518354

   izeta = 2
                 rmatch =    2.531849
              splitnorm =    0.280000
                 energy =   -0.104258
                kinetic =    6.807538
    potential(screened) =   -6.911796
       potential(ionic) =  -13.149920

POLgen: Perturbative polarization orbital with L=  2

POLgen: Polarization orbital for state 2p

   izeta = 1
                     rc =    5.924108
                 energy =    1.427508
                kinetic =    2.872379
    potential(screened) =   -1.444871
       potential(ionic) =   -5.563644
atom: Total number of Sankey-type orbitals: 13

atm_pop: Valence configuration (for local Pseudopot. screening):
 2s( 2.00)                                                            
 2p( 3.00)                                                            
Vna: chval, zval:    5.00000   5.00000

Vna:  Cut-off radius for the neutral-atom potential:   5.924108

atom: _________________________________________________________________________

<basis_specs>
===============================================================================
Si                   Z=  14    Mass=  28.090        Charge= 0.17977+309
Lmxo=1 Lmxkb= 3    BasisType=split      Semic=F
L=0  Nsemic=0  Cnfigmx=3
          i=1  nzeta=2  polorb=0  (3s)
            splnorm:   0.28000    
               vcte:    0.0000    
               rinn:    0.0000    
               qcoe:    0.0000    
               qyuk:    0.0000    
               qwid:   0.10000E-01
                rcs:    0.0000      0.0000    
            lambdas:    1.0000      1.0000    
L=1  Nsemic=0  Cnfigmx=3
          i=1  nzeta=2  polorb=1  (3p)
            splnorm:   0.28000    
               vcte:    0.0000    
               rinn:    0.0000    
               qcoe:    0.0000    
               qyuk:    0.0000    
               qwid:   0.10000E-01
                rcs:    0.0000      0.0000    
            lambdas:    1.0000      1.0000    
-------------------------------------------------------------------------------
L=0  Nkbl=1  erefs: 0.17977+309
L=1  Nkbl=1  erefs: 0.17977+309
L=2  Nkbl=1  erefs: 0.17977+309
L=3  Nkbl=1  erefs: 0.17977+309
===============================================================================
</basis_specs>

atom: Called for Si                    (Z =  14)

read_vps: Pseudopotential generation method:
read_vps: ATM4.2.7  Troullier-Martins                       
Valence charge for ps generation:    4.00000

xc_check: Exchange-correlation functional:
xc_check: GGA Perdew, Burke & Ernzerhof 1996
V l=0 = -2*Zval/r beyond r=  2.7826
V l=1 = -2*Zval/r beyond r=  2.7826
V l=2 = -2*Zval/r beyond r=  2.9253
V l=3 = -2*Zval/r beyond r=  2.7826
All V_l potentials equal beyond r=  2.8530
This should be close to max(r_c) in ps generation
All pots = -2*Zval/r beyond r=  2.9253

VLOCAL1: 99.0% of the norm of Vloc inside      5.333 Ry
VLOCAL1: 99.9% of the norm of Vloc inside     12.154 Ry
atom: Maximum radius for 4*pi*r*r*local-pseudopot. charge    3.39869
atom: Maximum radius for r*vlocal+2*Zval:    2.96205
GHOST: No ghost state for L =  0
GHOST: No ghost state for L =  1
GHOST: No ghost state for L =  2
GHOST: No ghost state for L =  3

KBgen: Kleinman-Bylander projectors: 
   l= 0   rc=  3.075247   el= -0.794092   Ekb=  5.879390   kbcos=  0.167461
   l= 1   rc=  3.153101   el= -0.300068   Ekb=  2.642817   kbcos=  0.058301
   l= 2   rc=  3.273594   el=  0.001958   Ekb= -1.185135   kbcos= -0.104411
   l= 3   rc=  3.232927   el=  0.003046   Ekb= -0.497174   kbcos= -0.015889

KBgen: Total number of Kleinman-Bylander projectors:   16
atom: -------------------------------------------------------------------------

atom: SANKEY-TYPE ORBITALS:
atom: Selected multiple-zeta basis: split     

SPLIT: Orbitals with angular momentum L= 0

SPLIT: Basis orbitals for state 3s

SPLIT: PAO cut-off radius determined from an
SPLIT: energy shift=  0.002000 Ry

   izeta = 1
                 lambda =    1.000000
                     rc =    6.429618
                 energy =   -0.792283
                kinetic =    0.525293
    potential(screened) =   -1.317576
       potential(ionic) =   -3.744923

   izeta = 2
                 rmatch =    3.998416
              splitnorm =    0.280000
                 energy =   -0.583081
                kinetic =    1.069570
    potential(screened) =   -1.652651
       potential(ionic) =   -4.235185

SPLIT: Orbitals with angular momentum L= 1

SPLIT: Basis orbitals for state 3p

SPLIT: PAO cut-off radius determined from an
SPLIT: energy shift=  0.002000 Ry

   izeta = 1
                 lambda =    1.000000
                     rc =    8.464845
                 energy =   -0.298236
                kinetic =    0.785360
    potential(screened) =   -1.083596
       potential(ionic) =   -3.273779

   izeta = 2
                 rmatch =    4.587816
              splitnorm =    0.280000
                 energy =   -0.131871
                kinetic =    1.403687
    potential(screened) =   -1.535557
       potential(ionic) =   -4.015310

POLgen: Perturbative polarization orbital with L=  2

POLgen: Polarization orbital for state 3p

   izeta = 1
                     rc =    8.464845
                 energy =    0.321949
                kinetic =    1.055677
    potential(screened) =   -0.733728
       potential(ionic) =   -2.672950
atom: Total number of Sankey-type orbitals: 13

atm_pop: Valence configuration (for local Pseudopot. screening):
 3s( 2.00)                                                            
 3p( 2.00)                                                            
Vna: chval, zval:    4.00000   4.00000

Vna:  Cut-off radius for the neutral-atom potential:   8.464845

atom: _________________________________________________________________________

<basis_specs>
===============================================================================
H                    Z=   1    Mass=  1.0100        Charge= 0.17977+309
Lmxo=0 Lmxkb= 2    BasisType=split      Semic=F
L=0  Nsemic=0  Cnfigmx=1
          i=1  nzeta=2  polorb=1  (1s)
            splnorm:   0.62000    
               vcte:    0.0000    
               rinn:    0.0000    
               qcoe:    0.0000    
               qyuk:    0.0000    
               qwid:   0.10000E-01
                rcs:    0.0000      0.0000    
            lambdas:    1.0000      1.0000    
-------------------------------------------------------------------------------
L=0  Nkbl=1  erefs: 0.17977+309
L=1  Nkbl=1  erefs: 0.17977+309
L=2  Nkbl=1  erefs: 0.17977+309
===============================================================================
</basis_specs>

atom: Called for H                     (Z =   1)

read_vps: Pseudopotential generation method:
read_vps: ATM4.2.7  Troullier-Martins                       
Valence charge for ps generation:    1.00000

xc_check: Exchange-correlation functional:
xc_check: GGA Perdew, Burke & Ernzerhof 1996
V l=0 = -2*Zval/r beyond r=  0.0098
V l=1 = -2*Zval/r beyond r=  0.5817
V l=2 = -2*Zval/r beyond r=  1.9372
All V_l potentials equal beyond r=  1.9372
This should be close to max(r_c) in ps generation
All pots = -2*Zval/r beyond r=  1.9372

VLOCAL1: 99.0% of the norm of Vloc inside     11.567 Ry
VLOCAL1: 99.9% of the norm of Vloc inside     26.362 Ry
atom: Maximum radius for 4*pi*r*r*local-pseudopot. charge    2.25106
atom: Maximum radius for r*vlocal+2*Zval:    1.91306
GHOST: No ghost state for L =  0
GHOST: No ghost state for L =  1
GHOST: No ghost state for L =  2

KBgen: Kleinman-Bylander projectors: 
   l= 0   rc=  2.036604   el= -0.477180   Ekb= -6.081590   kbcos= -0.277285
   l= 1   rc=  2.195416   el=  0.001076   Ekb= -0.926943   kbcos= -0.034643
   l= 2   rc=  2.251056   el=  0.002010   Ekb= -0.130941   kbcos= -0.009788

KBgen: Total number of Kleinman-Bylander projectors:    9
atom: -------------------------------------------------------------------------

atom: SANKEY-TYPE ORBITALS:
atom: Selected multiple-zeta basis: split     

SPLIT: Orbitals with angular momentum L= 0

SPLIT: Basis orbitals for state 1s

SPLIT: PAO cut-off radius determined from an
SPLIT: energy shift=  0.002000 Ry

   izeta = 1
                 lambda =    1.000000
                     rc =    6.518340
                 energy =   -0.475305
                kinetic =    0.912139
    potential(screened) =   -1.387444
       potential(ionic) =   -1.907295

   izeta = 2
                 rmatch =    2.141150
              splitnorm =    0.620000
                 energy =    0.566467
                kinetic =    3.772856
    potential(screened) =   -3.206389
       potential(ionic) =   -3.759093

POLgen: Perturbative polarization orbital with L=  1

POLgen: Polarization orbital for state 1s

   izeta = 1
                     rc =    6.518340
                 energy =    0.533861
                kinetic =    1.121086
    potential(screened) =   -0.587225
       potential(ionic) =   -1.053027
atom: Total number of Sankey-type orbitals:  5

atm_pop: Valence configuration (for local Pseudopot. screening):
 1s( 1.00)                                                            
Vna: chval, zval:    1.00000   1.00000

Vna:  Cut-off radius for the neutral-atom potential:   6.518340

atom: _________________________________________________________________________

prinput: Basis input ----------------------------------------------------------

PAO.BasisType split     

%block ChemicalSpeciesLabel
    1    8 O                       # Species index, atomic number, species label
    2    7 N                       # Species index, atomic number, species label
    3   14 Si                      # Species index, atomic number, species label
    4    1 H                       # Species index, atomic number, species label
%endblock ChemicalSpeciesLabel

%block PAO.Basis                 # Define Basis set
O                     2                    # Species label, number of l-shells
 n=2   0   2                         # n, l, Nzeta 
   4.244      2.188   
   1.000      1.000   
 n=2   1   2 P   1                   # n, l, Nzeta, Polarization, NzetaPol
   5.315      2.161   
   1.000      1.000   
N                     2                    # Species label, number of l-shells
 n=2   0   2                         # n, l, Nzeta 
   4.730      2.532   
   1.000      1.000   
 n=2   1   2 P   1                   # n, l, Nzeta, Polarization, NzetaPol
   5.924      2.532   
   1.000      1.000   
Si                    2                    # Species label, number of l-shells
 n=3   0   2                         # n, l, Nzeta 
   6.430      3.998   
   1.000      1.000   
 n=3   1   2 P   1                   # n, l, Nzeta, Polarization, NzetaPol
   8.465      4.588   
   1.000      1.000   
H                     1                    # Species label, number of l-shells
 n=1   0   2 P   1                   # n, l, Nzeta, Polarization, NzetaPol
   6.518      2.141   
   1.000      1.000   
%endblock PAO.Basis

prinput: ----------------------------------------------------------------------

Dumping basis to NetCDF file O.ion.nc
Dumping basis to NetCDF file N.ion.nc
Dumping basis to NetCDF file Si.ion.nc
Dumping basis to NetCDF file H.ion.nc
coor:   Atomic-coordinates input format  =     Cartesian coordinates
coor:                                          (in Angstroms)

siesta: Atomic coordinates (Bohr) and species
siesta:      1.61558   7.37525   0.00000  1        1
siesta:     -5.95545   1.55686   0.00000  2        2
siesta:      3.64437   2.21854   0.00000  2        3
siesta:      1.85174  -3.45872   0.00000  2        4
siesta:     -4.08041  -3.83238   0.00000  2        5
siesta:      7.15322  -2.10270   0.00000  2        6
siesta:     -2.54345   1.84485   0.00000  3        7
siesta:     -1.13278  -2.07129   0.00000  3        8
siesta:      0.85639   4.44182   0.00000  3        9
siesta:      4.03136  -1.08945   0.00000  3       10
siesta:     -6.64440  -1.59126   0.00000  3       11
siesta:      5.33759   3.31595   0.00000  4       12
siesta:     -9.21724  -2.77641   0.00000  4       13
siesta:      7.54937  -4.05007   0.00000  4       14
siesta:      8.73225  -0.91400   0.00000  4       15
siesta:     -4.30685  -5.82322   0.00000  4       16
siesta:     11.56515  11.25015  -0.00000  3       17
siesta:     15.09698  13.63053  -0.00000  3       18
siesta:     14.22972   6.06901  -0.00000  3       19
siesta:     18.13690  10.80579  -0.00000  3       20
siesta:     11.67765   8.06605  -0.00000  2       21
siesta:      8.48490  12.44079  -0.00000  2       22
siesta:     17.33622   7.56396  -0.00000  2       23
siesta:     15.62679  16.40885  -0.00000  4       24
siesta:     20.96282  11.21936  -0.00000  4       25
siesta:      8.02294  14.36541  -0.00000  4       26
siesta:      6.92258  11.19953  -0.00000  4       27
siesta:     14.34173   3.07863  -0.00000  1       28
siesta:     18.79444   6.19019  -0.00000  4       29

siesta: Automatic unit cell vectors (Ang):
siesta:   25.156238    0.000000    0.000000
siesta:    0.000000   20.529754    0.000000
siesta:    0.000000    0.000000    9.854683

siesta: System type = molecule  

initatomlists: Number of atoms, orbitals, and projectors:     29   297   394

siesta: ******************** Simulation parameters ****************************
siesta:
siesta: The following are some of the parameters of the simulation.
siesta: A complete list of the parameters used, including default values,
siesta: can be found in file out.fdf
siesta:
redata: Spin configuration                          = spin-orbit
redata: Number of spin components                   = 8
redata: Time-Reversal Symmetry                      = F
redata: Spin spiral                                 = F
############################################################
This spin-orbit implementation uses a local approximation.
From 4.2 and onwards the full non-local approximation is implemented
You are strongly advised to use >=4.2 versions!
############################################################
redata: Long output                                 =   F
redata: Number of Atomic Species                    =        4
redata: Charge density info will appear in .RHO file
redata: Write Mulliken Pop.                         = Atomic and Orbital charges
redata: Matel table size (NRTAB)                    =     1024
redata: Mesh Cutoff                                 =   340.0000 Ry
redata: Net charge of the system                    =     0.0000 |e|
redata: Min. number of SCF Iter                     =        1
redata: Max. number of SCF Iter                     =      200
redata: SCF mix quantity                            = Hamiltonian
redata: Mix DM or H after convergence               =   F
redata: Recompute H after scf cycle                 =   F
redata: Mix DM in first SCF step                    =   T
redata: Write Pulay info on disk                    =   F
redata: New DM Occupancy tolerance                  = 0.000000000001
redata: No kicks to SCF
redata: DM Mixing Weight for Kicks                  =     0.5000
redata: Require Harris convergence for SCF          =   F
redata: Harris energy tolerance for SCF             =     0.000100 eV
redata: Require DM convergence for SCF              =   T
redata: DM tolerance for SCF                        =     0.000008
redata: Require EDM convergence for SCF             =   F
redata: EDM tolerance for SCF                       =     0.001000 eV
redata: Require H convergence for SCF               =   T
redata: Hamiltonian tolerance for SCF               =     0.000001 eV
redata: Require (free) Energy convergence for SCF   =   F
redata: (free) Energy tolerance for SCF             =     0.000100 eV
redata: Using Saved Data (generic)                  =   F
redata: Use continuation files for DM               =   F
redata: Neglect nonoverlap interactions             =   F
redata: Method of Calculation                       = Diagonalization
redata: Electronic Temperature                      =   299.9978 K
redata: Fix the spin of the system                  =   F
redata: Dynamics option                             = Single-point calculation
mix.SCF: Pulay mixing                            = Pulay
mix.SCF:    Variant                              = stable
mix.SCF:    History steps                        = 6
mix.SCF:    Linear mixing weight                 =     0.250000
mix.SCF:    Mixing weight                        =     0.250000
mix.SCF:    SVD condition                        = 0.1000E-07
mix.SCF:    Restart steps                        = 24
mix.SCF:    Restart save steps                   = 3
mix.SCF: Spin-component mixing                   all
redata: Save all siesta data in one NC              =   F
redata: ***********************************************************************

%block SCF.Mixers
  Pulay
%endblock SCF.Mixers

%block SCF.Mixer.Pulay
  # Mixing method
  method pulay
  variant stable

  # Mixing options
  weight 0.2500
  weight.linear 0.2500
  history 6
  restart 24
  restart.save 3
%endblock SCF.Mixer.Pulay

DM_history_depth set to one: no extrapolation allowed by default for geometry relaxation
Size of DM history Fstack: 1
Total number of electrons:    98.000000
Total ionic charge:    98.000000

* ProcessorY, Blocksize:    2  24


* Orbital distribution balance (max,min):    81    72


Time-reversal symmetry not used.

siesta: k-grid: Number of k-points =     1
siesta: k-grid: Cutoff (effective) =     4.927 Ang
siesta: k-grid: Supercell and displacements
siesta: k-grid:    1   0   0      0.000
siesta: k-grid:    0   1   0      0.000
siesta: k-grid:    0   0   1      0.000

diag: Algorithm                                     = ELPA-1stage
diag: Parallel over k                               =   F
diag: Use parallel 2D distribution                  =   T
diag: Parallel block-size                           = 24
diag: Parallel distribution                         =     2 x     2
diag: Used triangular part                          = Lower
diag: Absolute tolerance                            =  0.100E-15
diag: Orthogonalization factor                      =  0.100E-05
diag: Memory factor                                 =  1.0000


ts: **************************************************************
ts: Save H and S matrices                           =    F
ts: Save DM and EDM matrices                        =    F
ts: Only save the overlap matrix S                  =    F
ts: **************************************************************

************************ Begin: TS CHECKS AND WARNINGS ************************
************************ End: TS CHECKS AND WARNINGS **************************


                     ====================================
                        Single-point calculation
                     ====================================

outcoor: Atomic coordinates (Ang):                          
    0.85492771    3.90281136    0.00000000   1       1  O
   -3.15148660    0.82385413    0.00000000   2       2  N
    1.92851868    1.17400090    0.00000000   2       3  N
    0.97989950   -1.83027589    0.00000000   2       4  N
   -2.15925893   -2.02800480    0.00000000   2       5  N
    3.78531977   -1.11270066    0.00000000   2       6  N
   -1.34593381    0.97625025    0.00000000   3       7  Si
   -0.59943988   -1.09607717    0.00000000   3       8  Si
    0.45318289    2.35051023    0.00000000   3       9  Si
    2.13330203   -0.57651080    0.00000000   3      10  Si
   -3.51606566   -0.84205651    0.00000000   3      11  Si
    2.82452783    1.75472311    0.00000000   4      12  H
   -4.87755169   -1.46921466    0.00000000   4      13  H
    3.99495202   -2.14320400    0.00000000   4      14  H
    4.62090361   -0.48366606    0.00000000   4      15  H
   -2.27908518   -3.08151409    0.00000000   4      16  H
    6.12001275    5.95332077    0.00000000   3      17  Si
    7.98897224    7.21296441    0.00000000   3      18  Si
    7.53003986    3.21158256    0.00000000   3      19  Si
    9.59763258    5.71817378    0.00000000   3      20  Si
    6.17954270    4.26836832    0.00000000   2      21  N
    4.49001355    6.58338100    0.00000000   2      22  N
    9.17392873    4.00267297    0.00000000   2      23  N
    8.26933594    8.68318692    0.00000000   4      24  H
   11.09304396    5.93702631    0.00000000   4      25  H
    4.24555456    7.60184696    0.00000000   4      26  H
    3.66327237    5.92653288    0.00000000   4      27  H
    7.58931562    1.62914052    0.00000000   1      28  O
    9.94558432    3.27570561    0.00000000   4      29  H

outcell: Unit cell vectors (Ang):
       25.156238    0.000000    0.000000
        0.000000   20.529754    0.000000
        0.000000    0.000000    9.854683

outcell: Cell vector modules (Ang)   :   25.156238   20.529754    9.854683
outcell: Cell angles (23,13,12) (deg):     90.0000     90.0000     90.0000
outcell: Cell volume (Ang**3)        :   5089.4647
<dSpData1D:S at geom step 0
  <sparsity:sparsity for geom step 0
    nrows_g=297 nrows=81 sparsity=.1888 nnzs=16656, refcount: 8>
  <dData1D:(new from dSpData1D) n=16656, refcount: 1>
refcount: 1>
new_DM -- step:     1
Initializing Density Matrix...
DM filled with atomic data:
<dSpData2D:DM initialized from atoms
  <sparsity:sparsity for geom step 0
    nrows_g=297 nrows=81 sparsity=.1888 nnzs=16656, refcount: 9>
  <dData2D:DM n=16656 m=8, refcount: 1>
refcount: 1>
     spin moment: S , {S} =   56.00000   0.00000   0.00000  56.00000
No. of atoms with KB's overlaping orbs in proc 0. Max # of overlaps:      29     162

Initializing spin-orbit part of the Hamiltonian
  Adding spin-orbit effects for O 
  Adding spin-orbit effects for N 
  Adding spin-orbit effects for Si
  Adding spin-orbit effects for H 


New grid distribution:   1
           1       1:  144    1:   60    1:   30
           2       1:  144    1:   60   31:   60
           3       1:  144   61:  120    1:   30
           4       1:  144   61:  120   31:   60

InitMesh: MESH =   288 x   240 x   120 =     8294400
InitMesh: (bp) =   144 x   120 x    60 =     1036800
InitMesh: Mesh cutoff (required, used) =   340.000   362.239 Ry
ExtMesh (bp) on 0 =   248 x   168 x   142 =     5916288
New grid distribution:   2
           1      43:  144    1:   32    1:   60
           2       1:   42    1:   31    1:   60
           3      43:  144   33:  120    1:   60
           4       1:   42   32:  120    1:   60
New grid distribution:   3
           1      49:  144    1:   37    1:   60
           2       1:   48    1:   40    1:   60
           3      49:  144   38:  120    1:   60
           4       1:   48   41:  120    1:   60
Setting up quadratic distribution...
ExtMesh (bp) on 0 =   206 x   140 x   172 =     4960480
PhiOnMesh: Number of (b)points on node 0 =               195840
PhiOnMesh: nlist on node 0 =              2620223

stepf: Fermi-Dirac step function

siesta: Program's energy decomposition (eV):
siesta: Ebs     =      -614.376764
siesta: Eions   =      3585.165840
siesta: Ena     =       384.946715
siesta: Ekin    =      3376.333636
siesta: Enl     =     -3308.106781
siesta: Eso     =        -0.003378
siesta: Edftu   =         0.000000
siesta: DEna    =       154.674392
siesta: DUscf   =        81.800586
siesta: DUext   =         0.000000
siesta: Exc     =     -1205.375506
siesta: eta*DQ  =         0.000000
siesta: Emadel  =         0.000000
siesta: Emeta   =         0.000000
siesta: Emolmec =         0.000000
siesta: Ekinion =         0.000000
siesta: Eharris =     -4021.729330
siesta: Etot    =     -4100.896176
siesta: FreeEng =     -4100.897680

        iscf     Eharris(eV)        E_KS(eV)     FreeEng(eV)     dDmax    Ef(eV) dHmax(eV)
   scf:    1    -4021.729330    -4100.896176    -4100.897680  0.964882 -4.889174 21.529649
     spin moment: S , {S} =    2.00785  -0.00000   0.00000   2.00785
timer: Routine,Calls,Time,% = IterSCF        1      13.072  17.91
   scf:    2    -4149.055102    -4136.935655    -4136.939896  0.460722 -4.222912 11.668605
     spin moment: S , {S} =    1.96871  -0.00000  -0.00000   1.96871
   scf:    3    -4111.083805    -4134.780352    -4134.801807  0.433040 -4.331779 11.401513
     spin moment: S , {S} =    2.01885   0.00000   0.00000   2.01885
   scf:    4    -4149.952816    -4145.464242    -4145.464242  0.290735 -3.937522  5.972221
     spin moment: S , {S} =    0.00010   0.00000  -0.00000   0.00010
   scf:    5    -4146.712360    -4146.192062    -4146.192062  0.037831 -3.733762  4.129353
     spin moment: S , {S} =    0.00006   0.00000  -0.00000   0.00006
   scf:    6    -4146.935596    -4146.570782    -4146.570782  0.024071 -3.560189  2.085018
     spin moment: S , {S} =    0.00003   0.00000   0.00000   0.00003
   scf:    7    -4146.926043    -4146.746121    -4146.746121  0.022153 -3.725547  0.887582
     spin moment: S , {S} =    0.00001   0.00000  -0.00000   0.00001
   scf:    8    -4146.864903    -4146.803662    -4146.803662  0.012337 -3.642437  0.494223
     spin moment: S , {S} =    0.00000  -0.00000  -0.00000   0.00000
   scf:    9    -4146.844054    -4146.823123    -4146.823123  0.006958 -3.779913  0.341581
     spin moment: S , {S} =    0.00000  -0.00000   0.00000   0.00000
   scf:   10    -4146.873317    -4146.842952    -4146.842952  0.019832 -3.806039  0.208185
     spin moment: S , {S} =    0.00000   0.00000   0.00000  -0.00000
   scf:   11    -4146.846313    -4146.844563    -4146.844563  0.005761 -3.798953  0.053199
     spin moment: S , {S} =    0.00000  -0.00000  -0.00000  -0.00000
   scf:   12    -4146.845423    -4146.845006    -4146.845006  0.001201 -3.795425  0.025306
     spin moment: S , {S} =    0.00000   0.00000  -0.00000   0.00000
   scf:   13    -4146.845400    -4146.845198    -4146.845198  0.001484 -3.791488  0.017938
     spin moment: S , {S} =    0.00000   0.00000   0.00000   0.00000
   scf:   14    -4146.845450    -4146.845316    -4146.845316  0.001396 -3.789360  0.014327
     spin moment: S , {S} =    0.00000   0.00000   0.00000   0.00000
   scf:   15    -4146.845458    -4146.845381    -4146.845381  0.001256 -3.789122  0.010532
     spin moment: S , {S} =    0.00000   0.00000   0.00000   0.00000
   scf:   16    -4146.845481    -4146.845424    -4146.845424  0.001312 -3.789137  0.006695
     spin moment: S , {S} =    0.00000   0.00000  -0.00000   0.00000
   scf:   17    -4146.845457    -4146.845438    -4146.845438  0.000768 -3.789176  0.004415
     spin moment: S , {S} =    0.00000   0.00000  -0.00000   0.00000
   scf:   18    -4146.845450    -4146.845443    -4146.845443  0.000468 -3.789176  0.002326
     spin moment: S , {S} =    0.00000   0.00000  -0.00000   0.00000
   scf:   19    -4146.845448    -4146.845445    -4146.845445  0.000293 -3.789207  0.001233
     spin moment: S , {S} =    0.00000   0.00000  -0.00000   0.00000
   scf:   20    -4146.845446    -4146.845445    -4146.845445  0.000143 -3.789205  0.000694
     spin moment: S , {S} =    0.00000   0.00000  -0.00000   0.00000
   scf:   21    -4146.845446    -4146.845446    -4146.845446  0.000126 -3.789218  0.000331
     spin moment: S , {S} =    0.00000  -0.00000   0.00000   0.00000
   scf:   22    -4146.845446    -4146.845446    -4146.845446  0.000052 -3.789224  0.000175
     spin moment: S , {S} =    0.00000  -0.00000  -0.00000   0.00000
   scf:   23    -4146.845446    -4146.845446    -4146.845446  0.000012 -3.789228  0.000126
     spin moment: S , {S} =    0.00000  -0.00000  -0.00000   0.00000
   scf:   24    -4146.845446    -4146.845446    -4146.845446  0.000005 -3.789229  0.000101
     spin moment: S , {S} =    0.00000  -0.00000   0.00000   0.00000
mix: Pulay -- resetting history
   scf:   25    -4146.845446    -4146.845446    -4146.845446  0.000005 -3.789229  0.000070
     spin moment: S , {S} =    0.00000   0.00000   0.00000  -0.00000
   scf:   26    -4146.845446    -4146.845446    -4146.845446  0.000006 -3.789228  0.000046
     spin moment: S , {S} =    0.00000   0.00000  -0.00000   0.00000
   scf:   27    -4146.845446    -4146.845446    -4146.845446  0.000004 -3.789227  0.000032
     spin moment: S , {S} =    0.00000   0.00000  -0.00000   0.00000
   scf:   28    -4146.845446    -4146.845446    -4146.845446  0.000005 -3.789227  0.000014
     spin moment: S , {S} =    0.00000   0.00000  -0.00000   0.00000
   scf:   29    -4146.845446    -4146.845446    -4146.845446  0.000001 -3.789227  0.000008
     spin moment: S , {S} =    0.00000   0.00000  -0.00000   0.00000
   scf:   30    -4146.845446    -4146.845446    -4146.845446  0.000001 -3.789227  0.000003
     spin moment: S , {S} =    0.00000  -0.00000  -0.00000   0.00000
   scf:   31    -4146.845446    -4146.845446    -4146.845446  0.000001 -3.789227  0.000001
     spin moment: S , {S} =    0.00000  -0.00000  -0.00000   0.00000
   scf:   32    -4146.845446    -4146.845446    -4146.845446  0.000000 -3.789227  0.000001
     spin moment: S , {S} =    0.00000  -0.00000  -0.00000   0.00000

SCF Convergence by DM+H criterion
max |DM_out - DM_in|         :     0.0000002127
max |H_out - H_in|      (eV) :     0.0000007744
SCF cycle converged after 32 iterations

Using DM_out to compute the final energy and forces
No. of atoms with KB's overlaping orbs in proc 0. Max # of overlaps:      29     162

siesta: E_KS(eV) =            -4146.8454

siesta: E_KS - E_eggbox =     -4146.8454
     spin moment: S , {S} =    0.00000  -0.00000  -0.00000   0.00000

siesta: Atomic forces (eV/Ang):
     1    3.446392    1.663494    0.000000
     2   -0.019741   -0.008282    0.000000
     3   -0.132236    0.082217   -0.000000
     4   -0.139433   -0.039357   -0.000000
     5   -0.002120   -0.010474   -0.000000
     6   -0.148394   -0.000085    0.000000
     7   -0.009886    0.024392   -0.000000
     8    0.096602   -0.002906   -0.000000
     9    0.111513   -0.142209    0.000000
    10    0.291951    0.010029   -0.000000
    11   -0.024723    0.029371    0.000000
    12   -0.094468   -0.053385   -0.000000
    13   -0.052635    0.170716   -0.000000
    14    0.088233    0.041158    0.000000
    15    0.294151    0.112387    0.000000
    16    0.189625    0.189466    0.000000
    17   -0.230654    0.116214    0.000000
    18    0.035736   -0.032141    0.000000
    19   -0.000769    0.221458   -0.000000
    20   -0.019303    0.059156    0.000000
    21    0.066591   -0.197350    0.000000
    22    0.180349   -0.030503   -0.000000
    23   -0.022072   -0.105145    0.000000
    24   -0.016810    0.096610   -0.000000
    25   -0.096929   -0.027859   -0.000000
    26   -0.010441    0.168520    0.000000
    27   -0.017087   -0.110774    0.000000
    28    1.591427   -0.826202   -0.000000
    29    0.101861   -0.020948    0.000000
----------------------------------------
   Tot    5.456731    1.377569    0.000000
----------------------------------------
   Max    3.446392
   Res    0.461925    sqrt( Sum f_i^2 / 3N )
----------------------------------------
   Max    3.446392    constrained

Stress tensor Voigt[x,y,z,yz,xz,xy] (kbar):        0.39        0.12       -0.10       -0.00       -0.00        0.48
(Free)E + p*V (eV/cell)    -4147.2713
Target enthalpy (eV/cell)    -4146.8454

mulliken: Atomic and Orbital Populations:

Species: O                   

Atom      Orb        Charge      Spin       Svec
----------------------------------------------------------------
    1  1 2s         1.74450   0.00000     -0.000  -0.000   0.000
    1  2 2s         0.06647   0.00000      0.000   0.000   0.000
    1  3 2py        1.43594   0.00000     -0.000   0.000   0.000
    1  4 2pz        1.54972   0.00000     -0.000   0.000   0.000
    1  5 2px        1.62020   0.00000     -0.000  -0.000  -0.000
    1  6 2py        0.03875   0.00000      0.000  -0.000   0.000
    1  7 2pz       -0.00519   0.00000      0.000   0.000   0.000
    1  8 2px        0.00513   0.00000     -0.000  -0.000   0.000
    1  9 3Pdxy      0.00725   0.00000      0.000   0.000   0.000
    1 10 3Pdyz      0.00925   0.00000      0.000  -0.000  -0.000
    1 11 3Pdz2      0.00165   0.00000      0.000   0.000   0.000
    1 12 3Pdxz      0.00040   0.00000      0.000  -0.000   0.000
    1 13 3Pdx2-y2   0.00702   0.00000      0.000  -0.000   0.000
    1     Total     6.48108   0.00000     -0.000   0.000   0.000

   28  1 2s         1.73121   0.00000      0.000   0.000   0.000
   28  2 2s         0.07362   0.00000     -0.000  -0.000   0.000
   28  3 2py        1.42767   0.00000     -0.000  -0.000   0.000
   28  4 2pz        1.54414   0.00000     -0.000   0.000   0.000
   28  5 2px        1.63417   0.00000      0.000   0.000  -0.000
   28  6 2py        0.04210   0.00000     -0.000   0.000   0.000
   28  7 2pz       -0.00204   0.00000     -0.000  -0.000   0.000
   28  8 2px        0.01303   0.00000     -0.000  -0.000   0.000
   28  9 3Pdxy      0.00695   0.00000     -0.000   0.000   0.000
   28 10 3Pdyz      0.01020   0.00000     -0.000   0.000  -0.000
   28 11 3Pdz2      0.00124   0.00000      0.000  -0.000  -0.000
   28 12 3Pdxz     -0.00017   0.00000     -0.000  -0.000  -0.000
   28 13 3Pdx2-y2   0.00773   0.00000      0.000   0.000   0.000
   28     Total     6.48986   0.00000     -0.000  -0.000   0.000

----------------------------------------------------------------
Total              12.97094   0.00000     -0.000   0.000   0.000


Species: N                   

Atom      Orb        Charge      Spin       Svec
----------------------------------------------------------------
    2  1 2s         1.54942   0.00000      0.000  -0.000  -0.000
    2  2 2s         0.08442   0.00000     -0.000   0.000   0.000
    2  3 2py        1.03213   0.00000     -0.000  -0.000  -0.000
    2  4 2pz        1.22394   0.00000      0.000  -0.000  -0.000
    2  5 2px        1.00618   0.00000     -0.000   0.000  -0.000
    2  6 2py        0.19260   0.00000      0.000   0.000   0.000
    2  7 2pz        0.05452   0.00000     -0.000   0.000   0.000
    2  8 2px        0.19063   0.00000      0.000  -0.000   0.000
    2  9 3Pdxy      0.00841   0.00000      0.000  -0.000   0.000
    2 10 3Pdyz      0.01082   0.00000     -0.000   0.000   0.000
    2 11 3Pdz2      0.00195   0.00000     -0.000   0.000   0.000
    2 12 3Pdxz      0.00754   0.00000     -0.000   0.000   0.000
    2 13 3Pdx2-y2   0.00891   0.00000     -0.000   0.000  -0.000
    2     Total     5.37147   0.00000      0.000  -0.000  -0.000

    3  1 2s         1.40535   0.00000      0.000   0.000  -0.000
    3  2 2s         0.11524   0.00000     -0.000  -0.000   0.000
    3  3 2py        0.94032   0.00000      0.000   0.000  -0.000
    3  4 2pz        1.53892   0.00000      0.000   0.000  -0.000
    3  5 2px        1.09943   0.00000      0.000  -0.000   0.000
    3  6 2py        0.24808   0.00000      0.000  -0.000   0.000
    3  7 2pz        0.00821   0.00000     -0.000   0.000   0.000
    3  8 2px        0.16857   0.00000      0.000   0.000   0.000
    3  9 3Pdxy      0.00422   0.00000      0.000   0.000   0.000
    3 10 3Pdyz      0.00411   0.00000     -0.000  -0.000  -0.000
    3 11 3Pdz2      0.00081   0.00000      0.000   0.000  -0.000
    3 12 3Pdxz      0.00263   0.00000      0.000  -0.000  -0.000
    3 13 3Pdx2-y2   0.00298   0.00000     -0.000  -0.000  -0.000
    3     Total     5.53885   0.00000      0.000   0.000  -0.000

    4  1 2s         1.46902   0.00000     -0.000  -0.000   0.000
    4  2 2s         0.11669   0.00000      0.000   0.000   0.000
    4  3 2py        1.10451   0.00000     -0.000  -0.000   0.000
    4  4 2pz        1.29284   0.00000     -0.000   0.000   0.000
    4  5 2px        0.84185   0.00000     -0.000   0.000  -0.000
    4  6 2py        0.15579   0.00000      0.000   0.000   0.000
    4  7 2pz        0.05355   0.00000      0.000   0.000   0.000
    4  8 2px        0.28654   0.00000     -0.000  -0.000   0.000
    4  9 3Pdxy      0.00856   0.00000     -0.000  -0.000  -0.000
    4 10 3Pdyz      0.01079   0.00000      0.000  -0.000  -0.000
    4 11 3Pdz2      0.00132   0.00000     -0.000  -0.000   0.000
    4 12 3Pdxz      0.00492   0.00000      0.000  -0.000  -0.000
    4 13 3Pdx2-y2   0.00852   0.00000      0.000   0.000  -0.000
    4     Total     5.35490   0.00000     -0.000   0.000   0.000

    5  1 2s         1.37339   0.00000     -0.000   0.000  -0.000
    5  2 2s         0.12904   0.00000      0.000  -0.000   0.000
    5  3 2py        1.02647   0.00000     -0.000   0.000  -0.000
    5  4 2pz        1.50096   0.00000     -0.000  -0.000  -0.000
    5  5 2px        1.05904   0.00000      0.000  -0.000  -0.000
    5  6 2py        0.20358   0.00000      0.000  -0.000   0.000
    5  7 2pz        0.01353   0.00000      0.000   0.000   0.000
    5  8 2px        0.20249   0.00000      0.000   0.000   0.000
    5  9 3Pdxy      0.00369   0.00000     -0.000   0.000  -0.000
    5 10 3Pdyz      0.00249   0.00000      0.000   0.000   0.000
    5 11 3Pdz2      0.00137   0.00000     -0.000  -0.000   0.000
    5 12 3Pdxz      0.00683   0.00000      0.000  -0.000   0.000
    5 13 3Pdx2-y2   0.00571   0.00000      0.000   0.000   0.000
    5     Total     5.52858   0.00000     -0.000  -0.000  -0.000

    6  1 2s         1.26567   0.00000     -0.000   0.000  -0.000
    6  2 2s         0.18062   0.00000      0.000  -0.000   0.000
    6  3 2py        1.08226   0.00000      0.000  -0.000  -0.000
    6  4 2pz        1.57233   0.00000     -0.000   0.000  -0.000
    6  5 2px        0.97381   0.00000      0.000  -0.000  -0.000
    6  6 2py        0.18722   0.00000     -0.000  -0.000   0.000
    6  7 2pz        0.02932   0.00000      0.000   0.000   0.000
    6  8 2px        0.25248   0.00000     -0.000   0.000   0.000
    6  9 3Pdxy      0.00247   0.00000     -0.000  -0.000   0.000
    6 10 3Pdyz      0.00011   0.00000      0.000  -0.000  -0.000
    6 11 3Pdz2      0.00162   0.00000     -0.000  -0.000   0.000
    6 12 3Pdxz      0.00292   0.00000      0.000  -0.000  -0.000
    6 13 3Pdx2-y2   0.00305   0.00000     -0.000   0.000   0.000
    6     Total     5.55389   0.00000      0.000   0.000  -0.000

   21  1 2s         1.40860   0.00000      0.000   0.000   0.000
   21  2 2s         0.13350   0.00000     -0.000  -0.000  -0.000
   21  3 2py        0.87280   0.00000     -0.000   0.000  -0.000
   21  4 2pz        1.29608   0.00000      0.000   0.000   0.000
   21  5 2px        1.15800   0.00000      0.000   0.000  -0.000
   21  6 2py        0.28046   0.00000      0.000  -0.000   0.000
   21  7 2pz        0.04962   0.00000     -0.000   0.000   0.000
   21  8 2px        0.16418   0.00000     -0.000  -0.000   0.000
   21  9 3Pdxy      0.00641   0.00000      0.000  -0.000   0.000
   21 10 3Pdyz      0.00511   0.00000      0.000  -0.000  -0.000
   21 11 3Pdz2     -0.00005   0.00000      0.000  -0.000   0.000
   21 12 3Pdxz      0.00583   0.00000      0.000  -0.000  -0.000
   21 13 3Pdx2-y2   0.00559   0.00000     -0.000  -0.000  -0.000
   21     Total     5.38614   0.00000      0.000   0.000   0.000

   22  1 2s         1.28522   0.00000      0.000   0.000   0.000
   22  2 2s         0.17205   0.00000     -0.000  -0.000  -0.000
   22  3 2py        1.07235   0.00000     -0.000   0.000  -0.000
   22  4 2pz        1.55432   0.00000     -0.000   0.000  -0.000
   22  5 2px        1.00550   0.00000      0.000   0.000  -0.000
   22  6 2py        0.19294   0.00000      0.000  -0.000   0.000
   22  7 2pz        0.02785   0.00000      0.000  -0.000   0.000
   22  8 2px        0.23215   0.00000     -0.000  -0.000   0.000
   22  9 3Pdxy      0.00337   0.00000     -0.000  -0.000   0.000
   22 10 3Pdyz      0.00012   0.00000     -0.000   0.000  -0.000
   22 11 3Pdz2      0.00252   0.00000      0.000   0.000   0.000
   22 12 3Pdxz      0.00286   0.00000      0.000  -0.000  -0.000
   22 13 3Pdx2-y2   0.00336   0.00000      0.000  -0.000  -0.000
   22     Total     5.55461   0.00000      0.000   0.000  -0.000

   23  1 2s         1.39658   0.00000     -0.000   0.000  -0.000
   23  2 2s         0.11788   0.00000      0.000  -0.000  -0.000
   23  3 2py        0.99681   0.00000      0.000   0.000  -0.000
   23  4 2pz        1.52068   0.00000      0.000  -0.000  -0.000
   23  5 2px        1.07450   0.00000      0.000   0.000  -0.000
   23  6 2py        0.22122   0.00000     -0.000   0.000   0.000
   23  7 2pz        0.00531   0.00000     -0.000  -0.000   0.000
   23  8 2px        0.19227   0.00000     -0.000  -0.000   0.000
   23  9 3Pdxy      0.00525   0.00000      0.000   0.000   0.000
   23 10 3Pdyz      0.00451   0.00000     -0.000   0.000  -0.000
   23 11 3Pdz2      0.00055   0.00000     -0.000   0.000  -0.000
   23 12 3Pdxz      0.00230   0.00000      0.000   0.000  -0.000
   23 13 3Pdx2-y2   0.00119   0.00000     -0.000   0.000  -0.000
   23     Total     5.53905   0.00000      0.000   0.000  -0.000

----------------------------------------------------------------
Total              56.79844   0.00000      0.000   0.000  -0.000


Species: Si                  

Atom      Orb        Charge      Spin       Svec
----------------------------------------------------------------
    7  1 3s         0.68895   0.00000      0.000   0.000   0.000
    7  2 3s         0.35769   0.00000     -0.000  -0.000   0.000
    7  3 3py        0.47517   0.00000     -0.000  -0.000   0.000
    7  4 3pz        0.70257   0.00000      0.000   0.000   0.000
    7  5 3px        0.13658   0.00000     -0.000   0.000  -0.000
    7  6 3py        0.27132   0.00000      0.000   0.000   0.000
    7  7 3pz        0.25763   0.00000     -0.000   0.000   0.000
    7  8 3px        0.42192   0.00000     -0.000  -0.000   0.000
    7  9 3Pdxy      0.24264   0.00000     -0.000  -0.000   0.000
    7 10 3Pdyz      0.03025   0.00000     -0.000   0.000   0.000
    7 11 3Pdz2      0.01205   0.00000      0.000   0.000   0.000
    7 12 3Pdxz      0.13843   0.00000     -0.000   0.000  -0.000
    7 13 3Pdx2-y2   0.11316   0.00000      0.000   0.000   0.000
    7     Total     3.84837   0.00000     -0.000   0.000   0.000

    8  1 3s         0.64790   0.00000      0.000  -0.000   0.000
    8  2 3s         0.37138   0.00000      0.000  -0.000  -0.000
    8  3 3py        0.38731   0.00000      0.000  -0.000  -0.000
    8  4 3pz        0.52323   0.00000      0.000  -0.000  -0.000
    8  5 3px       -0.03100   0.00000     -0.000   0.000   0.000
    8  6 3py        0.30445   0.00000     -0.000   0.000   0.000
    8  7 3pz        0.20278   0.00000      0.000  -0.000   0.000
    8  8 3px        0.52025   0.00000     -0.000  -0.000   0.000
    8  9 3Pdxy      0.25911   0.00000      0.000  -0.000   0.000
    8 10 3Pdyz      0.11045   0.00000      0.000  -0.000  -0.000
    8 11 3Pdz2      0.01322   0.00000      0.000  -0.000   0.000
    8 12 3Pdxz      0.15630   0.00000      0.000  -0.000   0.000
    8 13 3Pdx2-y2   0.18817   0.00000      0.000  -0.000  -0.000
    8     Total     3.65356   0.00000      0.000  -0.000   0.000

    9  1 3s         0.62923   0.00000     -0.000   0.000   0.000
    9  2 3s         0.35606   0.00000     -0.000   0.000  -0.000
    9  3 3py        0.08694   0.00000      0.000  -0.000  -0.000
    9  4 3pz        0.48323   0.00000     -0.000  -0.000  -0.000
    9  5 3px        0.37242   0.00000      0.000   0.000  -0.000
    9  6 3py        0.43737   0.00000     -0.000   0.000   0.000
    9  7 3pz        0.18369   0.00000      0.000   0.000  -0.000
    9  8 3px        0.26766   0.00000     -0.000  -0.000   0.000
    9  9 3Pdxy      0.31299   0.00000      0.000  -0.000   0.000
    9 10 3Pdyz      0.19245   0.00000     -0.000  -0.000  -0.000
    9 11 3Pdz2      0.01595   0.00000     -0.000  -0.000  -0.000
    9 12 3Pdxz      0.08908   0.00000      0.000  -0.000  -0.000
    9 13 3Pdx2-y2   0.15563   0.00000      0.000   0.000  -0.000
    9     Total     3.58269   0.00000      0.000  -0.000  -0.000

   10  1 3s         0.48225   0.00000      0.000   0.000   0.000
   10  2 3s         0.38030   0.00000     -0.000  -0.000   0.000
   10  3 3py        0.23853   0.00000     -0.000   0.000   0.000
   10  4 3pz        0.40886   0.00000     -0.000  -0.000   0.000
   10  5 3px        0.10252   0.00000     -0.000  -0.000  -0.000
   10  6 3py        0.33589   0.00000      0.000  -0.000   0.000
   10  7 3pz        0.22096   0.00000     -0.000  -0.000   0.000
   10  8 3px        0.42322   0.00000      0.000   0.000   0.000
   10  9 3Pdxy      0.16305   0.00000      0.000   0.000  -0.000
   10 10 3Pdyz      0.14805   0.00000     -0.000  -0.000   0.000
   10 11 3Pdz2      0.01121   0.00000      0.000   0.000   0.000
   10 12 3Pdxz      0.17042   0.00000      0.000  -0.000   0.000
   10 13 3Pdx2-y2   0.32102   0.00000      0.000  -0.000  -0.000
   10     Total     3.40627   0.00000      0.000  -0.000   0.000

   11  1 3s         0.55858   0.00000     -0.000  -0.000   0.000
   11  2 3s         0.38189   0.00000      0.000   0.000  -0.000
   11  3 3py        0.30456   0.00000      0.000   0.000   0.000
   11  4 3pz        0.54434   0.00000      0.000   0.000   0.000
   11  5 3px        0.13901   0.00000     -0.000   0.000   0.000
   11  6 3py        0.30279   0.00000      0.000   0.000   0.000
   11  7 3pz        0.17664   0.00000     -0.000  -0.000   0.000
   11  8 3px        0.43156   0.00000      0.000  -0.000   0.000
   11  9 3Pdxy      0.24383   0.00000     -0.000  -0.000   0.000
   11 10 3Pdyz      0.12489   0.00000     -0.000  -0.000   0.000
   11 11 3Pdz2      0.00940   0.00000     -0.000  -0.000   0.000
   11 12 3Pdxz      0.05277   0.00000      0.000  -0.000   0.000
   11 13 3Pdx2-y2   0.18389   0.00000     -0.000  -0.000   0.000
   11     Total     3.45417   0.00000     -0.000   0.000   0.000

   17  1 3s         0.64734   0.00000      0.000   0.000   0.000
   17  2 3s         0.35840   0.00000     -0.000  -0.000  -0.000
   17  3 3py        0.24811   0.00000      0.000  -0.000   0.000
   17  4 3pz        0.42517   0.00000     -0.000   0.000   0.000
   17  5 3px        0.22810   0.00000     -0.000  -0.000   0.000
   17  6 3py        0.37037   0.00000     -0.000   0.000  -0.000
   17  7 3pz        0.21353   0.00000      0.000  -0.000   0.000
   17  8 3px        0.37754   0.00000      0.000   0.000  -0.000
   17  9 3Pdxy      0.29480   0.00000     -0.000  -0.000  -0.000
   17 10 3Pdyz      0.13899   0.00000     -0.000  -0.000   0.000
   17 11 3Pdz2      0.00968   0.00000      0.000  -0.000   0.000
   17 12 3Pdxz      0.14785   0.00000     -0.000   0.000   0.000
   17 13 3Pdx2-y2   0.16994   0.00000     -0.000  -0.000  -0.000
   17     Total     3.62981   0.00000     -0.000  -0.000   0.000

   18  1 3s         0.74614   0.00000     -0.000  -0.000   0.000
   18  2 3s         0.33844   0.00000      0.000   0.000   0.000
   18  3 3py        0.08740   0.00000      0.000   0.000   0.000
   18  4 3pz        0.82854   0.00000      0.000  -0.000   0.000
   18  5 3px        0.54548   0.00000     -0.000  -0.000   0.000
   18  6 3py        0.51459   0.00000     -0.000  -0.000   0.000
   18  7 3pz        0.19754   0.00000     -0.000  -0.000   0.000
   18  8 3px        0.25253   0.00000      0.000   0.000   0.000
   18  9 3Pdxy      0.10875   0.00000      0.000   0.000  -0.000
   18 10 3Pdyz      0.02776   0.00000      0.000  -0.000  -0.000
   18 11 3Pdz2      0.00935   0.00000     -0.000  -0.000  -0.000
   18 12 3Pdxz      0.02930   0.00000      0.000  -0.000  -0.000
   18 13 3Pdx2-y2   0.10618   0.00000     -0.000   0.000  -0.000
   18     Total     3.79199   0.00000      0.000  -0.000   0.000

   19  1 3s         0.45582   0.00000      0.000   0.000  -0.000
   19  2 3s         0.36466   0.00000      0.000  -0.000  -0.000
   19  3 3py        0.08117   0.00000     -0.000  -0.000  -0.000
   19  4 3pz        0.41901   0.00000      0.000  -0.000  -0.000
   19  5 3px        0.34889   0.00000     -0.000  -0.000   0.000
   19  6 3py        0.46908   0.00000      0.000   0.000  -0.000
   19  7 3pz        0.18659   0.00000      0.000   0.000  -0.000
   19  8 3px        0.24264   0.00000      0.000   0.000  -0.000
   19  9 3Pdxy      0.34900   0.00000     -0.000   0.000   0.000
   19 10 3Pdyz      0.19057   0.00000      0.000   0.000  -0.000
   19 11 3Pdz2      0.01580   0.00000      0.000   0.000  -0.000
   19 12 3Pdxz      0.08583   0.00000      0.000  -0.000  -0.000
   19 13 3Pdx2-y2   0.23024   0.00000      0.000  -0.000   0.000
   19     Total     3.43928   0.00000      0.000  -0.000  -0.000

   20  1 3s         0.67345   0.00000     -0.000  -0.000  -0.000
   20  2 3s         0.37968   0.00000      0.000   0.000  -0.000
   20  3 3py        0.33753   0.00000     -0.000   0.000  -0.000
   20  4 3pz        0.58181   0.00000     -0.000   0.000  -0.000
   20  5 3px        0.13858   0.00000      0.000   0.000   0.000
   20  6 3py        0.29004   0.00000      0.000  -0.000   0.000
   20  7 3pz        0.16322   0.00000      0.000  -0.000  -0.000
   20  8 3px        0.49925   0.00000     -0.000  -0.000   0.000
   20  9 3Pdxy      0.10259   0.00000     -0.000   0.000  -0.000
   20 10 3Pdyz      0.13474   0.00000     -0.000  -0.000  -0.000
   20 11 3Pdz2      0.00734   0.00000     -0.000   0.000   0.000
   20 12 3Pdxz      0.02684   0.00000      0.000  -0.000  -0.000
   20 13 3Pdx2-y2   0.17106   0.00000      0.000   0.000   0.000
   20     Total     3.50613   0.00000     -0.000   0.000  -0.000

----------------------------------------------------------------
Total              89.11072   0.00000     -0.000  -0.000   0.000


Species: H                   

Atom      Orb        Charge      Spin       Svec
----------------------------------------------------------------
   12  1 1s         0.48715   0.00000     -0.000  -0.000  -0.000
   12  2 1s         0.18621   0.00000      0.000   0.000  -0.000
   12  3 2Ppy       0.02873   0.00000      0.000   0.000  -0.000
   12  4 2Ppz       0.03470   0.00000      0.000   0.000  -0.000
   12  5 2Ppx       0.02347   0.00000      0.000   0.000  -0.000
   12     Total     0.76026   0.00000     -0.000   0.000  -0.000

   13  1 1s         1.02044   0.00000      0.000  -0.000  -0.000
   13  2 1s         0.09475   0.00000     -0.000   0.000   0.000
   13  3 2Ppy       0.01983   0.00000      0.000  -0.000  -0.000
   13  4 2Ppz       0.02018   0.00000     -0.000   0.000   0.000
   13  5 2Ppx       0.03316   0.00000     -0.000   0.000   0.000
   13     Total     1.18836   0.00000      0.000  -0.000  -0.000

   14  1 1s         0.46542   0.00000     -0.000   0.000  -0.000
   14  2 1s         0.19971   0.00000      0.000  -0.000   0.000
   14  3 2Ppy       0.01843   0.00000     -0.000   0.000  -0.000
   14  4 2Ppz       0.04716   0.00000      0.000   0.000   0.000
   14  5 2Ppx       0.01740   0.00000     -0.000  -0.000  -0.000
   14     Total     0.74812   0.00000     -0.000   0.000  -0.000

   15  1 1s         0.45942   0.00000     -0.000   0.000   0.000
   15  2 1s         0.20026   0.00000      0.000  -0.000   0.000
   15  3 2Ppy       0.00543   0.00000      0.000   0.000   0.000
   15  4 2Ppz       0.04591   0.00000      0.000  -0.000  -0.000
   15  5 2Ppx       0.02917   0.00000      0.000  -0.000  -0.000
   15     Total     0.74019   0.00000     -0.000  -0.000   0.000

   16  1 1s         0.50821   0.00000      0.000  -0.000  -0.000
   16  2 1s         0.18771   0.00000     -0.000   0.000   0.000
   16  3 2Ppy       0.03006   0.00000      0.000  -0.000  -0.000
   16  4 2Ppz       0.03951   0.00000     -0.000   0.000  -0.000
   16  5 2Ppx       0.02319   0.00000     -0.000   0.000  -0.000
   16     Total     0.78868   0.00000     -0.000  -0.000  -0.000

   24  1 1s         1.05761   0.00000     -0.000   0.000  -0.000
   24  2 1s         0.07612   0.00000      0.000   0.000   0.000
   24  3 2Ppy       0.03152   0.00000      0.000  -0.000   0.000
   24  4 2Ppz       0.03130   0.00000      0.000   0.000  -0.000
   24  5 2Ppx       0.01754   0.00000      0.000   0.000  -0.000
   24     Total     1.21409   0.00000     -0.000   0.000  -0.000

   25  1 1s         1.04771   0.00000      0.000  -0.000  -0.000
   25  2 1s         0.08406   0.00000     -0.000   0.000   0.000
   25  3 2Ppy       0.01170   0.00000     -0.000   0.000  -0.000
   25  4 2Ppz       0.01792   0.00000      0.000   0.000  -0.000
   25  5 2Ppx       0.03641   0.00000      0.000  -0.000   0.000
   25     Total     1.19779   0.00000      0.000  -0.000  -0.000

   26  1 1s         0.47591   0.00000      0.000   0.000  -0.000
   26  2 1s         0.19890   0.00000     -0.000   0.000   0.000
   26  3 2Ppy       0.01885   0.00000      0.000  -0.000   0.000
   26  4 2Ppz       0.05130   0.00000      0.000   0.000  -0.000
   26  5 2Ppx       0.01613   0.00000     -0.000  -0.000  -0.000
   26     Total     0.76109   0.00000      0.000   0.000  -0.000

   27  1 1s         0.45900   0.00000      0.000   0.000   0.000
   27  2 1s         0.19773   0.00000     -0.000  -0.000   0.000
   27  3 2Ppy       0.00667   0.00000     -0.000  -0.000   0.000
   27  4 2Ppz       0.04125   0.00000     -0.000   0.000   0.000
   27  5 2Ppx       0.03070   0.00000      0.000  -0.000  -0.000
   27     Total     0.73534   0.00000     -0.000   0.000   0.000

   29  1 1s         0.48356   0.00000     -0.000  -0.000  -0.000
   29  2 1s         0.18839   0.00000      0.000  -0.000   0.000
   29  3 2Ppy       0.02516   0.00000      0.000   0.000  -0.000
   29  4 2Ppz       0.03430   0.00000     -0.000   0.000  -0.000
   29  5 2Ppx       0.02395   0.00000      0.000  -0.000  -0.000
   29     Total     0.75535   0.00000     -0.000  -0.000  -0.000

----------------------------------------------------------------
Total              98.00000   0.00000     -0.000  -0.000   0.000


siesta: Eigenvalues (eV):
ik =     1
  -22.1174  -22.1174  -21.9026  -21.9026  -21.5914  -21.5914  -21.4089  -21.4089  -21.2880  -21.2880
  -21.1189  -21.1189  -20.7222  -20.7222  -19.7975  -19.7975  -19.5136  -19.5136  -19.3610  -19.3610
  -14.7287  -14.7287  -13.8592  -13.8592  -13.2921  -13.2921  -13.1460  -13.1460  -13.0259  -13.0259
  -12.7793  -12.7793  -12.6909  -12.6909  -12.3736  -12.3736  -12.2925  -12.2925  -11.9639  -11.9639
  -11.3397  -11.3397  -10.7813  -10.7813  -10.7037  -10.7037  -10.6126  -10.6126  -10.0953  -10.0953
   -9.5839   -9.5839   -9.1339   -9.1339   -8.9555   -8.9555   -8.7487   -8.7487   -8.6299   -8.6299
   -8.5587   -8.5587   -8.4317   -8.4317   -8.1457   -8.1457   -7.8105   -7.8105   -7.7811   -7.7811
   -7.6702   -7.6702   -7.4275   -7.4275   -7.2136   -7.2136   -6.8222   -6.8222   -6.7427   -6.7427
   -6.5849   -6.5849   -6.5236   -6.5236   -6.2684   -6.2684   -6.2043   -6.2043   -6.1797   -6.1797
   -6.0471   -6.0471   -5.9074   -5.9074   -5.4740   -5.4740   -4.3611   -4.3611   -3.2220   -3.2220
   -2.3871   -2.3871   -2.2795   -2.2795   -2.2528   -2.2528   -1.9576   -1.9576   -1.8788   -1.8788
   -1.8147   -1.8147   -1.7822   -1.7822   -1.6049   -1.6049   -1.4239   -1.4239   -1.2345   -1.2345
   -0.9925   -0.9925   -0.7401   -0.7401   -0.4390   -0.4390   -0.2291   -0.2291    0.2794    0.2794
    0.3476    0.3476    0.3957    0.3957    0.6906    0.6906    0.7192    0.7192    0.9341    0.9341
    1.1949    1.1949    1.3031    1.3031    1.4086    1.4086    1.4431    1.4431    1.5606    1.5606
    1.7881    1.7881    1.9356    1.9356    2.2830    2.2830    2.5135    2.5135    2.6539    2.6539
    2.7142    2.7142    2.9546    2.9546    3.0034    3.0034    3.2379    3.2379    3.3422    3.3422
    3.5063    3.5063    3.7759    3.7759    3.9501    3.9501    4.1210    4.1210    4.3840    4.3840
    4.4827    4.4827    4.5419    4.5419    4.5986    4.5986    4.7437    4.7437    4.8161    4.8161
    4.8411    4.8411    5.1865    5.1865    5.2633    5.2633    5.5768    5.5768    5.6135    5.6135
    5.6876    5.6876    5.7892    5.7892    5.9595    5.9595    6.0945    6.0945    6.2227    6.2227
    6.2592    6.2592    6.3574    6.3574    6.5725    6.5725    6.6494    6.6494    6.8551    6.8551
    7.1426    7.1426    7.1529    7.1529    7.3142    7.3142    7.5901    7.5901    7.7337    7.7337
    7.8628    7.8628    8.0542    8.0542    8.0981    8.0981    8.2274    8.2274    8.3842    8.3842
    8.6036    8.6036    8.7170    8.7170    8.7868    8.7868    8.9425    8.9425    9.2025    9.2025
    9.2231    9.2231    9.3764    9.3764    9.7634    9.7634    9.7663    9.7663    9.7765    9.7765
    9.8657    9.8657   10.1793   10.1793   10.3745   10.3745   10.8452   10.8452   10.9148   10.9148
   10.9834   10.9834   11.0611   11.0611   11.3389   11.3389   11.7447   11.7447   12.0313   12.0313
   12.0931   12.0931   12.1349   12.1349   12.1678   12.1678   12.3672   12.3672   12.5050   12.5050
   12.7727   12.7727   12.8374   12.8374   13.4610   13.4610   13.5866   13.5866   13.8143   13.8143
   13.9071   13.9071   14.0177   14.0177   14.1626   14.1626   14.2918   14.2918   14.6965   14.6965
   15.0072   15.0072   15.5100   15.5100   15.8578   15.8578   16.2525   16.2525   16.7481   16.7481
   16.9473   16.9473   17.3601   17.3601   17.9946   17.9946   18.3588   18.3588   18.4940   18.4940
   18.5443   18.5443   19.3056   19.3056   19.4866   19.4866   20.1608   20.1608   20.2005   20.2005
   21.0255   21.0255   21.1960   21.1960   21.8361   21.8361   22.2930   22.2930   22.5699   22.5699
   23.0351   23.0351   23.2650   23.2650   23.5780   23.5780   23.9353   23.9353   23.9752   23.9752
   24.7754   24.7754   24.8523   24.8523   26.2415   26.2415   26.9586   26.9586   28.5624   28.5624
   28.8584   28.8584   29.1773   29.1773   29.4919   29.4919   29.9405   29.9406   30.0651   30.0651
   30.2210   30.2210   30.4342   30.4342   30.6681   30.6681   30.9871   30.9871   31.1538   31.1538
   31.1601   31.1601   31.5174   31.5174   31.8571   31.8571   32.1915   32.1915   32.2668   32.2668
   33.4639   33.4639   34.2686   34.2686   34.4033   34.4033   34.4674   34.4674   34.6583   34.6583
   34.9479   34.9479   35.1890   35.1890   35.3343   35.3343   35.4737   35.4737   35.8335   35.8335
   36.8992   36.8992   36.9425   36.9425   37.4040   37.4040   37.5398   37.5398   37.9585   37.9585
   38.2316   38.2316   38.7742   38.7742   39.3303   39.3303   39.3631   39.3631   40.0131   40.0131
   40.2830   40.2830   40.7279   40.7279   40.7711   40.7711   40.8304   40.8304   41.3625   41.3625
   41.7052   41.7052   42.1705   42.1705   42.9616   42.9616   43.2381   43.2381   43.2426   43.2426
   43.4726   43.4726   43.8276   43.8276   44.0275   44.0275   44.2054   44.2054   44.4012   44.4012
   44.7342   44.7342   44.9551   44.9551   45.0699   45.0699   45.5504   45.5504   46.2329   46.2329
   46.7020   46.7020   47.2259   47.2259   47.4139   47.4139   48.9998   48.9998   49.2602   49.2602
   49.8718   49.8718   50.4296   50.4296   50.9797   50.9797   51.0620   51.0620   51.3009   51.3009
   51.6781   51.6781   51.8486   51.8486   52.3993   52.3993   53.3813   53.3813   54.6688   54.6688
   54.6860   54.6860   55.2156   55.2156   55.5939   55.5939   55.8556   55.8556   55.9851   55.9852
   56.5018   56.5018   56.9090   56.9090   57.1150   57.1150   58.3714   58.3714   59.2409   59.2409
   59.8884   59.8884   60.3692   60.3692   60.5125   60.5125   61.3042   61.3042   61.8598   61.8598
   61.9642   61.9642   62.5123   62.5123   63.2027   63.2027   64.4807   64.4807   66.4344   66.4344
   67.2814   67.2814   67.5563   67.5563   68.9130   68.9130   69.0431   69.0431   70.7173   70.7173
   73.6463   73.6463   81.6790   81.6790   90.3041   90.3041   91.7070   91.7070   93.5229   93.5229
   98.3703   98.3703   99.6045   99.6045  100.9375  100.9375  103.4172  103.4172  103.8032  103.8032
  110.6051  110.6051  111.9335  111.9335  123.9205  123.9205  126.2635  126.2635  131.2729  131.2729
  140.0458  140.0458  141.4423  141.4423
siesta: Fermi energy =      -3.789227 eV

siesta: Program's energy decomposition (eV):
siesta: Ebs     =     -1135.424831
siesta: Eions   =      3585.165840
siesta: Ena     =       384.946715
siesta: Ekin    =      2907.820197
siesta: Enl     =     -2795.408495
siesta: Eso     =        -0.004254
siesta: Edftu   =         0.000000
siesta: DEna    =        47.540647
siesta: DUscf   =        14.278504
siesta: DUext   =         0.000000
siesta: Exc     =     -1120.852920
siesta: eta*DQ  =         0.000000
siesta: Emadel  =         0.000000
siesta: Emeta   =         0.000000
siesta: Emolmec =         0.000000
siesta: Ekinion =         0.000000
siesta: Eharris =     -4146.845446
siesta: Etot    =     -4146.845446
siesta: FreeEng =     -4146.845446

siesta: Final energy (eV):
siesta:  Band Struct. =   -1135.424831
siesta:       Kinetic =    2907.820197
siesta:       Hartree =    8405.259038
siesta:       Edftu   =       0.000000
siesta:       Eso     =      -0.004254
siesta:    Ext. field =       0.000000
siesta:   Exch.-corr. =   -1120.852920
siesta:  Ion-electron =  -19398.769150
siesta:       Ion-ion =    5059.701643
siesta:       Ekinion =       0.000000
siesta:         Total =   -4146.845446
siesta:         Fermi =      -3.789227

siesta: Atomic forces (eV/Ang):
siesta:      1    3.446392    1.663494    0.000000
siesta:      2   -0.019741   -0.008282    0.000000
siesta:      3   -0.132236    0.082217   -0.000000
siesta:      4   -0.139433   -0.039357   -0.000000
siesta:      5   -0.002120   -0.010474   -0.000000
siesta:      6   -0.148394   -0.000085    0.000000
siesta:      7   -0.009886    0.024392   -0.000000
siesta:      8    0.096602   -0.002906   -0.000000
siesta:      9    0.111513   -0.142209    0.000000
siesta:     10    0.291951    0.010029   -0.000000
siesta:     11   -0.024723    0.029371    0.000000
siesta:     12   -0.094468   -0.053385   -0.000000
siesta:     13   -0.052635    0.170716   -0.000000
siesta:     14    0.088233    0.041158    0.000000
siesta:     15    0.294151    0.112387    0.000000
siesta:     16    0.189625    0.189466    0.000000
siesta:     17   -0.230654    0.116214    0.000000
siesta:     18    0.035736   -0.032141    0.000000
siesta:     19   -0.000769    0.221458   -0.000000
siesta:     20   -0.019303    0.059156    0.000000
siesta:     21    0.066591   -0.197350    0.000000
siesta:     22    0.180349   -0.030503   -0.000000
siesta:     23   -0.022072   -0.105145    0.000000
siesta:     24   -0.016810    0.096610   -0.000000
siesta:     25   -0.096929   -0.027859   -0.000000
siesta:     26   -0.010441    0.168520    0.000000
siesta:     27   -0.017087   -0.110774    0.000000
siesta:     28    1.591427   -0.826202   -0.000000
siesta:     29    0.101861   -0.020948    0.000000
siesta: ----------------------------------------
siesta:    Tot    5.456731    1.377569    0.000000

siesta: Stress tensor (static) (eV/Ang**3):
siesta:     0.000241    0.000297    0.000000
siesta:     0.000297    0.000073    0.000000
siesta:    -0.000000   -0.000000   -0.000062

siesta: Cell volume =       5089.464738 Ang**3

siesta: Pressure (static):
siesta:                Solid            Molecule  Units
siesta:          -0.00000091         -0.00000008  Ry/Bohr**3
siesta:          -0.00008368         -0.00000725  eV/Ang**3
siesta:          -0.13407308         -0.01161737  kBar
(Free)E+ p_basis*V_orbitals  =       -4126.995028
(Free)Eharris+ p_basis*V_orbitals  =       -4126.995028
     spin moment: S , {S} =    0.00000  -0.00000  -0.00000   0.00000

siesta: Electric dipole (a.u.)  =    1.454940    0.046653   -0.000000
siesta: Electric dipole (Debye) =    3.698092    0.118580   -0.000000

cite: Please see "GC.bib" for an exhaustive BiBTeX file.
cite: Please clearly indicate Siesta version in published work: v4.1.5-1-g384057250
cite: This calculation has made use of the following articles
cite: which are encouraged to be cited in a published work.
        Primary SIESTA paper
          DOI: www.doi.org/10.1088/0953-8984/14/11/302
        Spin-orbit coupling (on-site approximation)
          DOI: www.doi.org/10.1088/0953-8984/19/19/489001


WARNING: alloc-realloc-dealloc name mismatch
         Name: atomlist isa
         Size:              -116. Bytes
         Node:     0
         Subsequent mismatches will not be reported
>> End of run:  22-MAY-2023  17:55:57
Job completed
