Siesta Version  : v4.1.5-1-g384057250
Architecture    : gcc
Compiler version: GNU Fortran (Ubuntu 11.3.0-1ubuntu1~22.04) 11.3.0
Compiler flags  : mpifort -O2 -fPIC -ftree-vectorize -fallow-argument-mismatch
PP flags        : -DFC_HAVE_ABORT -DMPI -DSIESTA__FLOOK -DSIESTA__METIS -DSIESTA__MUMPS -DCDF -DNCDF -DNCDF_4 -DNCDF_PARALLEL -DSIESTA__MRRR -DSIESTA__ELPA
Libraries       : libncdf.a libfdict.a  -lflookall -ldl -lnetcdff -lnetcdf -lhdf5_hl -lhdf5 -lhdf5_fortran -lz -lscalapack-openmpi -lopenblas -lmetis -lzmumps -lcmumps -ldmumps -lmumps_common -lpord -lsmumps -lesmumps -lscotch -lscotcherr -fopenmp -lelpa
PARALLEL version
NetCDF support
NetCDF-4 support
NetCDF-4 MPI-IO support
METIS ordering support
Lua support

* Running on 4 nodes in parallel
>> Start of run:  28-JUN-2023  18:46:31

                           ***********************       
                           *  WELCOME TO SIESTA  *       
                           ***********************       

reinit: Reading from standard input
reinit: Dumped input in INPUT_TMP.49440
************************** Dump of input data file ****************************
SystemLabel      GC
NumberOfAtoms    29
NumberOfSpecies  4
%block ChemicalSpeciesLabel
    1    8  O
    2    7  N
    3   14  Si
    4    1  H
%endblock ChemicalSpeciesLabel
# Single point calculation
MD.TypeOfRun                CG
MD.Steps                    0
SCF.MustConverge            F # In case it does not. There can be 2 very close atoms
AtomicCoordinatesFormat NotScaledCartesianAng
%block AtomicCoordinatesAndAtomicSpecies
1.043624880    3.939228610    0.000000000       1
-3.040641290   1.071078170    0.000000000       2
2.054601450    1.213582070    0.000000000       2
0.999014100    -1.732643800   0.000000000       2
-2.132351640   -1.812968220   0.000000000       2
3.860190550    -1.112298180   0.000000000       2
-1.236183220   1.152964460    0.000000000       3
-0.532924260   -0.939006270   0.000000000       3
0.635660470    2.374516770    0.000000000       3
2.245170240    -0.549967100   0.000000000       3
-3.449816660   -0.583665030   0.000000000       3
2.963714090    1.790992630    0.000000000       4
-4.845591350   -1.123549660   0.000000000       4
4.007020910    -2.152308560   0.000000000       4
4.772194380    -0.502318160   0.000000000       4
-2.265399090   -2.864605110   0.000000000       4
5.238350975    5.104188381    0.000000000       3
7.143234945    6.310827321    0.000000000       3
6.647480805    2.337853411    0.000000000       3
8.724951095    4.807070571    0.000000000       3
5.297973645    3.386760811    0.000000000       2
3.699215915    5.857865691    0.000000000       2
8.299776065    3.067690631    0.000000000       2
7.334579745    7.802981071    0.000000000       4
10.209319075   5.025801391    0.000000000       4
3.587870635    6.907060801    0.000000000       4
2.766658205    5.232951511    0.000000000       4
6.637253975    0.729742291    0.000000000       1
9.075201945    2.340999071    0.000000000       4
%endblock AtomicCoordinatesAndAtomicSpecies
%include ../../../Defaults.fdf
************************** End of input data file *****************************

reinit: -----------------------------------------------------------------------
reinit: System Name: 
reinit: -----------------------------------------------------------------------
reinit: System Label: GC
reinit: -----------------------------------------------------------------------

initatom: Reading input for the pseudopotentials and atomic orbitals ----------
Species number:   1 Atomic number:    8 Label: O
Species number:   2 Atomic number:    7 Label: N
Species number:   3 Atomic number:   14 Label: Si
Species number:   4 Atomic number:    1 Label: H

Ground state valence configuration:   2s02  2p04
Reading pseudopotential information in formatted form from O.psf

Pseudopotential generated from a relativistic atomic calculation

Valence configuration for pseudopotential generation:
2s( 2.00) rc: 0.45
2p( 4.00) rc: 0.92
3d( 0.00) rc: 2.24
4f( 0.00) rc: 0.25
Ground state valence configuration:   2s02  2p03
Reading pseudopotential information in formatted form from N.psf

Pseudopotential generated from a relativistic atomic calculation

Valence configuration for pseudopotential generation:
2s( 2.00) rc: 0.94
2p( 3.00) rc: 0.59
3d( 0.00) rc: 3.46
4f( 0.00) rc: 2.47
Ground state valence configuration:   3s02  3p02
Reading pseudopotential information in formatted form from Si.psf

Pseudopotential generated from a relativistic atomic calculation

Valence configuration for pseudopotential generation:
3s( 2.00) rc: 1.67
3p( 2.00) rc: 2.04
3d( 0.00) rc: 2.89
4f( 0.00) rc: 2.49
Ground state valence configuration:   1s01
Reading pseudopotential information in formatted form from H.psf

Pseudopotential generated from a relativistic atomic calculation

Valence configuration for pseudopotential generation:
1s( 1.00) rc: 0.01
2p( 0.00) rc: 0.60
3d( 0.00) rc: 1.99
4f( 0.00) rc: 2.49
For O, standard SIESTA heuristics set lmxkb to 3
 (one more than the basis l, including polarization orbitals).
Use PS.lmax or PS.KBprojectors blocks to override.
For N, standard SIESTA heuristics set lmxkb to 3
 (one more than the basis l, including polarization orbitals).
Use PS.lmax or PS.KBprojectors blocks to override.
For Si, standard SIESTA heuristics set lmxkb to 3
 (one more than the basis l, including polarization orbitals).
Use PS.lmax or PS.KBprojectors blocks to override.
For H, standard SIESTA heuristics set lmxkb to 2
 (one more than the basis l, including polarization orbitals).
Use PS.lmax or PS.KBprojectors blocks to override.

<basis_specs>
===============================================================================
O                    Z=   8    Mass=  16.000        Charge= 0.17977+309
Lmxo=1 Lmxkb= 3    BasisType=split      Semic=F
L=0  Nsemic=0  Cnfigmx=2
          i=1  nzeta=2  polorb=0  (2s)
            splnorm:   0.28000    
               vcte:    0.0000    
               rinn:    0.0000    
               qcoe:    0.0000    
               qyuk:    0.0000    
               qwid:   0.10000E-01
                rcs:    0.0000      0.0000    
            lambdas:    1.0000      1.0000    
L=1  Nsemic=0  Cnfigmx=2
          i=1  nzeta=2  polorb=1  (2p)
            splnorm:   0.28000    
               vcte:    0.0000    
               rinn:    0.0000    
               qcoe:    0.0000    
               qyuk:    0.0000    
               qwid:   0.10000E-01
                rcs:    0.0000      0.0000    
            lambdas:    1.0000      1.0000    
-------------------------------------------------------------------------------
L=0  Nkbl=1  erefs: 0.17977+309
L=1  Nkbl=1  erefs: 0.17977+309
L=2  Nkbl=1  erefs: 0.17977+309
L=3  Nkbl=1  erefs: 0.17977+309
===============================================================================
</basis_specs>

atom: Called for O                     (Z =   8)

read_vps: Pseudopotential generation method:
read_vps: ATM4.2.7  Troullier-Martins                       
Valence charge for ps generation:    6.00000

xc_check: Exchange-correlation functional:
xc_check: GGA Perdew, Burke & Ernzerhof 1996
V l=0 = -2*Zval/r beyond r=  1.1000
V l=1 = -2*Zval/r beyond r=  1.1000
V l=2 = -2*Zval/r beyond r=  2.2154
V l=3 = -2*Zval/r beyond r=  1.1000
All V_l potentials equal beyond r=  2.2154
This should be close to max(r_c) in ps generation
All pots = -2*Zval/r beyond r=  2.2154

VLOCAL1: 99.0% of the norm of Vloc inside      8.845 Ry
VLOCAL1: 99.9% of the norm of Vloc inside     20.157 Ry
atom: Maximum radius for 4*pi*r*r*local-pseudopot. charge    2.67231
atom: Maximum radius for r*vlocal+2*Zval:    2.32897
GHOST: No ghost state for L =  0
GHOST: No ghost state for L =  1
GHOST: No ghost state for L =  2
GHOST: No ghost state for L =  3

KBgen: Kleinman-Bylander projectors: 
   l= 0   rc=  2.243238   el= -1.759686   Ekb=**********   kbcos= -0.171774
   l= 1   rc=  2.328968   el= -0.663873   Ekb=-14.506792   kbcos= -0.519897
   l= 2   rc=  2.573941   el=  0.002031   Ekb= -1.137373   kbcos= -0.019581
   l= 3   rc=  2.606321   el=  0.003153   Ekb= -1.013546   kbcos= -0.003122

KBgen: Total number of Kleinman-Bylander projectors:   16
atom: -------------------------------------------------------------------------

atom: SANKEY-TYPE ORBITALS:
atom: Selected multiple-zeta basis: split     

SPLIT: Orbitals with angular momentum L= 0

SPLIT: Basis orbitals for state 2s

SPLIT: PAO cut-off radius determined from an
SPLIT: energy shift=  0.002000 Ry

   izeta = 1
                 lambda =    1.000000
                     rc =    4.243912
                 energy =   -1.758270
                kinetic =    3.286084
    potential(screened) =   -5.044353
       potential(ionic) =  -12.921184

   izeta = 2
                 rmatch =    2.187845
              splitnorm =    0.280000
                 energy =   -0.885018
                kinetic =    8.134434
    potential(screened) =   -9.019452
       potential(ionic) =  -17.710645

SPLIT: Orbitals with angular momentum L= 1

SPLIT: Basis orbitals for state 2p

SPLIT: PAO cut-off radius determined from an
SPLIT: energy shift=  0.002000 Ry

   izeta = 1
                 lambda =    1.000000
                     rc =    5.314825
                 energy =   -0.661986
                kinetic =    4.917472
    potential(screened) =   -5.579458
       potential(ionic) =  -13.236259

   izeta = 2
                 rmatch =    2.160663
              splitnorm =    0.280000
                 energy =   -0.068760
                kinetic =    9.183374
    potential(screened) =   -9.252135
       potential(ionic) =  -18.274251

POLgen: Perturbative polarization orbital with L=  2

POLgen: Polarization orbital for state 2p

   izeta = 1
                     rc =    5.314825
                 energy =    1.970580
                kinetic =    3.886128
    potential(screened) =   -1.915547
       potential(ionic) =   -7.749584
atom: Total number of Sankey-type orbitals: 13

atm_pop: Valence configuration (for local Pseudopot. screening):
 2s( 2.00)                                                            
 2p( 4.00)                                                            
Vna: chval, zval:    6.00000   6.00000

Vna:  Cut-off radius for the neutral-atom potential:   5.314825

atom: _________________________________________________________________________

<basis_specs>
===============================================================================
N                    Z=   7    Mass=  14.010        Charge= 0.17977+309
Lmxo=1 Lmxkb= 3    BasisType=split      Semic=F
L=0  Nsemic=0  Cnfigmx=2
          i=1  nzeta=2  polorb=0  (2s)
            splnorm:   0.28000    
               vcte:    0.0000    
               rinn:    0.0000    
               qcoe:    0.0000    
               qyuk:    0.0000    
               qwid:   0.10000E-01
                rcs:    0.0000      0.0000    
            lambdas:    1.0000      1.0000    
L=1  Nsemic=0  Cnfigmx=2
          i=1  nzeta=2  polorb=1  (2p)
            splnorm:   0.28000    
               vcte:    0.0000    
               rinn:    0.0000    
               qcoe:    0.0000    
               qyuk:    0.0000    
               qwid:   0.10000E-01
                rcs:    0.0000      0.0000    
            lambdas:    1.0000      1.0000    
-------------------------------------------------------------------------------
L=0  Nkbl=1  erefs: 0.17977+309
L=1  Nkbl=1  erefs: 0.17977+309
L=2  Nkbl=1  erefs: 0.17977+309
L=3  Nkbl=1  erefs: 0.17977+309
===============================================================================
</basis_specs>

atom: Called for N                     (Z =   7)

read_vps: Pseudopotential generation method:
read_vps: ATM4.2.7  Troullier-Martins                       
Valence charge for ps generation:    5.00000

xc_check: Exchange-correlation functional:
xc_check: GGA Perdew, Burke & Ernzerhof 1996
V l=0 = -2*Zval/r beyond r=  1.2889
V l=1 = -2*Zval/r beyond r=  1.2889
V l=2 = -2*Zval/r beyond r=  3.4178
V l=3 = -2*Zval/r beyond r=  2.4084
All V_l potentials equal beyond r=  3.3753
This should be close to max(r_c) in ps generation
All pots = -2*Zval/r beyond r=  3.4178

VLOCAL1: 99.0% of the norm of Vloc inside      3.810 Ry
VLOCAL1: 99.9% of the norm of Vloc inside      8.683 Ry
atom: Maximum radius for 4*pi*r*r*local-pseudopot. charge    4.02088
atom: Maximum radius for r*vlocal+2*Zval:    3.54838
GHOST: No ghost state for L =  0
GHOST: No ghost state for L =  1
GHOST: No ghost state for L =  2
GHOST: No ghost state for L =  3

KBgen: Kleinman-Bylander projectors: 
   l= 0   rc=  3.417763   el= -1.365098   Ekb= -4.433130   kbcos= -0.707855
   l= 1   rc=  3.375302   el= -0.521201   Ekb=-13.264039   kbcos= -0.535594
   l= 2   rc=  3.872880   el=  0.001991   Ekb= -0.641094   kbcos= -0.062456
   l= 3   rc=  3.970931   el=  0.003093   Ekb= -0.474517   kbcos= -0.018236

KBgen: Total number of Kleinman-Bylander projectors:   16
atom: -------------------------------------------------------------------------

atom: SANKEY-TYPE ORBITALS:
atom: Selected multiple-zeta basis: split     

SPLIT: Orbitals with angular momentum L= 0

SPLIT: Basis orbitals for state 2s

SPLIT: PAO cut-off radius determined from an
SPLIT: energy shift=  0.002000 Ry

   izeta = 1
                 lambda =    1.000000
                     rc =    4.730425
                 energy =   -1.363399
                kinetic =    1.245246
    potential(screened) =   -2.608645
       potential(ionic) =   -8.121105

   izeta = 2
                 rmatch =    2.531849
              splitnorm =    0.280000
                 energy =   -0.959908
                kinetic =    2.409435
    potential(screened) =   -3.369343
       potential(ionic) =   -9.427975

SPLIT: Orbitals with angular momentum L= 1

SPLIT: Basis orbitals for state 2p

SPLIT: PAO cut-off radius determined from an
SPLIT: energy shift=  0.002000 Ry

   izeta = 1
                 lambda =    1.000000
                     rc =    5.924108
                 energy =   -0.519262
                kinetic =    3.672940
    potential(screened) =   -4.192202
       potential(ionic) =   -9.518354

   izeta = 2
                 rmatch =    2.531849
              splitnorm =    0.280000
                 energy =   -0.104258
                kinetic =    6.807538
    potential(screened) =   -6.911796
       potential(ionic) =  -13.149920

POLgen: Perturbative polarization orbital with L=  2

POLgen: Polarization orbital for state 2p

   izeta = 1
                     rc =    5.924108
                 energy =    1.427508
                kinetic =    2.872379
    potential(screened) =   -1.444871
       potential(ionic) =   -5.563644
atom: Total number of Sankey-type orbitals: 13

atm_pop: Valence configuration (for local Pseudopot. screening):
 2s( 2.00)                                                            
 2p( 3.00)                                                            
Vna: chval, zval:    5.00000   5.00000

Vna:  Cut-off radius for the neutral-atom potential:   5.924108

atom: _________________________________________________________________________

<basis_specs>
===============================================================================
Si                   Z=  14    Mass=  28.090        Charge= 0.17977+309
Lmxo=1 Lmxkb= 3    BasisType=split      Semic=F
L=0  Nsemic=0  Cnfigmx=3
          i=1  nzeta=2  polorb=0  (3s)
            splnorm:   0.28000    
               vcte:    0.0000    
               rinn:    0.0000    
               qcoe:    0.0000    
               qyuk:    0.0000    
               qwid:   0.10000E-01
                rcs:    0.0000      0.0000    
            lambdas:    1.0000      1.0000    
L=1  Nsemic=0  Cnfigmx=3
          i=1  nzeta=2  polorb=1  (3p)
            splnorm:   0.28000    
               vcte:    0.0000    
               rinn:    0.0000    
               qcoe:    0.0000    
               qyuk:    0.0000    
               qwid:   0.10000E-01
                rcs:    0.0000      0.0000    
            lambdas:    1.0000      1.0000    
-------------------------------------------------------------------------------
L=0  Nkbl=1  erefs: 0.17977+309
L=1  Nkbl=1  erefs: 0.17977+309
L=2  Nkbl=1  erefs: 0.17977+309
L=3  Nkbl=1  erefs: 0.17977+309
===============================================================================
</basis_specs>

atom: Called for Si                    (Z =  14)

read_vps: Pseudopotential generation method:
read_vps: ATM4.2.7  Troullier-Martins                       
Valence charge for ps generation:    4.00000

xc_check: Exchange-correlation functional:
xc_check: GGA Perdew, Burke & Ernzerhof 1996
V l=0 = -2*Zval/r beyond r=  2.7826
V l=1 = -2*Zval/r beyond r=  2.7826
V l=2 = -2*Zval/r beyond r=  2.9253
V l=3 = -2*Zval/r beyond r=  2.7826
All V_l potentials equal beyond r=  2.8530
This should be close to max(r_c) in ps generation
All pots = -2*Zval/r beyond r=  2.9253

VLOCAL1: 99.0% of the norm of Vloc inside      5.333 Ry
VLOCAL1: 99.9% of the norm of Vloc inside     12.154 Ry
atom: Maximum radius for 4*pi*r*r*local-pseudopot. charge    3.39869
atom: Maximum radius for r*vlocal+2*Zval:    2.96205
GHOST: No ghost state for L =  0
GHOST: No ghost state for L =  1
GHOST: No ghost state for L =  2
GHOST: No ghost state for L =  3

KBgen: Kleinman-Bylander projectors: 
   l= 0   rc=  3.075247   el= -0.794092   Ekb=  5.879390   kbcos=  0.167461
   l= 1   rc=  3.153101   el= -0.300068   Ekb=  2.642817   kbcos=  0.058301
   l= 2   rc=  3.273594   el=  0.001958   Ekb= -1.185135   kbcos= -0.104411
   l= 3   rc=  3.232927   el=  0.003046   Ekb= -0.497174   kbcos= -0.015889

KBgen: Total number of Kleinman-Bylander projectors:   16
atom: -------------------------------------------------------------------------

atom: SANKEY-TYPE ORBITALS:
atom: Selected multiple-zeta basis: split     

SPLIT: Orbitals with angular momentum L= 0

SPLIT: Basis orbitals for state 3s

SPLIT: PAO cut-off radius determined from an
SPLIT: energy shift=  0.002000 Ry

   izeta = 1
                 lambda =    1.000000
                     rc =    6.429618
                 energy =   -0.792283
                kinetic =    0.525293
    potential(screened) =   -1.317576
       potential(ionic) =   -3.744923

   izeta = 2
                 rmatch =    3.998416
              splitnorm =    0.280000
                 energy =   -0.583081
                kinetic =    1.069570
    potential(screened) =   -1.652651
       potential(ionic) =   -4.235185

SPLIT: Orbitals with angular momentum L= 1

SPLIT: Basis orbitals for state 3p

SPLIT: PAO cut-off radius determined from an
SPLIT: energy shift=  0.002000 Ry

   izeta = 1
                 lambda =    1.000000
                     rc =    8.464845
                 energy =   -0.298236
                kinetic =    0.785360
    potential(screened) =   -1.083596
       potential(ionic) =   -3.273779

   izeta = 2
                 rmatch =    4.587816
              splitnorm =    0.280000
                 energy =   -0.131871
                kinetic =    1.403687
    potential(screened) =   -1.535557
       potential(ionic) =   -4.015310

POLgen: Perturbative polarization orbital with L=  2

POLgen: Polarization orbital for state 3p

   izeta = 1
                     rc =    8.464845
                 energy =    0.321949
                kinetic =    1.055677
    potential(screened) =   -0.733728
       potential(ionic) =   -2.672950
atom: Total number of Sankey-type orbitals: 13

atm_pop: Valence configuration (for local Pseudopot. screening):
 3s( 2.00)                                                            
 3p( 2.00)                                                            
Vna: chval, zval:    4.00000   4.00000

Vna:  Cut-off radius for the neutral-atom potential:   8.464845

atom: _________________________________________________________________________

<basis_specs>
===============================================================================
H                    Z=   1    Mass=  1.0100        Charge= 0.17977+309
Lmxo=0 Lmxkb= 2    BasisType=split      Semic=F
L=0  Nsemic=0  Cnfigmx=1
          i=1  nzeta=2  polorb=1  (1s)
            splnorm:   0.62000    
               vcte:    0.0000    
               rinn:    0.0000    
               qcoe:    0.0000    
               qyuk:    0.0000    
               qwid:   0.10000E-01
                rcs:    0.0000      0.0000    
            lambdas:    1.0000      1.0000    
-------------------------------------------------------------------------------
L=0  Nkbl=1  erefs: 0.17977+309
L=1  Nkbl=1  erefs: 0.17977+309
L=2  Nkbl=1  erefs: 0.17977+309
===============================================================================
</basis_specs>

atom: Called for H                     (Z =   1)

read_vps: Pseudopotential generation method:
read_vps: ATM4.2.7  Troullier-Martins                       
Valence charge for ps generation:    1.00000

xc_check: Exchange-correlation functional:
xc_check: GGA Perdew, Burke & Ernzerhof 1996
V l=0 = -2*Zval/r beyond r=  0.0098
V l=1 = -2*Zval/r beyond r=  0.5817
V l=2 = -2*Zval/r beyond r=  1.9372
All V_l potentials equal beyond r=  1.9372
This should be close to max(r_c) in ps generation
All pots = -2*Zval/r beyond r=  1.9372

VLOCAL1: 99.0% of the norm of Vloc inside     11.567 Ry
VLOCAL1: 99.9% of the norm of Vloc inside     26.362 Ry
atom: Maximum radius for 4*pi*r*r*local-pseudopot. charge    2.25106
atom: Maximum radius for r*vlocal+2*Zval:    1.91306
GHOST: No ghost state for L =  0
GHOST: No ghost state for L =  1
GHOST: No ghost state for L =  2

KBgen: Kleinman-Bylander projectors: 
   l= 0   rc=  2.036604   el= -0.477180   Ekb= -6.081590   kbcos= -0.277285
   l= 1   rc=  2.195416   el=  0.001076   Ekb= -0.926943   kbcos= -0.034643
   l= 2   rc=  2.251056   el=  0.002010   Ekb= -0.130941   kbcos= -0.009788

KBgen: Total number of Kleinman-Bylander projectors:    9
atom: -------------------------------------------------------------------------

atom: SANKEY-TYPE ORBITALS:
atom: Selected multiple-zeta basis: split     

SPLIT: Orbitals with angular momentum L= 0

SPLIT: Basis orbitals for state 1s

SPLIT: PAO cut-off radius determined from an
SPLIT: energy shift=  0.002000 Ry

   izeta = 1
                 lambda =    1.000000
                     rc =    6.518340
                 energy =   -0.475305
                kinetic =    0.912139
    potential(screened) =   -1.387444
       potential(ionic) =   -1.907295

   izeta = 2
                 rmatch =    2.141150
              splitnorm =    0.620000
                 energy =    0.566467
                kinetic =    3.772856
    potential(screened) =   -3.206389
       potential(ionic) =   -3.759093

POLgen: Perturbative polarization orbital with L=  1

POLgen: Polarization orbital for state 1s

   izeta = 1
                     rc =    6.518340
                 energy =    0.533861
                kinetic =    1.121086
    potential(screened) =   -0.587225
       potential(ionic) =   -1.053027
atom: Total number of Sankey-type orbitals:  5

atm_pop: Valence configuration (for local Pseudopot. screening):
 1s( 1.00)                                                            
Vna: chval, zval:    1.00000   1.00000

Vna:  Cut-off radius for the neutral-atom potential:   6.518340

atom: _________________________________________________________________________

prinput: Basis input ----------------------------------------------------------

PAO.BasisType split     

%block ChemicalSpeciesLabel
    1    8 O                       # Species index, atomic number, species label
    2    7 N                       # Species index, atomic number, species label
    3   14 Si                      # Species index, atomic number, species label
    4    1 H                       # Species index, atomic number, species label
%endblock ChemicalSpeciesLabel

%block PAO.Basis                 # Define Basis set
O                     2                    # Species label, number of l-shells
 n=2   0   2                         # n, l, Nzeta 
   4.244      2.188   
   1.000      1.000   
 n=2   1   2 P   1                   # n, l, Nzeta, Polarization, NzetaPol
   5.315      2.161   
   1.000      1.000   
N                     2                    # Species label, number of l-shells
 n=2   0   2                         # n, l, Nzeta 
   4.730      2.532   
   1.000      1.000   
 n=2   1   2 P   1                   # n, l, Nzeta, Polarization, NzetaPol
   5.924      2.532   
   1.000      1.000   
Si                    2                    # Species label, number of l-shells
 n=3   0   2                         # n, l, Nzeta 
   6.430      3.998   
   1.000      1.000   
 n=3   1   2 P   1                   # n, l, Nzeta, Polarization, NzetaPol
   8.465      4.588   
   1.000      1.000   
H                     1                    # Species label, number of l-shells
 n=1   0   2 P   1                   # n, l, Nzeta, Polarization, NzetaPol
   6.518      2.141   
   1.000      1.000   
%endblock PAO.Basis

prinput: ----------------------------------------------------------------------

Dumping basis to NetCDF file O.ion.nc
Dumping basis to NetCDF file N.ion.nc
Dumping basis to NetCDF file Si.ion.nc
Dumping basis to NetCDF file H.ion.nc
coor:   Atomic-coordinates input format  =     Cartesian coordinates
coor:                                          (in Angstroms)

siesta: Atomic coordinates (Bohr) and species
siesta:      1.97217   7.44407   0.00000  1        1
siesta:     -5.74598   2.02405   0.00000  2        2
siesta:      3.88264   2.29334   0.00000  2        3
siesta:      1.88786  -3.27422   0.00000  2        4
siesta:     -4.02956  -3.42601   0.00000  2        5
siesta:      7.29471  -2.10194   0.00000  2        6
siesta:     -2.33605   2.17879   0.00000  3        7
siesta:     -1.00708  -1.77447   0.00000  3        8
siesta:      1.20122   4.48719   0.00000  3        9
siesta:      4.24276  -1.03929   0.00000  3       10
siesta:     -6.51921  -1.10297   0.00000  3       11
siesta:      5.60061   3.38449   0.00000  4       12
siesta:     -9.15684  -2.12320   0.00000  4       13
siesta:      7.57218  -4.06728   0.00000  4       14
siesta:      9.01814  -0.94924   0.00000  4       15
siesta:     -4.28099  -5.41332   0.00000  4       16
siesta:      9.89905   9.64552   0.00000  3       17
siesta:     13.49876  11.92574   0.00000  3       18
siesta:     12.56192   4.41790   0.00000  3       19
siesta:     16.48777   9.08405   0.00000  3       20
siesta:     10.01172   6.40005   0.00000  2       21
siesta:      6.99051  11.06977   0.00000  2       22
siesta:     15.68431   5.79710   0.00000  2       23
siesta:     13.86035  14.74550   0.00000  4       24
siesta:     19.29282   9.49739   0.00000  4       25
siesta:      6.78010  13.05246   0.00000  4       26
siesta:      5.22823   9.88885   0.00000  4       27
siesta:     12.54260   1.37901   0.00000  1       28
siesta:     17.14965   4.42385   0.00000  4       29

siesta: Automatic unit cell vectors (Ang):
siesta:   24.148984    0.000000    0.000000
siesta:    0.000000   19.322928    0.000000
siesta:    0.000000    0.000000    9.854683

siesta: System type = molecule  

initatomlists: Number of atoms, orbitals, and projectors:     29   297   394

siesta: ******************** Simulation parameters ****************************
siesta:
siesta: The following are some of the parameters of the simulation.
siesta: A complete list of the parameters used, including default values,
siesta: can be found in file out.fdf
siesta:
redata: Spin configuration                          = spin-orbit
redata: Number of spin components                   = 8
redata: Time-Reversal Symmetry                      = F
redata: Spin spiral                                 = F
############################################################
This spin-orbit implementation uses a local approximation.
From 4.2 and onwards the full non-local approximation is implemented
You are strongly advised to use >=4.2 versions!
############################################################
redata: Long output                                 =   F
redata: Number of Atomic Species                    =        4
redata: Charge density info will appear in .RHO file
redata: Write Mulliken Pop.                         = Atomic and Orbital charges
redata: Matel table size (NRTAB)                    =     1024
redata: Mesh Cutoff                                 =   340.0000 Ry
redata: Net charge of the system                    =     0.0000 |e|
redata: Min. number of SCF Iter                     =        1
redata: Max. number of SCF Iter                     =      200
redata: SCF mix quantity                            = Hamiltonian
redata: Mix DM or H after convergence               =   F
redata: Recompute H after scf cycle                 =   F
redata: Mix DM in first SCF step                    =   T
redata: Write Pulay info on disk                    =   F
redata: New DM Occupancy tolerance                  = 0.000000000001
redata: No kicks to SCF
redata: DM Mixing Weight for Kicks                  =     0.5000
redata: Require Harris convergence for SCF          =   F
redata: Harris energy tolerance for SCF             =     0.000100 eV
redata: Require DM convergence for SCF              =   T
redata: DM tolerance for SCF                        =     0.000008
redata: Require EDM convergence for SCF             =   F
redata: EDM tolerance for SCF                       =     0.001000 eV
redata: Require H convergence for SCF               =   T
redata: Hamiltonian tolerance for SCF               =     0.000001 eV
redata: Require (free) Energy convergence for SCF   =   F
redata: (free) Energy tolerance for SCF             =     0.000100 eV
redata: Using Saved Data (generic)                  =   F
redata: Use continuation files for DM               =   F
redata: Neglect nonoverlap interactions             =   F
redata: Method of Calculation                       = Diagonalization
redata: Electronic Temperature                      =   299.9978 K
redata: Fix the spin of the system                  =   F
redata: Dynamics option                             = Single-point calculation
mix.SCF: Pulay mixing                            = Pulay
mix.SCF:    Variant                              = stable
mix.SCF:    History steps                        = 6
mix.SCF:    Linear mixing weight                 =     0.250000
mix.SCF:    Mixing weight                        =     0.250000
mix.SCF:    SVD condition                        = 0.1000E-07
mix.SCF:    Restart steps                        = 24
mix.SCF:    Restart save steps                   = 3
mix.SCF: Spin-component mixing                   all
redata: Save all siesta data in one NC              =   F
redata: ***********************************************************************

%block SCF.Mixers
  Pulay
%endblock SCF.Mixers

%block SCF.Mixer.Pulay
  # Mixing method
  method pulay
  variant stable

  # Mixing options
  weight 0.2500
  weight.linear 0.2500
  history 6
  restart 24
  restart.save 3
%endblock SCF.Mixer.Pulay

DM_history_depth set to one: no extrapolation allowed by default for geometry relaxation
Size of DM history Fstack: 1
Total number of electrons:    98.000000
Total ionic charge:    98.000000

* ProcessorY, Blocksize:    2  24


* Orbital distribution balance (max,min):    81    72


Time-reversal symmetry not used.

siesta: k-grid: Number of k-points =     1
siesta: k-grid: Cutoff (effective) =     4.927 Ang
siesta: k-grid: Supercell and displacements
siesta: k-grid:    1   0   0      0.000
siesta: k-grid:    0   1   0      0.000
siesta: k-grid:    0   0   1      0.000

diag: Algorithm                                     = ELPA-1stage
diag: Parallel over k                               =   F
diag: Use parallel 2D distribution                  =   T
diag: Parallel block-size                           = 24
diag: Parallel distribution                         =     2 x     2
diag: Used triangular part                          = Lower
diag: Absolute tolerance                            =  0.100E-15
diag: Orthogonalization factor                      =  0.100E-05
diag: Memory factor                                 =  1.0000


ts: **************************************************************
ts: Save H and S matrices                           =    F
ts: Save DM and EDM matrices                        =    F
ts: Only save the overlap matrix S                  =    F
ts: **************************************************************

************************ Begin: TS CHECKS AND WARNINGS ************************
************************ End: TS CHECKS AND WARNINGS **************************


                     ====================================
                        Single-point calculation
                     ====================================

outcoor: Atomic coordinates (Ang):                          
    1.04362488    3.93922861    0.00000000   1       1  O
   -3.04064129    1.07107817    0.00000000   2       2  N
    2.05460145    1.21358207    0.00000000   2       3  N
    0.99901410   -1.73264380    0.00000000   2       4  N
   -2.13235164   -1.81296822    0.00000000   2       5  N
    3.86019055   -1.11229818    0.00000000   2       6  N
   -1.23618322    1.15296446    0.00000000   3       7  Si
   -0.53292426   -0.93900627    0.00000000   3       8  Si
    0.63566047    2.37451677    0.00000000   3       9  Si
    2.24517024   -0.54996710    0.00000000   3      10  Si
   -3.44981666   -0.58366503    0.00000000   3      11  Si
    2.96371409    1.79099263    0.00000000   4      12  H
   -4.84559135   -1.12354966    0.00000000   4      13  H
    4.00702091   -2.15230856    0.00000000   4      14  H
    4.77219438   -0.50231816    0.00000000   4      15  H
   -2.26539909   -2.86460511    0.00000000   4      16  H
    5.23835098    5.10418838    0.00000000   3      17  Si
    7.14323494    6.31082732    0.00000000   3      18  Si
    6.64748080    2.33785341    0.00000000   3      19  Si
    8.72495109    4.80707057    0.00000000   3      20  Si
    5.29797364    3.38676081    0.00000000   2      21  N
    3.69921591    5.85786569    0.00000000   2      22  N
    8.29977606    3.06769063    0.00000000   2      23  N
    7.33457975    7.80298107    0.00000000   4      24  H
   10.20931907    5.02580139    0.00000000   4      25  H
    3.58787063    6.90706080    0.00000000   4      26  H
    2.76665821    5.23295151    0.00000000   4      27  H
    6.63725398    0.72974229    0.00000000   1      28  O
    9.07520194    2.34099907    0.00000000   4      29  H

outcell: Unit cell vectors (Ang):
       24.148984    0.000000    0.000000
        0.000000   19.322928    0.000000
        0.000000    0.000000    9.854683

outcell: Cell vector modules (Ang)   :   24.148984   19.322928    9.854683
outcell: Cell angles (23,13,12) (deg):     90.0000     90.0000     90.0000
outcell: Cell volume (Ang**3)        :   4598.4817
<dSpData1D:S at geom step 0
  <sparsity:sparsity for geom step 0
    nrows_g=297 nrows=81 sparsity=.2166 nnzs=19102, refcount: 8>
  <dData1D:(new from dSpData1D) n=19102, refcount: 1>
refcount: 1>
new_DM -- step:     1
Initializing Density Matrix...
DM filled with atomic data:
<dSpData2D:DM initialized from atoms
  <sparsity:sparsity for geom step 0
    nrows_g=297 nrows=81 sparsity=.2166 nnzs=19102, refcount: 9>
  <dData2D:DM n=19102 m=8, refcount: 1>
refcount: 1>
     spin moment: S , {S} =   56.00000   0.00000   0.00000  56.00000
No. of atoms with KB's overlaping orbs in proc 0. Max # of overlaps:      29     189

Initializing spin-orbit part of the Hamiltonian
  Adding spin-orbit effects for O 
  Adding spin-orbit effects for N 
  Adding spin-orbit effects for Si
  Adding spin-orbit effects for H 


New grid distribution:   1
           1       1:  135    1:   54    1:   30
           2       1:  135    1:   54   31:   60
           3       1:  135   55:  108    1:   30
           4       1:  135   55:  108   31:   60

InitMesh: MESH =   270 x   216 x   120 =     6998400
InitMesh: (bp) =   135 x   108 x    60 =      874800
InitMesh: Mesh cutoff (required, used) =   340.000   345.353 Ry
ExtMesh (bp) on 0 =   239 x   158 x   142 =     5362204
New grid distribution:   2
           1      35:  135    1:   25    1:   60
           2       1:   34    1:   24    1:   60
           3      35:  135   26:  108    1:   60
           4       1:   34   25:  108    1:   60
New grid distribution:   3
           1      45:  135    1:   32    1:   60
           2       1:   44    1:   37    1:   60
           3      45:  135   33:  108    1:   60
           4       1:   44   38:  108    1:   60
Setting up quadratic distribution...
ExtMesh (bp) on 0 =   205 x   129 x   172 =     4548540
PhiOnMesh: Number of (b)points on node 0 =               151500
PhiOnMesh: nlist on node 0 =              2461230

stepf: Fermi-Dirac step function

siesta: Program's energy decomposition (eV):
siesta: Ebs     =      -615.117033
siesta: Eions   =      3585.165840
siesta: Ena     =       381.867031
siesta: Ekin    =      3363.136513
siesta: Enl     =     -3292.649216
siesta: Eso     =        -0.003431
siesta: Edftu   =         0.000000
siesta: DEna    =       153.463081
siesta: DUscf   =        78.868439
siesta: DUext   =         0.000000
siesta: Exc     =     -1202.920910
siesta: eta*DQ  =         0.000000
siesta: Emadel  =         0.000000
siesta: Emeta   =         0.000000
siesta: Emolmec =         0.000000
siesta: Ekinion =         0.000000
siesta: Eharris =     -4028.340560
siesta: Etot    =     -4103.404332
siesta: FreeEng =     -4103.405718

        iscf     Eharris(eV)        E_KS(eV)     FreeEng(eV)     dDmax    Ef(eV) dHmax(eV)
   scf:    1    -4028.340560    -4103.404332    -4103.405718  0.959423 -4.905638 20.863081
     spin moment: S , {S} =    2.00713  -0.00000   0.00000   2.00713
timer: Routine,Calls,Time,% = IterSCF        1      11.266  15.99
   scf:    2    -4149.736400    -4138.084148    -4138.085832  0.460895 -4.204871 11.311914
     spin moment: S , {S} =    1.98995  -0.00000  -0.00000   1.98995
   scf:    3    -4111.227546    -4135.383790    -4135.401270  0.428007 -4.275728 11.448205
     spin moment: S , {S} =    2.00014   0.00000  -0.00000   2.00014
   scf:    4    -4150.958540    -4146.200790    -4146.200790  0.309160 -3.896047  6.161837
     spin moment: S , {S} =    0.00009   0.00000   0.00000   0.00009
   scf:    5    -4147.364255    -4146.874254    -4146.874254  0.036729 -3.701675  4.306405
     spin moment: S , {S} =    0.00006  -0.00000  -0.00000   0.00006
   scf:    6    -4147.631473    -4147.257721    -4147.257721  0.024888 -3.691766  2.093136
     spin moment: S , {S} =    0.00003   0.00000   0.00000   0.00003
   scf:    7    -4147.605217    -4147.429487    -4147.429487  0.021280 -3.732363  0.874747
     spin moment: S , {S} =    0.00001   0.00000  -0.00000   0.00001
   scf:    8    -4147.548056    -4147.487050    -4147.487050  0.012298 -3.753912  0.480730
     spin moment: S , {S} =    0.00000  -0.00000   0.00000   0.00000
   scf:    9    -4147.526254    -4147.506011    -4147.506011  0.006809 -3.783686  0.334155
     spin moment: S , {S} =    0.00000  -0.00000  -0.00000   0.00000
   scf:   10    -4147.555564    -4147.526418    -4147.526418  0.018562 -3.801635  0.158963
     spin moment: S , {S} =    0.00000   0.00000  -0.00000  -0.00000
   scf:   11    -4147.529356    -4147.527836    -4147.527836  0.004864 -3.793502  0.048143
     spin moment: S , {S} =    0.00000   0.00000   0.00000  -0.00000
   scf:   12    -4147.528572    -4147.528210    -4147.528210  0.001645 -3.788800  0.028262
     spin moment: S , {S} =    0.00000   0.00000   0.00000   0.00000
   scf:   13    -4147.528646    -4147.528418    -4147.528418  0.001684 -3.787642  0.021444
     spin moment: S , {S} =    0.00000   0.00000   0.00000   0.00000
   scf:   14    -4147.528730    -4147.528562    -4147.528562  0.001693 -3.786448  0.016275
     spin moment: S , {S} =    0.00000   0.00000   0.00000   0.00000
   scf:   15    -4147.528802    -4147.528667    -4147.528667  0.001854 -3.786164  0.010715
     spin moment: S , {S} =    0.00000   0.00000   0.00000   0.00000
   scf:   16    -4147.528812    -4147.528725    -4147.528725  0.001853 -3.786593  0.005042
     spin moment: S , {S} =    0.00000   0.00000  -0.00000   0.00000
   scf:   17    -4147.528751    -4147.528735    -4147.528735  0.000791 -3.786741  0.002749
     spin moment: S , {S} =    0.00000   0.00000  -0.00000   0.00000
   scf:   18    -4147.528741    -4147.528737    -4147.528737  0.000373 -3.786825  0.001163
     spin moment: S , {S} =    0.00000   0.00000   0.00000   0.00000
   scf:   19    -4147.528739    -4147.528738    -4147.528738  0.000144 -3.786836  0.000623
     spin moment: S , {S} =    0.00000   0.00000   0.00000   0.00000
   scf:   20    -4147.528738    -4147.528738    -4147.528738  0.000042 -3.786816  0.000367
     spin moment: S , {S} =    0.00000   0.00000   0.00000   0.00000
   scf:   21    -4147.528738    -4147.528738    -4147.528738  0.000051 -3.786800  0.000175
     spin moment: S , {S} =    0.00000   0.00000   0.00000  -0.00000
   scf:   22    -4147.528738    -4147.528738    -4147.528738  0.000013 -3.786784  0.000078
     spin moment: S , {S} =    0.00000   0.00000   0.00000  -0.00000
   scf:   23    -4147.528738    -4147.528738    -4147.528738  0.000004 -3.786785  0.000055
     spin moment: S , {S} =    0.00000   0.00000   0.00000  -0.00000
   scf:   24    -4147.528738    -4147.528738    -4147.528738  0.000002 -3.786784  0.000049
     spin moment: S , {S} =    0.00000   0.00000   0.00000  -0.00000
mix: Pulay -- resetting history
   scf:   25    -4147.528738    -4147.528738    -4147.528738  0.000006 -3.786780  0.000025
     spin moment: S , {S} =    0.00000   0.00000   0.00000  -0.00000
   scf:   26    -4147.528738    -4147.528738    -4147.528738  0.000004 -3.786777  0.000009
     spin moment: S , {S} =    0.00000   0.00000   0.00000  -0.00000
   scf:   27    -4147.528738    -4147.528738    -4147.528738  0.000002 -3.786776  0.000004
     spin moment: S , {S} =    0.00000   0.00000   0.00000   0.00000
   scf:   28    -4147.528738    -4147.528738    -4147.528738  0.000000 -3.786775  0.000002
     spin moment: S , {S} =    0.00000   0.00000   0.00000   0.00000
   scf:   29    -4147.528738    -4147.528738    -4147.528738  0.000000 -3.786775  0.000002
     spin moment: S , {S} =    0.00000   0.00000   0.00000   0.00000
   scf:   30    -4147.528738    -4147.528738    -4147.528738  0.000000 -3.786775  0.000001
     spin moment: S , {S} =    0.00000   0.00000   0.00000   0.00000

SCF Convergence by DM+H criterion
max |DM_out - DM_in|         :     0.0000001116
max |H_out - H_in|      (eV) :     0.0000006647
SCF cycle converged after 30 iterations

Using DM_out to compute the final energy and forces
No. of atoms with KB's overlaping orbs in proc 0. Max # of overlaps:      29     189

siesta: E_KS(eV) =            -4147.5287

siesta: E_KS - E_eggbox =     -4147.5287
     spin moment: S , {S} =    0.00000   0.00000   0.00000   0.00000

siesta: Atomic forces (eV/Ang):
     1    2.651175   -1.388021   -0.000000
     2    0.016310   -0.029694    0.000000
     3    0.462882   -0.141323   -0.000000
     4    0.395487   -0.003883    0.000000
     5    0.030451   -0.045304   -0.000000
     6    1.329729    0.594599    0.000000
     7    0.023172   -0.138206   -0.000000
     8   -0.209212    0.154104    0.000000
     9   -0.041998    0.693755    0.000000
    10   -0.487350    0.239841   -0.000000
    11   -0.013307   -0.012243   -0.000000
    12   -0.281118   -0.212509   -0.000000
    13    0.044355   -0.016502    0.000000
    14    0.249761   -0.048686    0.000000
    15   -0.774308   -0.498380   -0.000000
    16    0.021229    0.143403   -0.000000
    17    0.490756   -0.654069    0.000000
    18   -0.119090    0.112475   -0.000000
    19   -0.152265   -0.614831   -0.000000
    20   -0.018915   -0.224348    0.000000
    21   -0.172083    0.505567   -0.000000
    22   -1.635499   -0.840254    0.000000
    23    0.115223    0.258489    0.000000
    24    0.089152   -0.168685    0.000000
    25    0.004332   -0.112588   -0.000000
    26   -0.233498   -0.263790   -0.000000
    27    0.984224    0.869609   -0.000000
    28   -3.288338   -2.571821    0.000000
    29   -0.046838    0.091636    0.000000
----------------------------------------
   Tot   -0.565584   -4.321659    0.000000
----------------------------------------
   Max    3.288338
   Res    0.657645    sqrt( Sum f_i^2 / 3N )
----------------------------------------
   Max    3.288338    constrained

Stress tensor Voigt[x,y,z,yz,xz,xy] (kbar):        0.76        1.58       -0.11        0.00       -0.00        1.57
(Free)E + p*V (eV/cell)    -4149.6622
Target enthalpy (eV/cell)    -4147.5287

mulliken: Atomic and Orbital Populations:

Species: O                   

Atom      Orb        Charge      Spin       Svec
----------------------------------------------------------------
    1  1 2s         1.74989   0.00000     -0.000  -0.000  -0.000
    1  2 2s         0.06005   0.00000      0.000   0.000  -0.000
    1  3 2py        1.41945   0.00000     -0.000  -0.000  -0.000
    1  4 2pz        1.58334   0.00000     -0.000  -0.000  -0.000
    1  5 2px        1.63578   0.00000     -0.000  -0.000  -0.000
    1  6 2py        0.04758   0.00000      0.000   0.000  -0.000
    1  7 2pz       -0.01323   0.00000     -0.000   0.000  -0.000
    1  8 2px       -0.00004   0.00000      0.000   0.000  -0.000
    1  9 3Pdxy      0.00639   0.00000      0.000  -0.000   0.000
    1 10 3Pdyz      0.00815   0.00000      0.000  -0.000   0.000
    1 11 3Pdz2      0.00135   0.00000      0.000   0.000  -0.000
    1 12 3Pdxz      0.00021   0.00000     -0.000   0.000   0.000
    1 13 3Pdx2-y2   0.00626   0.00000     -0.000   0.000   0.000
    1     Total     6.50518   0.00000     -0.000  -0.000  -0.000

   28  1 2s         1.74956   0.00000     -0.000   0.000   0.000
   28  2 2s         0.06148   0.00000     -0.000  -0.000  -0.000
   28  3 2py        1.40177   0.00000      0.000   0.000  -0.000
   28  4 2pz        1.57733   0.00000      0.000  -0.000  -0.000
   28  5 2px        1.65251   0.00000     -0.000   0.000  -0.000
   28  6 2py        0.05002   0.00000     -0.000  -0.000  -0.000
   28  7 2pz       -0.01026   0.00000     -0.000   0.000  -0.000
   28  8 2px        0.00219   0.00000      0.000   0.000  -0.000
   28  9 3Pdxy      0.00628   0.00000      0.000  -0.000   0.000
   28 10 3Pdyz      0.00910   0.00000     -0.000   0.000   0.000
   28 11 3Pdz2      0.00111   0.00000      0.000  -0.000  -0.000
   28 12 3Pdxz     -0.00017   0.00000     -0.000   0.000   0.000
   28 13 3Pdx2-y2   0.00737   0.00000      0.000   0.000  -0.000
   28     Total     6.50830   0.00000      0.000  -0.000  -0.000

----------------------------------------------------------------
Total              13.01348   0.00000      0.000  -0.000  -0.000


Species: N                   

Atom      Orb        Charge      Spin       Svec
----------------------------------------------------------------
    2  1 2s         1.54923   0.00000     -0.000  -0.000  -0.000
    2  2 2s         0.08484   0.00000      0.000   0.000  -0.000
    2  3 2py        1.04391   0.00000      0.000   0.000  -0.000
    2  4 2pz        1.22467   0.00000      0.000   0.000  -0.000
    2  5 2px        0.99222   0.00000      0.000   0.000  -0.000
    2  6 2py        0.18815   0.00000     -0.000  -0.000  -0.000
    2  7 2pz        0.05523   0.00000     -0.000  -0.000  -0.000
    2  8 2px        0.19553   0.00000     -0.000  -0.000  -0.000
    2  9 3Pdxy      0.00836   0.00000     -0.000  -0.000   0.000
    2 10 3Pdyz      0.01096   0.00000     -0.000  -0.000   0.000
    2 11 3Pdz2      0.00192   0.00000     -0.000  -0.000   0.000
    2 12 3Pdxz      0.00759   0.00000      0.000   0.000   0.000
    2 13 3Pdx2-y2   0.00906   0.00000      0.000   0.000  -0.000
    2     Total     5.37165   0.00000     -0.000   0.000  -0.000

    3  1 2s         1.38875   0.00000     -0.000   0.000  -0.000
    3  2 2s         0.12173   0.00000     -0.000  -0.000  -0.000
    3  3 2py        0.93926   0.00000      0.000   0.000  -0.000
    3  4 2pz        1.54357   0.00000      0.000   0.000  -0.000
    3  5 2px        1.08261   0.00000      0.000  -0.000   0.000
    3  6 2py        0.25132   0.00000     -0.000  -0.000  -0.000
    3  7 2pz        0.00552   0.00000     -0.000  -0.000  -0.000
    3  8 2px        0.18060   0.00000     -0.000   0.000   0.000
    3  9 3Pdxy      0.00394   0.00000     -0.000   0.000   0.000
    3 10 3Pdyz      0.00398   0.00000      0.000   0.000   0.000
    3 11 3Pdz2      0.00066   0.00000     -0.000  -0.000  -0.000
    3 12 3Pdxz      0.00271   0.00000      0.000  -0.000  -0.000
    3 13 3Pdx2-y2   0.00256   0.00000     -0.000  -0.000  -0.000
    3     Total     5.52720   0.00000      0.000   0.000  -0.000

    4  1 2s         1.46113   0.00000      0.000   0.000  -0.000
    4  2 2s         0.11880   0.00000     -0.000  -0.000   0.000
    4  3 2py        1.12824   0.00000      0.000  -0.000  -0.000
    4  4 2pz        1.29442   0.00000      0.000   0.000   0.000
    4  5 2px        0.82645   0.00000     -0.000  -0.000  -0.000
    4  6 2py        0.15019   0.00000     -0.000  -0.000  -0.000
    4  7 2pz        0.05311   0.00000     -0.000  -0.000   0.000
    4  8 2px        0.29257   0.00000      0.000   0.000  -0.000
    4  9 3Pdxy      0.00872   0.00000     -0.000  -0.000  -0.000
    4 10 3Pdyz      0.01045   0.00000     -0.000   0.000  -0.000
    4 11 3Pdz2      0.00126   0.00000      0.000  -0.000  -0.000
    4 12 3Pdxz      0.00483   0.00000      0.000   0.000   0.000
    4 13 3Pdx2-y2   0.00799   0.00000     -0.000   0.000   0.000
    4     Total     5.35816   0.00000     -0.000  -0.000  -0.000

    5  1 2s         1.37580   0.00000     -0.000  -0.000  -0.000
    5  2 2s         0.12821   0.00000      0.000   0.000  -0.000
    5  3 2py        1.02613   0.00000     -0.000  -0.000   0.000
    5  4 2pz        1.50111   0.00000      0.000   0.000  -0.000
    5  5 2px        1.05992   0.00000      0.000  -0.000  -0.000
    5  6 2py        0.20373   0.00000      0.000   0.000   0.000
    5  7 2pz        0.01336   0.00000     -0.000  -0.000  -0.000
    5  8 2px        0.20134   0.00000     -0.000   0.000   0.000
    5  9 3Pdxy      0.00389   0.00000      0.000   0.000  -0.000
    5 10 3Pdyz      0.00243   0.00000     -0.000  -0.000  -0.000
    5 11 3Pdz2      0.00143   0.00000      0.000   0.000   0.000
    5 12 3Pdxz      0.00670   0.00000      0.000  -0.000   0.000
    5 13 3Pdx2-y2   0.00560   0.00000      0.000  -0.000   0.000
    5     Total     5.52966   0.00000      0.000  -0.000  -0.000

    6  1 2s         1.26315   0.00000     -0.000  -0.000  -0.000
    6  2 2s         0.18234   0.00000      0.000   0.000  -0.000
    6  3 2py        1.07421   0.00000     -0.000  -0.000   0.000
    6  4 2pz        1.54803   0.00000      0.000   0.000  -0.000
    6  5 2px        0.97136   0.00000     -0.000  -0.000  -0.000
    6  6 2py        0.19144   0.00000      0.000   0.000   0.000
    6  7 2pz        0.03163   0.00000     -0.000  -0.000  -0.000
    6  8 2px        0.25413   0.00000      0.000   0.000   0.000
    6  9 3Pdxy      0.00228   0.00000     -0.000   0.000  -0.000
    6 10 3Pdyz      0.00008   0.00000     -0.000  -0.000  -0.000
    6 11 3Pdz2      0.00159   0.00000     -0.000   0.000   0.000
    6 12 3Pdxz      0.00354   0.00000      0.000  -0.000  -0.000
    6 13 3Pdx2-y2   0.00414   0.00000      0.000   0.000  -0.000
    6     Total     5.52792   0.00000     -0.000  -0.000  -0.000

   21  1 2s         1.41673   0.00000     -0.000   0.000   0.000
   21  2 2s         0.13005   0.00000      0.000  -0.000  -0.000
   21  3 2py        0.87686   0.00000      0.000  -0.000  -0.000
   21  4 2pz        1.30923   0.00000     -0.000  -0.000   0.000
   21  5 2px        1.16760   0.00000     -0.000   0.000  -0.000
   21  6 2py        0.27476   0.00000     -0.000   0.000   0.000
   21  7 2pz        0.04607   0.00000      0.000   0.000   0.000
   21  8 2px        0.15737   0.00000     -0.000   0.000   0.000
   21  9 3Pdxy      0.00619   0.00000     -0.000  -0.000   0.000
   21 10 3Pdyz      0.00470   0.00000      0.000   0.000  -0.000
   21 11 3Pdz2      0.00001   0.00000     -0.000  -0.000  -0.000
   21 12 3Pdxz      0.00581   0.00000     -0.000  -0.000  -0.000
   21 13 3Pdx2-y2   0.00576   0.00000     -0.000   0.000   0.000
   21     Total     5.40115   0.00000     -0.000  -0.000   0.000

   22  1 2s         1.28569   0.00000      0.000   0.000   0.000
   22  2 2s         0.17248   0.00000     -0.000  -0.000  -0.000
   22  3 2py        1.05940   0.00000     -0.000   0.000   0.000
   22  4 2pz        1.52137   0.00000      0.000   0.000  -0.000
   22  5 2px        1.00570   0.00000     -0.000   0.000  -0.000
   22  6 2py        0.19799   0.00000      0.000  -0.000   0.000
   22  7 2pz        0.03045   0.00000     -0.000  -0.000  -0.000
   22  8 2px        0.23221   0.00000     -0.000  -0.000   0.000
   22  9 3Pdxy      0.00325   0.00000     -0.000   0.000  -0.000
   22 10 3Pdyz      0.00026   0.00000     -0.000  -0.000  -0.000
   22 11 3Pdz2      0.00236   0.00000     -0.000   0.000   0.000
   22 12 3Pdxz      0.00360   0.00000     -0.000   0.000  -0.000
   22 13 3Pdx2-y2   0.00472   0.00000      0.000   0.000  -0.000
   22     Total     5.51949   0.00000      0.000   0.000   0.000

   23  1 2s         1.38416   0.00000     -0.000   0.000   0.000
   23  2 2s         0.12428   0.00000      0.000  -0.000  -0.000
   23  3 2py        1.00793   0.00000      0.000  -0.000  -0.000
   23  4 2pz        1.53242   0.00000      0.000  -0.000  -0.000
   23  5 2px        1.05879   0.00000     -0.000  -0.000   0.000
   23  6 2py        0.21277   0.00000     -0.000   0.000   0.000
   23  7 2pz        0.00446   0.00000     -0.000   0.000  -0.000
   23  8 2px        0.19956   0.00000      0.000  -0.000  -0.000
   23  9 3Pdxy      0.00536   0.00000      0.000   0.000   0.000
   23 10 3Pdyz      0.00449   0.00000      0.000   0.000  -0.000
   23 11 3Pdz2      0.00076   0.00000      0.000   0.000   0.000
   23 12 3Pdxz      0.00244   0.00000     -0.000  -0.000  -0.000
   23 13 3Pdx2-y2   0.00142   0.00000     -0.000   0.000  -0.000
   23     Total     5.53884   0.00000     -0.000  -0.000  -0.000

----------------------------------------------------------------
Total              56.78754   0.00000     -0.000   0.000  -0.000


Species: Si                  

Atom      Orb        Charge      Spin       Svec
----------------------------------------------------------------
    7  1 3s         0.66563   0.00000      0.000   0.000   0.000
    7  2 3s         0.36548   0.00000     -0.000  -0.000  -0.000
    7  3 3py        0.47347   0.00000      0.000   0.000   0.000
    7  4 3pz        0.69766   0.00000     -0.000   0.000  -0.000
    7  5 3px        0.12126   0.00000     -0.000  -0.000   0.000
    7  6 3py        0.27385   0.00000     -0.000  -0.000  -0.000
    7  7 3pz        0.26026   0.00000      0.000  -0.000  -0.000
    7  8 3px        0.44025   0.00000      0.000   0.000  -0.000
    7  9 3Pdxy      0.24575   0.00000     -0.000  -0.000   0.000
    7 10 3Pdyz      0.02873   0.00000     -0.000   0.000   0.000
    7 11 3Pdz2      0.01143   0.00000     -0.000   0.000   0.000
    7 12 3Pdxz      0.14604   0.00000     -0.000  -0.000  -0.000
    7 13 3Pdx2-y2   0.11339   0.00000      0.000   0.000   0.000
    7     Total     3.84322   0.00000      0.000   0.000   0.000

    8  1 3s         0.65523   0.00000      0.000  -0.000   0.000
    8  2 3s         0.36869   0.00000      0.000  -0.000   0.000
    8  3 3py        0.39078   0.00000     -0.000  -0.000   0.000
    8  4 3pz        0.51239   0.00000      0.000   0.000   0.000
    8  5 3px       -0.02647   0.00000     -0.000   0.000   0.000
    8  6 3py        0.30741   0.00000      0.000   0.000   0.000
    8  7 3pz        0.20417   0.00000     -0.000  -0.000   0.000
    8  8 3px        0.51476   0.00000      0.000  -0.000   0.000
    8  9 3Pdxy      0.24772   0.00000     -0.000   0.000   0.000
    8 10 3Pdyz      0.11230   0.00000      0.000  -0.000   0.000
    8 11 3Pdz2      0.01392   0.00000      0.000  -0.000   0.000
    8 12 3Pdxz      0.15550   0.00000      0.000  -0.000   0.000
    8 13 3Pdx2-y2   0.20162   0.00000     -0.000  -0.000   0.000
    8     Total     3.65802   0.00000     -0.000  -0.000   0.000

    9  1 3s         0.60058   0.00000     -0.000  -0.000   0.000
    9  2 3s         0.36991   0.00000      0.000   0.000   0.000
    9  3 3py        0.09587   0.00000     -0.000   0.000   0.000
    9  4 3pz        0.48063   0.00000     -0.000  -0.000  -0.000
    9  5 3px        0.36637   0.00000     -0.000  -0.000   0.000
    9  6 3py        0.42605   0.00000      0.000  -0.000   0.000
    9  7 3pz        0.18774   0.00000      0.000   0.000   0.000
    9  8 3px        0.28058   0.00000      0.000   0.000   0.000
    9  9 3Pdxy      0.29724   0.00000      0.000   0.000   0.000
    9 10 3Pdyz      0.19079   0.00000     -0.000   0.000   0.000
    9 11 3Pdz2      0.01365   0.00000     -0.000  -0.000   0.000
    9 12 3Pdxz      0.10315   0.00000     -0.000  -0.000  -0.000
    9 13 3Pdx2-y2   0.17641   0.00000      0.000  -0.000   0.000
    9     Total     3.58896   0.00000     -0.000  -0.000   0.000

   10  1 3s         0.48000   0.00000      0.000   0.000   0.000
   10  2 3s         0.37885   0.00000      0.000  -0.000  -0.000
   10  3 3py        0.23835   0.00000     -0.000  -0.000   0.000
   10  4 3pz        0.40927   0.00000     -0.000   0.000   0.000
   10  5 3px        0.10042   0.00000     -0.000   0.000   0.000
   10  6 3py        0.32619   0.00000      0.000   0.000   0.000
   10  7 3pz        0.22163   0.00000     -0.000  -0.000   0.000
   10  8 3px        0.43520   0.00000      0.000   0.000   0.000
   10  9 3Pdxy      0.17162   0.00000     -0.000  -0.000   0.000
   10 10 3Pdyz      0.13533   0.00000     -0.000  -0.000   0.000
   10 11 3Pdz2      0.00984   0.00000     -0.000  -0.000   0.000
   10 12 3Pdxz      0.17822   0.00000     -0.000  -0.000   0.000
   10 13 3Pdx2-y2   0.30888   0.00000     -0.000   0.000   0.000
   10     Total     3.39380   0.00000     -0.000  -0.000   0.000

   11  1 3s         0.55329   0.00000      0.000   0.000   0.000
   11  2 3s         0.38508   0.00000     -0.000  -0.000  -0.000
   11  3 3py        0.32314   0.00000      0.000   0.000   0.000
   11  4 3pz        0.54108   0.00000      0.000  -0.000   0.000
   11  5 3px        0.12586   0.00000      0.000   0.000   0.000
   11  6 3py        0.28639   0.00000      0.000  -0.000   0.000
   11  7 3pz        0.17718   0.00000     -0.000  -0.000   0.000
   11  8 3px        0.44570   0.00000     -0.000  -0.000   0.000
   11  9 3Pdxy      0.22578   0.00000      0.000  -0.000   0.000
   11 10 3Pdyz      0.12673   0.00000     -0.000  -0.000   0.000
   11 11 3Pdz2      0.00960   0.00000      0.000   0.000   0.000
   11 12 3Pdxz      0.05307   0.00000     -0.000   0.000   0.000
   11 13 3Pdx2-y2   0.20429   0.00000     -0.000  -0.000   0.000
   11     Total     3.45718   0.00000      0.000   0.000   0.000

   17  1 3s         0.63520   0.00000      0.000  -0.000   0.000
   17  2 3s         0.36161   0.00000     -0.000   0.000  -0.000
   17  3 3py        0.22023   0.00000      0.000   0.000  -0.000
   17  4 3pz        0.41832   0.00000      0.000  -0.000   0.000
   17  5 3px        0.24075   0.00000      0.000  -0.000   0.000
   17  6 3py        0.38337   0.00000     -0.000  -0.000   0.000
   17  7 3pz        0.21376   0.00000      0.000   0.000   0.000
   17  8 3px        0.37759   0.00000     -0.000   0.000  -0.000
   17  9 3Pdxy      0.29399   0.00000      0.000  -0.000   0.000
   17 10 3Pdyz      0.14040   0.00000     -0.000  -0.000   0.000
   17 11 3Pdz2      0.00848   0.00000      0.000  -0.000   0.000
   17 12 3Pdxz      0.14413   0.00000     -0.000  -0.000   0.000
   17 13 3Pdx2-y2   0.16785   0.00000      0.000   0.000  -0.000
   17     Total     3.60568   0.00000      0.000  -0.000   0.000

   18  1 3s         0.74198   0.00000     -0.000  -0.000   0.000
   18  2 3s         0.34202   0.00000      0.000   0.000   0.000
   18  3 3py        0.07004   0.00000      0.000  -0.000   0.000
   18  4 3pz        0.80870   0.00000      0.000   0.000   0.000
   18  5 3px        0.55551   0.00000     -0.000   0.000  -0.000
   18  6 3py        0.52397   0.00000     -0.000   0.000   0.000
   18  7 3pz        0.19839   0.00000     -0.000  -0.000   0.000
   18  8 3px        0.25232   0.00000      0.000   0.000   0.000
   18  9 3Pdxy      0.10249   0.00000      0.000   0.000  -0.000
   18 10 3Pdyz      0.02774   0.00000      0.000  -0.000  -0.000
   18 11 3Pdz2      0.00844   0.00000     -0.000  -0.000  -0.000
   18 12 3Pdxz      0.03123   0.00000     -0.000  -0.000  -0.000
   18 13 3Pdx2-y2   0.11031   0.00000     -0.000   0.000  -0.000
   18     Total     3.77313   0.00000     -0.000   0.000   0.000

   19  1 3s         0.46071   0.00000      0.000   0.000   0.000
   19  2 3s         0.36465   0.00000     -0.000  -0.000  -0.000
   19  3 3py        0.08747   0.00000     -0.000   0.000   0.000
   19  4 3pz        0.42026   0.00000     -0.000   0.000  -0.000
   19  5 3px        0.32350   0.00000      0.000  -0.000   0.000
   19  6 3py        0.46017   0.00000      0.000  -0.000   0.000
   19  7 3pz        0.18542   0.00000      0.000  -0.000   0.000
   19  8 3px        0.26089   0.00000     -0.000  -0.000   0.000
   19  9 3Pdxy      0.33383   0.00000     -0.000  -0.000   0.000
   19 10 3Pdyz      0.18889   0.00000     -0.000  -0.000   0.000
   19 11 3Pdz2      0.01386   0.00000      0.000  -0.000  -0.000
   19 12 3Pdxz      0.09449   0.00000     -0.000   0.000   0.000
   19 13 3Pdx2-y2   0.24433   0.00000      0.000  -0.000   0.000
   19     Total     3.43849   0.00000     -0.000  -0.000   0.000

   20  1 3s         0.67494   0.00000     -0.000   0.000   0.000
   20  2 3s         0.37722   0.00000      0.000   0.000  -0.000
   20  3 3py        0.33155   0.00000     -0.000  -0.000  -0.000
   20  4 3pz        0.60124   0.00000     -0.000  -0.000  -0.000
   20  5 3px        0.13994   0.00000      0.000   0.000   0.000
   20  6 3py        0.28897   0.00000      0.000   0.000   0.000
   20  7 3pz        0.16316   0.00000      0.000   0.000  -0.000
   20  8 3px        0.49946   0.00000     -0.000   0.000   0.000
   20  9 3Pdxy      0.09949   0.00000     -0.000  -0.000  -0.000
   20 10 3Pdyz      0.13165   0.00000     -0.000   0.000  -0.000
   20 11 3Pdz2      0.00749   0.00000     -0.000   0.000   0.000
   20 12 3Pdxz      0.02666   0.00000      0.000   0.000   0.000
   20 13 3Pdx2-y2   0.17437   0.00000      0.000   0.000  -0.000
   20     Total     3.51615   0.00000     -0.000  -0.000  -0.000

----------------------------------------------------------------
Total              89.06216   0.00000     -0.000   0.000   0.000


Species: H                   

Atom      Orb        Charge      Spin       Svec
----------------------------------------------------------------
   12  1 1s         0.48364   0.00000      0.000   0.000  -0.000
   12  2 1s         0.18289   0.00000     -0.000  -0.000  -0.000
   12  3 2Ppy       0.03053   0.00000      0.000   0.000  -0.000
   12  4 2Ppz       0.03099   0.00000      0.000  -0.000  -0.000
   12  5 2Ppx       0.02911   0.00000      0.000  -0.000  -0.000
   12     Total     0.75716   0.00000      0.000  -0.000  -0.000

   13  1 1s         1.02001   0.00000     -0.000  -0.000  -0.000
   13  2 1s         0.09531   0.00000      0.000   0.000   0.000
   13  3 2Ppy       0.01807   0.00000     -0.000  -0.000  -0.000
   13  4 2Ppz       0.02012   0.00000     -0.000   0.000   0.000
   13  5 2Ppx       0.03505   0.00000      0.000   0.000   0.000
   13     Total     1.18856   0.00000     -0.000  -0.000  -0.000

   14  1 1s         0.47207   0.00000      0.000  -0.000  -0.000
   14  2 1s         0.19846   0.00000     -0.000  -0.000  -0.000
   14  3 2Ppy       0.01904   0.00000      0.000   0.000   0.000
   14  4 2Ppz       0.04637   0.00000     -0.000  -0.000  -0.000
   14  5 2Ppx       0.01828   0.00000     -0.000  -0.000  -0.000
   14     Total     0.75424   0.00000      0.000  -0.000  -0.000

   15  1 1s         0.47326   0.00000      0.000   0.000  -0.000
   15  2 1s         0.17755   0.00000     -0.000   0.000  -0.000
   15  3 2Ppy       0.01434   0.00000     -0.000   0.000   0.000
   15  4 2Ppz       0.03740   0.00000      0.000  -0.000  -0.000
   15  5 2Ppx       0.05051   0.00000     -0.000   0.000  -0.000
   15     Total     0.75305   0.00000     -0.000   0.000  -0.000

   16  1 1s         0.50907   0.00000      0.000   0.000  -0.000
   16  2 1s         0.18741   0.00000     -0.000  -0.000  -0.000
   16  3 2Ppy       0.02976   0.00000     -0.000   0.000   0.000
   16  4 2Ppz       0.03960   0.00000     -0.000  -0.000  -0.000
   16  5 2Ppx       0.02350   0.00000      0.000   0.000  -0.000
   16     Total     0.78935   0.00000      0.000   0.000  -0.000

   24  1 1s         1.06229   0.00000     -0.000  -0.000  -0.000
   24  2 1s         0.07415   0.00000      0.000   0.000   0.000
   24  3 2Ppy       0.03237   0.00000      0.000   0.000   0.000
   24  4 2Ppz       0.03026   0.00000      0.000   0.000   0.000
   24  5 2Ppx       0.01739   0.00000      0.000  -0.000  -0.000
   24     Total     1.21646   0.00000     -0.000  -0.000  -0.000

   25  1 1s         1.04246   0.00000     -0.000  -0.000  -0.000
   25  2 1s         0.08672   0.00000      0.000   0.000  -0.000
   25  3 2Ppy       0.01224   0.00000     -0.000   0.000  -0.000
   25  4 2Ppz       0.01880   0.00000      0.000  -0.000  -0.000
   25  5 2Ppx       0.03566   0.00000      0.000  -0.000   0.000
   25     Total     1.19589   0.00000     -0.000  -0.000  -0.000

   26  1 1s         0.48223   0.00000      0.000  -0.000  -0.000
   26  2 1s         0.19540   0.00000      0.000   0.000  -0.000
   26  3 2Ppy       0.02241   0.00000      0.000  -0.000   0.000
   26  4 2Ppz       0.04812   0.00000     -0.000  -0.000  -0.000
   26  5 2Ppx       0.01703   0.00000      0.000  -0.000  -0.000
   26     Total     0.76519   0.00000      0.000  -0.000  -0.000

   27  1 1s         0.48196   0.00000      0.000  -0.000  -0.000
   27  2 1s         0.16894   0.00000      0.000  -0.000  -0.000
   27  3 2Ppy       0.01965   0.00000     -0.000   0.000  -0.000
   27  4 2Ppz       0.03348   0.00000     -0.000  -0.000  -0.000
   27  5 2Ppx       0.05293   0.00000      0.000   0.000  -0.000
   27     Total     0.75696   0.00000      0.000  -0.000  -0.000

   29  1 1s         0.48811   0.00000      0.000  -0.000  -0.000
   29  2 1s         0.18738   0.00000      0.000  -0.000  -0.000
   29  3 2Ppy       0.02503   0.00000      0.000  -0.000  -0.000
   29  4 2Ppz       0.03484   0.00000      0.000  -0.000  -0.000
   29  5 2Ppx       0.02562   0.00000      0.000   0.000  -0.000
   29     Total     0.76097   0.00000      0.000  -0.000  -0.000

----------------------------------------------------------------
Total              98.00000   0.00000      0.000   0.000   0.000


siesta: Eigenvalues (eV):
ik =     1
  -22.2723  -22.2723  -21.8964  -21.8964  -21.3355  -21.3355  -21.2571  -21.2571  -21.1922  -21.1922
  -21.1580  -21.1580  -20.5567  -20.5567  -19.6486  -19.6486  -19.5278  -19.5278  -19.3539  -19.3539
  -14.7923  -14.7923  -13.7964  -13.7964  -13.2980  -13.2980  -13.1005  -13.1005  -12.8786  -12.8786
  -12.8203  -12.8203  -12.5589  -12.5589  -12.1933  -12.1933  -11.9993  -11.9993  -11.9118  -11.9118
  -11.1739  -11.1739  -10.8370  -10.8370  -10.6423  -10.6423  -10.5535  -10.5535  -10.1743  -10.1743
   -9.6191   -9.6191   -9.0978   -9.0978   -8.8709   -8.8709   -8.7843   -8.7843   -8.6278   -8.6278
   -8.5322   -8.5322   -8.4693   -8.4693   -8.1105   -8.1105   -8.0602   -8.0602   -7.7654   -7.7654
   -7.6923   -7.6923   -7.3717   -7.3717   -7.1627   -7.1627   -6.9425   -6.9425   -6.7359   -6.7359
   -6.6447   -6.6447   -6.4357   -6.4357   -6.3060   -6.3060   -6.2899   -6.2899   -6.1877   -6.1877
   -6.1475   -6.1475   -5.8914   -5.8914   -5.5650   -5.5650   -4.3029   -4.3029   -3.2703   -3.2703
   -2.3451   -2.3451   -2.3308   -2.3308   -2.1944   -2.1944   -1.8678   -1.8678   -1.8502   -1.8502
   -1.8355   -1.8355   -1.7206   -1.7206   -1.6135   -1.6135   -1.3041   -1.3041   -1.1660   -1.1660
   -0.9900   -0.9900   -0.6596   -0.6596   -0.3603   -0.3603   -0.3212   -0.3212    0.2492    0.2492
    0.4695    0.4695    0.5010    0.5010    0.6312    0.6312    0.8950    0.8950    1.1294    1.1294
    1.2771    1.2771    1.3276    1.3276    1.3990    1.3990    1.4512    1.4512    1.8289    1.8289
    1.9681    1.9681    2.0863    2.0863    2.5442    2.5442    2.6221    2.6221    2.7494    2.7494
    2.7584    2.7584    2.8360    2.8360    2.9375    2.9375    3.4379    3.4379    3.4406    3.4406
    3.7622    3.7622    4.0278    4.0278    4.0446    4.0446    4.1599    4.1599    4.2276    4.2276
    4.4971    4.4971    4.6731    4.6731    4.6971    4.6971    4.7000    4.7000    5.0533    5.0533
    5.0830    5.0830    5.2130    5.2130    5.2995    5.2995    5.5353    5.5353    5.6531    5.6531
    5.9264    5.9264    5.9870    5.9870    5.9997    5.9997    6.3462    6.3462    6.4431    6.4431
    6.4922    6.4922    6.5924    6.5924    6.6419    6.6419    6.7260    6.7260    7.0041    7.0041
    7.1493    7.1493    7.2846    7.2846    7.5756    7.5756    7.7667    7.7667    7.8969    7.8969
    8.0271    8.0271    8.0927    8.0927    8.1453    8.1453    8.3802    8.3802    8.6634    8.6634
    8.8165    8.8165    8.8426    8.8426    8.8806    8.8806    9.0104    9.0104    9.3358    9.3358
    9.4163    9.4163    9.7637    9.7637    9.8259    9.8259    9.8877    9.8877   10.0596   10.0596
   10.1934   10.1934   10.3818   10.3818   10.6027   10.6027   11.0446   11.0446   11.1654   11.1654
   11.2247   11.2247   11.4948   11.4948   11.9468   11.9468   12.0303   12.0303   12.0860   12.0860
   12.2711   12.2711   12.3846   12.3846   12.4624   12.4624   12.5258   12.5258   12.8114   12.8114
   13.0244   13.0244   13.2209   13.2209   13.5315   13.5315   13.6144   13.6144   13.7640   13.7640
   14.1100   14.1100   14.1446   14.1446   14.4919   14.4919   14.7468   14.7468   14.9383   14.9383
   15.2469   15.2469   15.5543   15.5543   16.1639   16.1639   16.6303   16.6303   16.7115   16.7115
   17.0455   17.0455   17.4851   17.4851   17.7667   17.7667   18.5755   18.5755   18.7480   18.7480
   19.1121   19.1121   19.5667   19.5667   20.2054   20.2054   20.2674   20.2674   20.2830   20.2830
   21.0748   21.0748   21.8101   21.8101   22.1299   22.1299   22.3737   22.3737   23.0312   23.0312
   23.4300   23.4300   23.6651   23.6651   23.9511   23.9511   24.2038   24.2038   24.9028   24.9028
   25.1071   25.1071   25.4985   25.4985   26.2215   26.2215   27.3447   27.3447   28.3928   28.3928
   29.1200   29.1200   29.5500   29.5500   29.7632   29.7632   29.8401   29.8401   30.1912   30.1912
   30.3935   30.3935   30.5636   30.5636   30.8895   30.8895   30.9358   30.9358   31.2551   31.2551
   31.3777   31.3777   31.7492   31.7492   32.0975   32.0975   33.0195   33.0195   33.4068   33.4068
   34.1078   34.1078   34.1421   34.1421   34.5426   34.5426   34.6398   34.6398   35.1151   35.1151
   35.4577   35.4577   35.6799   35.6799   35.8308   35.8308   37.0536   37.0536   37.4013   37.4013
   37.9754   37.9754   38.1652   38.1652   38.4440   38.4440   38.7243   38.7243   39.0640   39.0640
   39.3654   39.3654   39.6504   39.6504   40.7070   40.7070   40.7990   40.7990   40.9034   40.9034
   41.2588   41.2588   41.3699   41.3699   41.4425   41.4425   41.6971   41.6971   42.0753   42.0753
   43.0185   43.0185   43.3665   43.3665   43.4060   43.4060   43.7913   43.7913   44.1428   44.1428
   44.2733   44.2733   44.7505   44.7505   44.7972   44.7972   45.0686   45.0686   45.1379   45.1379
   45.6085   45.6085   46.6008   46.6008   46.7627   46.7627   47.4922   47.4922   47.5490   47.5490
   48.0488   48.0488   49.1318   49.1318   49.8487   49.8487   50.0130   50.0130   50.2568   50.2568
   50.4871   50.4871   51.2133   51.2133   51.3669   51.3669   51.7684   51.7684   51.9523   51.9523
   52.9257   52.9257   52.9415   52.9415   54.0308   54.0308   55.2546   55.2546   55.3553   55.3553
   55.5146   55.5146   55.7920   55.7920   56.0331   56.0331   57.2878   57.2878   57.4690   57.4690
   57.6763   57.6763   58.4387   58.4387   58.5060   58.5060   59.6608   59.6608   60.7093   60.7093
   61.3756   61.3756   61.4031   61.4031   61.7682   61.7682   61.8996   61.8996   63.7555   63.7555
   65.1056   65.1056   65.1237   65.1237   65.6035   65.6035   65.6964   65.6964   67.1810   67.1810
   67.7459   67.7459   68.5904   68.5904   69.8315   69.8315   71.4779   71.4779   72.4305   72.4305
   75.1603   75.1603   85.2660   85.2660   91.8348   91.8348   92.2450   92.2450   94.0323   94.0323
   98.6950   98.6950   99.3930   99.3930  101.8486  101.8486  103.6911  103.6911  104.8539  104.8539
  112.9432  112.9432  115.2624  115.2624  124.2967  124.2967  126.7114  126.7114  133.9157  133.9157
  139.9531  139.9531  142.6948  142.6948
siesta: Fermi energy =      -3.786775 eV

siesta: Program's energy decomposition (eV):
siesta: Ebs     =     -1133.083792
siesta: Eions   =      3585.165840
siesta: Ena     =       381.867031
siesta: Ekin    =      2904.195368
siesta: Enl     =     -2789.566085
siesta: Eso     =        -0.004293
siesta: Edftu   =         0.000000
siesta: DEna    =        47.553358
siesta: DUscf   =        13.892362
siesta: DUext   =         0.000000
siesta: Exc     =     -1120.300639
siesta: eta*DQ  =         0.000000
siesta: Emadel  =         0.000000
siesta: Emeta   =         0.000000
siesta: Emolmec =         0.000000
siesta: Ekinion =         0.000000
siesta: Eharris =     -4147.528738
siesta: Etot    =     -4147.528738
siesta: FreeEng =     -4147.528738

siesta: Final energy (eV):
siesta:  Band Struct. =   -1133.083792
siesta:       Kinetic =    2904.195368
siesta:       Hartree =    8746.657352
siesta:       Edftu   =       0.000000
siesta:       Eso     =      -0.004293
siesta:    Ext. field =       0.000000
siesta:   Exch.-corr. =   -1120.300639
siesta:  Ion-electron =  -20076.283177
siesta:       Ion-ion =    5398.206651
siesta:       Ekinion =       0.000000
siesta:         Total =   -4147.528738
siesta:         Fermi =      -3.786775

siesta: Atomic forces (eV/Ang):
siesta:      1    2.651175   -1.388021   -0.000000
siesta:      2    0.016310   -0.029694    0.000000
siesta:      3    0.462882   -0.141323   -0.000000
siesta:      4    0.395487   -0.003883    0.000000
siesta:      5    0.030451   -0.045304   -0.000000
siesta:      6    1.329729    0.594599    0.000000
siesta:      7    0.023172   -0.138206   -0.000000
siesta:      8   -0.209212    0.154104    0.000000
siesta:      9   -0.041998    0.693755    0.000000
siesta:     10   -0.487350    0.239841   -0.000000
siesta:     11   -0.013307   -0.012243   -0.000000
siesta:     12   -0.281118   -0.212509   -0.000000
siesta:     13    0.044355   -0.016502    0.000000
siesta:     14    0.249761   -0.048686    0.000000
siesta:     15   -0.774308   -0.498380   -0.000000
siesta:     16    0.021229    0.143403   -0.000000
siesta:     17    0.490756   -0.654069    0.000000
siesta:     18   -0.119090    0.112475   -0.000000
siesta:     19   -0.152265   -0.614831   -0.000000
siesta:     20   -0.018915   -0.224348    0.000000
siesta:     21   -0.172083    0.505567   -0.000000
siesta:     22   -1.635499   -0.840254    0.000000
siesta:     23    0.115223    0.258489    0.000000
siesta:     24    0.089152   -0.168685    0.000000
siesta:     25    0.004332   -0.112588   -0.000000
siesta:     26   -0.233498   -0.263790   -0.000000
siesta:     27    0.984224    0.869609   -0.000000
siesta:     28   -3.288338   -2.571821    0.000000
siesta:     29   -0.046838    0.091636    0.000000
siesta: ----------------------------------------
siesta:    Tot   -0.565584   -4.321659    0.000000

siesta: Stress tensor (static) (eV/Ang**3):
siesta:     0.000475    0.000979    0.000000
siesta:     0.000979    0.000986    0.000000
siesta:    -0.000000    0.000000   -0.000069

siesta: Cell volume =       4598.481737 Ang**3

siesta: Pressure (static):
siesta:                Solid            Molecule  Units
siesta:          -0.00000505          0.00001417  Ry/Bohr**3
siesta:          -0.00046395          0.00130072  eV/Ang**3
siesta:          -0.74333353          2.08400594  kBar
(Free)E+ p_basis*V_orbitals  =       -4127.678321
(Free)Eharris+ p_basis*V_orbitals  =       -4127.678321
     spin moment: S , {S} =    0.00000   0.00000   0.00000   0.00000

siesta: Electric dipole (a.u.)  =    1.657100    0.144439   -0.000000
siesta: Electric dipole (Debye) =    4.211931    0.367126   -0.000000

cite: Please see "GC.bib" for an exhaustive BiBTeX file.
cite: Please clearly indicate Siesta version in published work: v4.1.5-1-g384057250
cite: This calculation has made use of the following articles
cite: which are encouraged to be cited in a published work.
        Primary SIESTA paper
          DOI: www.doi.org/10.1088/0953-8984/14/11/302
        Spin-orbit coupling (on-site approximation)
          DOI: www.doi.org/10.1088/0953-8984/19/19/489001


WARNING: alloc-realloc-dealloc name mismatch
         Name: atomlist isa
         Size:              -116. Bytes
         Node:     0
         Subsequent mismatches will not be reported
>> End of run:  28-JUN-2023  18:50:58
Job completed
