Siesta Version  : v4.1.5-1-g384057250
Architecture    : gcc
Compiler version: GNU Fortran (Ubuntu 11.3.0-1ubuntu1~22.04) 11.3.0
Compiler flags  : mpifort -O2 -fPIC -ftree-vectorize -fallow-argument-mismatch
PP flags        : -DFC_HAVE_ABORT -DMPI -DSIESTA__FLOOK -DSIESTA__METIS -DSIESTA__MUMPS -DCDF -DNCDF -DNCDF_4 -DNCDF_PARALLEL -DSIESTA__MRRR -DSIESTA__ELPA
Libraries       : libncdf.a libfdict.a  -lflookall -ldl -lnetcdff -lnetcdf -lhdf5_hl -lhdf5 -lhdf5_fortran -lz -lscalapack-openmpi -lopenblas -lmetis -lzmumps -lcmumps -ldmumps -lmumps_common -lpord -lsmumps -lesmumps -lscotch -lscotcherr -fopenmp -lelpa
PARALLEL version
NetCDF support
NetCDF-4 support
NetCDF-4 MPI-IO support
METIS ordering support
Lua support

* Running on 4 nodes in parallel
>> Start of run:  28-JUN-2023  18:38:00

                           ***********************       
                           *  WELCOME TO SIESTA  *       
                           ***********************       

reinit: Reading from standard input
reinit: Dumped input in INPUT_TMP.37866
************************** Dump of input data file ****************************
SystemLabel      GC
NumberOfAtoms    29
NumberOfSpecies  4
%block ChemicalSpeciesLabel
    1    8  O
    2    7  N
    3   14  Si
    4    1  H
%endblock ChemicalSpeciesLabel
# Single point calculation
MD.TypeOfRun                CG
MD.Steps                    0
SCF.MustConverge            F # In case it does not. There can be 2 very close atoms
AtomicCoordinatesFormat NotScaledCartesianAng
%block AtomicCoordinatesAndAtomicSpecies
1.043624880    3.939228610    0.000000000       1
-3.040641290   1.071078170    0.000000000       2
2.054601450    1.213582070    0.000000000       2
0.999014100    -1.732643800   0.000000000       2
-2.132351640   -1.812968220   0.000000000       2
3.860190550    -1.112298180   0.000000000       2
-1.236183220   1.152964460    0.000000000       3
-0.532924260   -0.939006270   0.000000000       3
0.635660470    2.374516770    0.000000000       3
2.245170240    -0.549967100   0.000000000       3
-3.449816660   -0.583665030   0.000000000       3
2.963714090    1.790992630    0.000000000       4
-4.845591350   -1.123549660   0.000000000       4
4.007020910    -2.152308560   0.000000000       4
4.772194380    -0.502318160   0.000000000       4
-2.265399090   -2.864605110   0.000000000       4
5.010618335    4.948503680    0.000000000       3
6.915502305    6.155142620    0.000000000       3
6.419748165    2.182168710    0.000000000       3
8.497218455    4.651385870    0.000000000       3
5.070241005    3.231076110    0.000000000       2
3.471483275    5.702180990    0.000000000       2
8.072043425    2.912005930    0.000000000       2
7.106847105    7.647296370    0.000000000       4
9.981586435    4.870116690    0.000000000       4
3.360137995    6.751376100    0.000000000       4
2.538925565    5.077266810    0.000000000       4
6.409521335    0.574057590    0.000000000       1
8.847469305    2.185314370    0.000000000       4
%endblock AtomicCoordinatesAndAtomicSpecies
%include ../../../Defaults.fdf
************************** End of input data file *****************************

reinit: -----------------------------------------------------------------------
reinit: System Name: 
reinit: -----------------------------------------------------------------------
reinit: System Label: GC
reinit: -----------------------------------------------------------------------

initatom: Reading input for the pseudopotentials and atomic orbitals ----------
Species number:   1 Atomic number:    8 Label: O
Species number:   2 Atomic number:    7 Label: N
Species number:   3 Atomic number:   14 Label: Si
Species number:   4 Atomic number:    1 Label: H

Ground state valence configuration:   2s02  2p04
Reading pseudopotential information in formatted form from O.psf

Pseudopotential generated from a relativistic atomic calculation

Valence configuration for pseudopotential generation:
2s( 2.00) rc: 0.45
2p( 4.00) rc: 0.92
3d( 0.00) rc: 2.24
4f( 0.00) rc: 0.25
Ground state valence configuration:   2s02  2p03
Reading pseudopotential information in formatted form from N.psf

Pseudopotential generated from a relativistic atomic calculation

Valence configuration for pseudopotential generation:
2s( 2.00) rc: 0.94
2p( 3.00) rc: 0.59
3d( 0.00) rc: 3.46
4f( 0.00) rc: 2.47
Ground state valence configuration:   3s02  3p02
Reading pseudopotential information in formatted form from Si.psf

Pseudopotential generated from a relativistic atomic calculation

Valence configuration for pseudopotential generation:
3s( 2.00) rc: 1.67
3p( 2.00) rc: 2.04
3d( 0.00) rc: 2.89
4f( 0.00) rc: 2.49
Ground state valence configuration:   1s01
Reading pseudopotential information in formatted form from H.psf

Pseudopotential generated from a relativistic atomic calculation

Valence configuration for pseudopotential generation:
1s( 1.00) rc: 0.01
2p( 0.00) rc: 0.60
3d( 0.00) rc: 1.99
4f( 0.00) rc: 2.49
For O, standard SIESTA heuristics set lmxkb to 3
 (one more than the basis l, including polarization orbitals).
Use PS.lmax or PS.KBprojectors blocks to override.
For N, standard SIESTA heuristics set lmxkb to 3
 (one more than the basis l, including polarization orbitals).
Use PS.lmax or PS.KBprojectors blocks to override.
For Si, standard SIESTA heuristics set lmxkb to 3
 (one more than the basis l, including polarization orbitals).
Use PS.lmax or PS.KBprojectors blocks to override.
For H, standard SIESTA heuristics set lmxkb to 2
 (one more than the basis l, including polarization orbitals).
Use PS.lmax or PS.KBprojectors blocks to override.

<basis_specs>
===============================================================================
O                    Z=   8    Mass=  16.000        Charge= 0.17977+309
Lmxo=1 Lmxkb= 3    BasisType=split      Semic=F
L=0  Nsemic=0  Cnfigmx=2
          i=1  nzeta=2  polorb=0  (2s)
            splnorm:   0.28000    
               vcte:    0.0000    
               rinn:    0.0000    
               qcoe:    0.0000    
               qyuk:    0.0000    
               qwid:   0.10000E-01
                rcs:    0.0000      0.0000    
            lambdas:    1.0000      1.0000    
L=1  Nsemic=0  Cnfigmx=2
          i=1  nzeta=2  polorb=1  (2p)
            splnorm:   0.28000    
               vcte:    0.0000    
               rinn:    0.0000    
               qcoe:    0.0000    
               qyuk:    0.0000    
               qwid:   0.10000E-01
                rcs:    0.0000      0.0000    
            lambdas:    1.0000      1.0000    
-------------------------------------------------------------------------------
L=0  Nkbl=1  erefs: 0.17977+309
L=1  Nkbl=1  erefs: 0.17977+309
L=2  Nkbl=1  erefs: 0.17977+309
L=3  Nkbl=1  erefs: 0.17977+309
===============================================================================
</basis_specs>

atom: Called for O                     (Z =   8)

read_vps: Pseudopotential generation method:
read_vps: ATM4.2.7  Troullier-Martins                       
Valence charge for ps generation:    6.00000

xc_check: Exchange-correlation functional:
xc_check: GGA Perdew, Burke & Ernzerhof 1996
V l=0 = -2*Zval/r beyond r=  1.1000
V l=1 = -2*Zval/r beyond r=  1.1000
V l=2 = -2*Zval/r beyond r=  2.2154
V l=3 = -2*Zval/r beyond r=  1.1000
All V_l potentials equal beyond r=  2.2154
This should be close to max(r_c) in ps generation
All pots = -2*Zval/r beyond r=  2.2154

VLOCAL1: 99.0% of the norm of Vloc inside      8.845 Ry
VLOCAL1: 99.9% of the norm of Vloc inside     20.157 Ry
atom: Maximum radius for 4*pi*r*r*local-pseudopot. charge    2.67231
atom: Maximum radius for r*vlocal+2*Zval:    2.32897
GHOST: No ghost state for L =  0
GHOST: No ghost state for L =  1
GHOST: No ghost state for L =  2
GHOST: No ghost state for L =  3

KBgen: Kleinman-Bylander projectors: 
   l= 0   rc=  2.243238   el= -1.759686   Ekb=**********   kbcos= -0.171774
   l= 1   rc=  2.328968   el= -0.663873   Ekb=-14.506792   kbcos= -0.519897
   l= 2   rc=  2.573941   el=  0.002031   Ekb= -1.137373   kbcos= -0.019581
   l= 3   rc=  2.606321   el=  0.003153   Ekb= -1.013546   kbcos= -0.003122

KBgen: Total number of Kleinman-Bylander projectors:   16
atom: -------------------------------------------------------------------------

atom: SANKEY-TYPE ORBITALS:
atom: Selected multiple-zeta basis: split     

SPLIT: Orbitals with angular momentum L= 0

SPLIT: Basis orbitals for state 2s

SPLIT: PAO cut-off radius determined from an
SPLIT: energy shift=  0.002000 Ry

   izeta = 1
                 lambda =    1.000000
                     rc =    4.243912
                 energy =   -1.758270
                kinetic =    3.286084
    potential(screened) =   -5.044353
       potential(ionic) =  -12.921184

   izeta = 2
                 rmatch =    2.187845
              splitnorm =    0.280000
                 energy =   -0.885018
                kinetic =    8.134434
    potential(screened) =   -9.019452
       potential(ionic) =  -17.710645

SPLIT: Orbitals with angular momentum L= 1

SPLIT: Basis orbitals for state 2p

SPLIT: PAO cut-off radius determined from an
SPLIT: energy shift=  0.002000 Ry

   izeta = 1
                 lambda =    1.000000
                     rc =    5.314825
                 energy =   -0.661986
                kinetic =    4.917472
    potential(screened) =   -5.579458
       potential(ionic) =  -13.236259

   izeta = 2
                 rmatch =    2.160663
              splitnorm =    0.280000
                 energy =   -0.068760
                kinetic =    9.183374
    potential(screened) =   -9.252135
       potential(ionic) =  -18.274251

POLgen: Perturbative polarization orbital with L=  2

POLgen: Polarization orbital for state 2p

   izeta = 1
                     rc =    5.314825
                 energy =    1.970580
                kinetic =    3.886128
    potential(screened) =   -1.915547
       potential(ionic) =   -7.749584
atom: Total number of Sankey-type orbitals: 13

atm_pop: Valence configuration (for local Pseudopot. screening):
 2s( 2.00)                                                            
 2p( 4.00)                                                            
Vna: chval, zval:    6.00000   6.00000

Vna:  Cut-off radius for the neutral-atom potential:   5.314825

atom: _________________________________________________________________________

<basis_specs>
===============================================================================
N                    Z=   7    Mass=  14.010        Charge= 0.17977+309
Lmxo=1 Lmxkb= 3    BasisType=split      Semic=F
L=0  Nsemic=0  Cnfigmx=2
          i=1  nzeta=2  polorb=0  (2s)
            splnorm:   0.28000    
               vcte:    0.0000    
               rinn:    0.0000    
               qcoe:    0.0000    
               qyuk:    0.0000    
               qwid:   0.10000E-01
                rcs:    0.0000      0.0000    
            lambdas:    1.0000      1.0000    
L=1  Nsemic=0  Cnfigmx=2
          i=1  nzeta=2  polorb=1  (2p)
            splnorm:   0.28000    
               vcte:    0.0000    
               rinn:    0.0000    
               qcoe:    0.0000    
               qyuk:    0.0000    
               qwid:   0.10000E-01
                rcs:    0.0000      0.0000    
            lambdas:    1.0000      1.0000    
-------------------------------------------------------------------------------
L=0  Nkbl=1  erefs: 0.17977+309
L=1  Nkbl=1  erefs: 0.17977+309
L=2  Nkbl=1  erefs: 0.17977+309
L=3  Nkbl=1  erefs: 0.17977+309
===============================================================================
</basis_specs>

atom: Called for N                     (Z =   7)

read_vps: Pseudopotential generation method:
read_vps: ATM4.2.7  Troullier-Martins                       
Valence charge for ps generation:    5.00000

xc_check: Exchange-correlation functional:
xc_check: GGA Perdew, Burke & Ernzerhof 1996
V l=0 = -2*Zval/r beyond r=  1.2889
V l=1 = -2*Zval/r beyond r=  1.2889
V l=2 = -2*Zval/r beyond r=  3.4178
V l=3 = -2*Zval/r beyond r=  2.4084
All V_l potentials equal beyond r=  3.3753
This should be close to max(r_c) in ps generation
All pots = -2*Zval/r beyond r=  3.4178

VLOCAL1: 99.0% of the norm of Vloc inside      3.810 Ry
VLOCAL1: 99.9% of the norm of Vloc inside      8.683 Ry
atom: Maximum radius for 4*pi*r*r*local-pseudopot. charge    4.02088
atom: Maximum radius for r*vlocal+2*Zval:    3.54838
GHOST: No ghost state for L =  0
GHOST: No ghost state for L =  1
GHOST: No ghost state for L =  2
GHOST: No ghost state for L =  3

KBgen: Kleinman-Bylander projectors: 
   l= 0   rc=  3.417763   el= -1.365098   Ekb= -4.433130   kbcos= -0.707855
   l= 1   rc=  3.375302   el= -0.521201   Ekb=-13.264039   kbcos= -0.535594
   l= 2   rc=  3.872880   el=  0.001991   Ekb= -0.641094   kbcos= -0.062456
   l= 3   rc=  3.970931   el=  0.003093   Ekb= -0.474517   kbcos= -0.018236

KBgen: Total number of Kleinman-Bylander projectors:   16
atom: -------------------------------------------------------------------------

atom: SANKEY-TYPE ORBITALS:
atom: Selected multiple-zeta basis: split     

SPLIT: Orbitals with angular momentum L= 0

SPLIT: Basis orbitals for state 2s

SPLIT: PAO cut-off radius determined from an
SPLIT: energy shift=  0.002000 Ry

   izeta = 1
                 lambda =    1.000000
                     rc =    4.730425
                 energy =   -1.363399
                kinetic =    1.245246
    potential(screened) =   -2.608645
       potential(ionic) =   -8.121105

   izeta = 2
                 rmatch =    2.531849
              splitnorm =    0.280000
                 energy =   -0.959908
                kinetic =    2.409435
    potential(screened) =   -3.369343
       potential(ionic) =   -9.427975

SPLIT: Orbitals with angular momentum L= 1

SPLIT: Basis orbitals for state 2p

SPLIT: PAO cut-off radius determined from an
SPLIT: energy shift=  0.002000 Ry

   izeta = 1
                 lambda =    1.000000
                     rc =    5.924108
                 energy =   -0.519262
                kinetic =    3.672940
    potential(screened) =   -4.192202
       potential(ionic) =   -9.518354

   izeta = 2
                 rmatch =    2.531849
              splitnorm =    0.280000
                 energy =   -0.104258
                kinetic =    6.807538
    potential(screened) =   -6.911796
       potential(ionic) =  -13.149920

POLgen: Perturbative polarization orbital with L=  2

POLgen: Polarization orbital for state 2p

   izeta = 1
                     rc =    5.924108
                 energy =    1.427508
                kinetic =    2.872379
    potential(screened) =   -1.444871
       potential(ionic) =   -5.563644
atom: Total number of Sankey-type orbitals: 13

atm_pop: Valence configuration (for local Pseudopot. screening):
 2s( 2.00)                                                            
 2p( 3.00)                                                            
Vna: chval, zval:    5.00000   5.00000

Vna:  Cut-off radius for the neutral-atom potential:   5.924108

atom: _________________________________________________________________________

<basis_specs>
===============================================================================
Si                   Z=  14    Mass=  28.090        Charge= 0.17977+309
Lmxo=1 Lmxkb= 3    BasisType=split      Semic=F
L=0  Nsemic=0  Cnfigmx=3
          i=1  nzeta=2  polorb=0  (3s)
            splnorm:   0.28000    
               vcte:    0.0000    
               rinn:    0.0000    
               qcoe:    0.0000    
               qyuk:    0.0000    
               qwid:   0.10000E-01
                rcs:    0.0000      0.0000    
            lambdas:    1.0000      1.0000    
L=1  Nsemic=0  Cnfigmx=3
          i=1  nzeta=2  polorb=1  (3p)
            splnorm:   0.28000    
               vcte:    0.0000    
               rinn:    0.0000    
               qcoe:    0.0000    
               qyuk:    0.0000    
               qwid:   0.10000E-01
                rcs:    0.0000      0.0000    
            lambdas:    1.0000      1.0000    
-------------------------------------------------------------------------------
L=0  Nkbl=1  erefs: 0.17977+309
L=1  Nkbl=1  erefs: 0.17977+309
L=2  Nkbl=1  erefs: 0.17977+309
L=3  Nkbl=1  erefs: 0.17977+309
===============================================================================
</basis_specs>

atom: Called for Si                    (Z =  14)

read_vps: Pseudopotential generation method:
read_vps: ATM4.2.7  Troullier-Martins                       
Valence charge for ps generation:    4.00000

xc_check: Exchange-correlation functional:
xc_check: GGA Perdew, Burke & Ernzerhof 1996
V l=0 = -2*Zval/r beyond r=  2.7826
V l=1 = -2*Zval/r beyond r=  2.7826
V l=2 = -2*Zval/r beyond r=  2.9253
V l=3 = -2*Zval/r beyond r=  2.7826
All V_l potentials equal beyond r=  2.8530
This should be close to max(r_c) in ps generation
All pots = -2*Zval/r beyond r=  2.9253

VLOCAL1: 99.0% of the norm of Vloc inside      5.333 Ry
VLOCAL1: 99.9% of the norm of Vloc inside     12.154 Ry
atom: Maximum radius for 4*pi*r*r*local-pseudopot. charge    3.39869
atom: Maximum radius for r*vlocal+2*Zval:    2.96205
GHOST: No ghost state for L =  0
GHOST: No ghost state for L =  1
GHOST: No ghost state for L =  2
GHOST: No ghost state for L =  3

KBgen: Kleinman-Bylander projectors: 
   l= 0   rc=  3.075247   el= -0.794092   Ekb=  5.879390   kbcos=  0.167461
   l= 1   rc=  3.153101   el= -0.300068   Ekb=  2.642817   kbcos=  0.058301
   l= 2   rc=  3.273594   el=  0.001958   Ekb= -1.185135   kbcos= -0.104411
   l= 3   rc=  3.232927   el=  0.003046   Ekb= -0.497174   kbcos= -0.015889

KBgen: Total number of Kleinman-Bylander projectors:   16
atom: -------------------------------------------------------------------------

atom: SANKEY-TYPE ORBITALS:
atom: Selected multiple-zeta basis: split     

SPLIT: Orbitals with angular momentum L= 0

SPLIT: Basis orbitals for state 3s

SPLIT: PAO cut-off radius determined from an
SPLIT: energy shift=  0.002000 Ry

   izeta = 1
                 lambda =    1.000000
                     rc =    6.429618
                 energy =   -0.792283
                kinetic =    0.525293
    potential(screened) =   -1.317576
       potential(ionic) =   -3.744923

   izeta = 2
                 rmatch =    3.998416
              splitnorm =    0.280000
                 energy =   -0.583081
                kinetic =    1.069570
    potential(screened) =   -1.652651
       potential(ionic) =   -4.235185

SPLIT: Orbitals with angular momentum L= 1

SPLIT: Basis orbitals for state 3p

SPLIT: PAO cut-off radius determined from an
SPLIT: energy shift=  0.002000 Ry

   izeta = 1
                 lambda =    1.000000
                     rc =    8.464845
                 energy =   -0.298236
                kinetic =    0.785360
    potential(screened) =   -1.083596
       potential(ionic) =   -3.273779

   izeta = 2
                 rmatch =    4.587816
              splitnorm =    0.280000
                 energy =   -0.131871
                kinetic =    1.403687
    potential(screened) =   -1.535557
       potential(ionic) =   -4.015310

POLgen: Perturbative polarization orbital with L=  2

POLgen: Polarization orbital for state 3p

   izeta = 1
                     rc =    8.464845
                 energy =    0.321949
                kinetic =    1.055677
    potential(screened) =   -0.733728
       potential(ionic) =   -2.672950
atom: Total number of Sankey-type orbitals: 13

atm_pop: Valence configuration (for local Pseudopot. screening):
 3s( 2.00)                                                            
 3p( 2.00)                                                            
Vna: chval, zval:    4.00000   4.00000

Vna:  Cut-off radius for the neutral-atom potential:   8.464845

atom: _________________________________________________________________________

<basis_specs>
===============================================================================
H                    Z=   1    Mass=  1.0100        Charge= 0.17977+309
Lmxo=0 Lmxkb= 2    BasisType=split      Semic=F
L=0  Nsemic=0  Cnfigmx=1
          i=1  nzeta=2  polorb=1  (1s)
            splnorm:   0.62000    
               vcte:    0.0000    
               rinn:    0.0000    
               qcoe:    0.0000    
               qyuk:    0.0000    
               qwid:   0.10000E-01
                rcs:    0.0000      0.0000    
            lambdas:    1.0000      1.0000    
-------------------------------------------------------------------------------
L=0  Nkbl=1  erefs: 0.17977+309
L=1  Nkbl=1  erefs: 0.17977+309
L=2  Nkbl=1  erefs: 0.17977+309
===============================================================================
</basis_specs>

atom: Called for H                     (Z =   1)

read_vps: Pseudopotential generation method:
read_vps: ATM4.2.7  Troullier-Martins                       
Valence charge for ps generation:    1.00000

xc_check: Exchange-correlation functional:
xc_check: GGA Perdew, Burke & Ernzerhof 1996
V l=0 = -2*Zval/r beyond r=  0.0098
V l=1 = -2*Zval/r beyond r=  0.5817
V l=2 = -2*Zval/r beyond r=  1.9372
All V_l potentials equal beyond r=  1.9372
This should be close to max(r_c) in ps generation
All pots = -2*Zval/r beyond r=  1.9372

VLOCAL1: 99.0% of the norm of Vloc inside     11.567 Ry
VLOCAL1: 99.9% of the norm of Vloc inside     26.362 Ry
atom: Maximum radius for 4*pi*r*r*local-pseudopot. charge    2.25106
atom: Maximum radius for r*vlocal+2*Zval:    1.91306
GHOST: No ghost state for L =  0
GHOST: No ghost state for L =  1
GHOST: No ghost state for L =  2

KBgen: Kleinman-Bylander projectors: 
   l= 0   rc=  2.036604   el= -0.477180   Ekb= -6.081590   kbcos= -0.277285
   l= 1   rc=  2.195416   el=  0.001076   Ekb= -0.926943   kbcos= -0.034643
   l= 2   rc=  2.251056   el=  0.002010   Ekb= -0.130941   kbcos= -0.009788

KBgen: Total number of Kleinman-Bylander projectors:    9
atom: -------------------------------------------------------------------------

atom: SANKEY-TYPE ORBITALS:
atom: Selected multiple-zeta basis: split     

SPLIT: Orbitals with angular momentum L= 0

SPLIT: Basis orbitals for state 1s

SPLIT: PAO cut-off radius determined from an
SPLIT: energy shift=  0.002000 Ry

   izeta = 1
                 lambda =    1.000000
                     rc =    6.518340
                 energy =   -0.475305
                kinetic =    0.912139
    potential(screened) =   -1.387444
       potential(ionic) =   -1.907295

   izeta = 2
                 rmatch =    2.141150
              splitnorm =    0.620000
                 energy =    0.566467
                kinetic =    3.772856
    potential(screened) =   -3.206389
       potential(ionic) =   -3.759093

POLgen: Perturbative polarization orbital with L=  1

POLgen: Polarization orbital for state 1s

   izeta = 1
                     rc =    6.518340
                 energy =    0.533861
                kinetic =    1.121086
    potential(screened) =   -0.587225
       potential(ionic) =   -1.053027
atom: Total number of Sankey-type orbitals:  5

atm_pop: Valence configuration (for local Pseudopot. screening):
 1s( 1.00)                                                            
Vna: chval, zval:    1.00000   1.00000

Vna:  Cut-off radius for the neutral-atom potential:   6.518340

atom: _________________________________________________________________________

prinput: Basis input ----------------------------------------------------------

PAO.BasisType split     

%block ChemicalSpeciesLabel
    1    8 O                       # Species index, atomic number, species label
    2    7 N                       # Species index, atomic number, species label
    3   14 Si                      # Species index, atomic number, species label
    4    1 H                       # Species index, atomic number, species label
%endblock ChemicalSpeciesLabel

%block PAO.Basis                 # Define Basis set
O                     2                    # Species label, number of l-shells
 n=2   0   2                         # n, l, Nzeta 
   4.244      2.188   
   1.000      1.000   
 n=2   1   2 P   1                   # n, l, Nzeta, Polarization, NzetaPol
   5.315      2.161   
   1.000      1.000   
N                     2                    # Species label, number of l-shells
 n=2   0   2                         # n, l, Nzeta 
   4.730      2.532   
   1.000      1.000   
 n=2   1   2 P   1                   # n, l, Nzeta, Polarization, NzetaPol
   5.924      2.532   
   1.000      1.000   
Si                    2                    # Species label, number of l-shells
 n=3   0   2                         # n, l, Nzeta 
   6.430      3.998   
   1.000      1.000   
 n=3   1   2 P   1                   # n, l, Nzeta, Polarization, NzetaPol
   8.465      4.588   
   1.000      1.000   
H                     1                    # Species label, number of l-shells
 n=1   0   2 P   1                   # n, l, Nzeta, Polarization, NzetaPol
   6.518      2.141   
   1.000      1.000   
%endblock PAO.Basis

prinput: ----------------------------------------------------------------------

Dumping basis to NetCDF file O.ion.nc
Dumping basis to NetCDF file N.ion.nc
Dumping basis to NetCDF file Si.ion.nc
Dumping basis to NetCDF file H.ion.nc
coor:   Atomic-coordinates input format  =     Cartesian coordinates
coor:                                          (in Angstroms)

siesta: Atomic coordinates (Bohr) and species
siesta:      1.97217   7.44407   0.00000  1        1
siesta:     -5.74598   2.02405   0.00000  2        2
siesta:      3.88264   2.29334   0.00000  2        3
siesta:      1.88786  -3.27422   0.00000  2        4
siesta:     -4.02956  -3.42601   0.00000  2        5
siesta:      7.29471  -2.10194   0.00000  2        6
siesta:     -2.33605   2.17879   0.00000  3        7
siesta:     -1.00708  -1.77447   0.00000  3        8
siesta:      1.20122   4.48719   0.00000  3        9
siesta:      4.24276  -1.03929   0.00000  3       10
siesta:     -6.51921  -1.10297   0.00000  3       11
siesta:      5.60061   3.38449   0.00000  4       12
siesta:     -9.15684  -2.12320   0.00000  4       13
siesta:      7.57218  -4.06728   0.00000  4       14
siesta:      9.01814  -0.94924   0.00000  4       15
siesta:     -4.28099  -5.41332   0.00000  4       16
siesta:      9.46870   9.35132   0.00000  3       17
siesta:     13.06841  11.63154   0.00000  3       18
siesta:     12.13157   4.12370   0.00000  3       19
siesta:     16.05742   8.78985   0.00000  3       20
siesta:      9.58137   6.10585   0.00000  2       21
siesta:      6.56016  10.77556   0.00000  2       22
siesta:     15.25396   5.50290   0.00000  2       23
siesta:     13.43000  14.45130   0.00000  4       24
siesta:     18.86247   9.20319   0.00000  4       25
siesta:      6.34974  12.75826   0.00000  4       26
siesta:      4.79788   9.59465   0.00000  4       27
siesta:     12.11224   1.08481   0.00000  1       28
siesta:     16.71930   4.12965   0.00000  4       29

siesta: Automatic unit cell vectors (Ang):
siesta:   23.898478    0.000000    0.000000
siesta:    0.000000   19.151674    0.000000
siesta:    0.000000    0.000000    9.854683

siesta: System type = molecule  

initatomlists: Number of atoms, orbitals, and projectors:     29   297   394

siesta: ******************** Simulation parameters ****************************
siesta:
siesta: The following are some of the parameters of the simulation.
siesta: A complete list of the parameters used, including default values,
siesta: can be found in file out.fdf
siesta:
redata: Spin configuration                          = spin-orbit
redata: Number of spin components                   = 8
redata: Time-Reversal Symmetry                      = F
redata: Spin spiral                                 = F
############################################################
This spin-orbit implementation uses a local approximation.
From 4.2 and onwards the full non-local approximation is implemented
You are strongly advised to use >=4.2 versions!
############################################################
redata: Long output                                 =   F
redata: Number of Atomic Species                    =        4
redata: Charge density info will appear in .RHO file
redata: Write Mulliken Pop.                         = Atomic and Orbital charges
redata: Matel table size (NRTAB)                    =     1024
redata: Mesh Cutoff                                 =   340.0000 Ry
redata: Net charge of the system                    =     0.0000 |e|
redata: Min. number of SCF Iter                     =        1
redata: Max. number of SCF Iter                     =      200
redata: SCF mix quantity                            = Hamiltonian
redata: Mix DM or H after convergence               =   F
redata: Recompute H after scf cycle                 =   F
redata: Mix DM in first SCF step                    =   T
redata: Write Pulay info on disk                    =   F
redata: New DM Occupancy tolerance                  = 0.000000000001
redata: No kicks to SCF
redata: DM Mixing Weight for Kicks                  =     0.5000
redata: Require Harris convergence for SCF          =   F
redata: Harris energy tolerance for SCF             =     0.000100 eV
redata: Require DM convergence for SCF              =   T
redata: DM tolerance for SCF                        =     0.000008
redata: Require EDM convergence for SCF             =   F
redata: EDM tolerance for SCF                       =     0.001000 eV
redata: Require H convergence for SCF               =   T
redata: Hamiltonian tolerance for SCF               =     0.000001 eV
redata: Require (free) Energy convergence for SCF   =   F
redata: (free) Energy tolerance for SCF             =     0.000100 eV
redata: Using Saved Data (generic)                  =   F
redata: Use continuation files for DM               =   F
redata: Neglect nonoverlap interactions             =   F
redata: Method of Calculation                       = Diagonalization
redata: Electronic Temperature                      =   299.9978 K
redata: Fix the spin of the system                  =   F
redata: Dynamics option                             = Single-point calculation
mix.SCF: Pulay mixing                            = Pulay
mix.SCF:    Variant                              = stable
mix.SCF:    History steps                        = 6
mix.SCF:    Linear mixing weight                 =     0.250000
mix.SCF:    Mixing weight                        =     0.250000
mix.SCF:    SVD condition                        = 0.1000E-07
mix.SCF:    Restart steps                        = 24
mix.SCF:    Restart save steps                   = 3
mix.SCF: Spin-component mixing                   all
redata: Save all siesta data in one NC              =   F
redata: ***********************************************************************

%block SCF.Mixers
  Pulay
%endblock SCF.Mixers

%block SCF.Mixer.Pulay
  # Mixing method
  method pulay
  variant stable

  # Mixing options
  weight 0.2500
  weight.linear 0.2500
  history 6
  restart 24
  restart.save 3
%endblock SCF.Mixer.Pulay

DM_history_depth set to one: no extrapolation allowed by default for geometry relaxation
Size of DM history Fstack: 1
Total number of electrons:    98.000000
Total ionic charge:    98.000000

* ProcessorY, Blocksize:    2  24


* Orbital distribution balance (max,min):    81    72


Time-reversal symmetry not used.

siesta: k-grid: Number of k-points =     1
siesta: k-grid: Cutoff (effective) =     4.927 Ang
siesta: k-grid: Supercell and displacements
siesta: k-grid:    1   0   0      0.000
siesta: k-grid:    0   1   0      0.000
siesta: k-grid:    0   0   1      0.000

diag: Algorithm                                     = ELPA-1stage
diag: Parallel over k                               =   F
diag: Use parallel 2D distribution                  =   T
diag: Parallel block-size                           = 24
diag: Parallel distribution                         =     2 x     2
diag: Used triangular part                          = Lower
diag: Absolute tolerance                            =  0.100E-15
diag: Orthogonalization factor                      =  0.100E-05
diag: Memory factor                                 =  1.0000


ts: **************************************************************
ts: Save H and S matrices                           =    F
ts: Save DM and EDM matrices                        =    F
ts: Only save the overlap matrix S                  =    F
ts: **************************************************************

************************ Begin: TS CHECKS AND WARNINGS ************************
************************ End: TS CHECKS AND WARNINGS **************************


                     ====================================
                        Single-point calculation
                     ====================================

outcoor: Atomic coordinates (Ang):                          
    1.04362488    3.93922861    0.00000000   1       1  O
   -3.04064129    1.07107817    0.00000000   2       2  N
    2.05460145    1.21358207    0.00000000   2       3  N
    0.99901410   -1.73264380    0.00000000   2       4  N
   -2.13235164   -1.81296822    0.00000000   2       5  N
    3.86019055   -1.11229818    0.00000000   2       6  N
   -1.23618322    1.15296446    0.00000000   3       7  Si
   -0.53292426   -0.93900627    0.00000000   3       8  Si
    0.63566047    2.37451677    0.00000000   3       9  Si
    2.24517024   -0.54996710    0.00000000   3      10  Si
   -3.44981666   -0.58366503    0.00000000   3      11  Si
    2.96371409    1.79099263    0.00000000   4      12  H
   -4.84559135   -1.12354966    0.00000000   4      13  H
    4.00702091   -2.15230856    0.00000000   4      14  H
    4.77219438   -0.50231816    0.00000000   4      15  H
   -2.26539909   -2.86460511    0.00000000   4      16  H
    5.01061833    4.94850368    0.00000000   3      17  Si
    6.91550231    6.15514262    0.00000000   3      18  Si
    6.41974816    2.18216871    0.00000000   3      19  Si
    8.49721846    4.65138587    0.00000000   3      20  Si
    5.07024100    3.23107611    0.00000000   2      21  N
    3.47148328    5.70218099    0.00000000   2      22  N
    8.07204343    2.91200593    0.00000000   2      23  N
    7.10684710    7.64729637    0.00000000   4      24  H
    9.98158644    4.87011669    0.00000000   4      25  H
    3.36013800    6.75137610    0.00000000   4      26  H
    2.53892556    5.07726681    0.00000000   4      27  H
    6.40952133    0.57405759    0.00000000   1      28  O
    8.84746931    2.18531437    0.00000000   4      29  H

outcell: Unit cell vectors (Ang):
       23.898478    0.000000    0.000000
        0.000000   19.151674    0.000000
        0.000000    0.000000    9.854683

outcell: Cell vector modules (Ang)   :   23.898478   19.151674    9.854683
outcell: Cell angles (23,13,12) (deg):     90.0000     90.0000     90.0000
outcell: Cell volume (Ang**3)        :   4510.4479
<dSpData1D:S at geom step 0
  <sparsity:sparsity for geom step 0
    nrows_g=297 nrows=81 sparsity=.2244 nnzs=19795, refcount: 8>
  <dData1D:(new from dSpData1D) n=19795, refcount: 1>
refcount: 1>
new_DM -- step:     1
Initializing Density Matrix...
DM filled with atomic data:
<dSpData2D:DM initialized from atoms
  <sparsity:sparsity for geom step 0
    nrows_g=297 nrows=81 sparsity=.2244 nnzs=19795, refcount: 9>
  <dData2D:DM n=19795 m=8, refcount: 1>
refcount: 1>
     spin moment: S , {S} =   56.00000   0.00000   0.00000  56.00000
No. of atoms with KB's overlaping orbs in proc 0. Max # of overlaps:      29     192

Initializing spin-orbit part of the Hamiltonian
  Adding spin-orbit effects for O 
  Adding spin-orbit effects for N 
  Adding spin-orbit effects for Si
  Adding spin-orbit effects for H 


New grid distribution:   1
           1       1:  135    1:   54    1:   30
           2       1:  135    1:   54   31:   60
           3       1:  135   55:  108    1:   30
           4       1:  135   55:  108   31:   60

InitMesh: MESH =   270 x   216 x   120 =     6998400
InitMesh: (bp) =   135 x   108 x    60 =      874800
InitMesh: Mesh cutoff (required, used) =   340.000   351.557 Ry
ExtMesh (bp) on 0 =   239 x   158 x   142 =     5362204
New grid distribution:   2
           1      34:  135    1:   25    1:   60
           2       1:   33    1:   23    1:   60
           3      34:  135   26:  108    1:   60
           4       1:   33   24:  108    1:   60
New grid distribution:   3
           1      45:  135    1:   31    1:   60
           2       1:   44    1:   37    1:   60
           3      45:  135   32:  108    1:   60
           4       1:   44   38:  108    1:   60
Setting up quadratic distribution...
ExtMesh (bp) on 0 =   206 x   129 x   172 =     4570728
PhiOnMesh: Number of (b)points on node 0 =               153000
PhiOnMesh: nlist on node 0 =              2548620

stepf: Fermi-Dirac step function

siesta: Program's energy decomposition (eV):
siesta: Ebs     =      -615.090263
siesta: Eions   =      3585.165840
siesta: Ena     =       381.740011
siesta: Ekin    =      3361.178660
siesta: Enl     =     -3291.095968
siesta: Eso     =        -0.003438
siesta: Edftu   =         0.000000
siesta: DEna    =       153.850400
siesta: DUscf   =        78.190548
siesta: DUext   =         0.000000
siesta: Exc     =     -1202.599349
siesta: eta*DQ  =         0.000000
siesta: Emadel  =         0.000000
siesta: Emeta   =         0.000000
siesta: Emolmec =         0.000000
siesta: Ekinion =         0.000000
siesta: Eharris =     -4029.339200
siesta: Etot    =     -4103.904976
siesta: FreeEng =     -4103.906367

        iscf     Eharris(eV)        E_KS(eV)     FreeEng(eV)     dDmax    Ef(eV) dHmax(eV)
   scf:    1    -4029.339200    -4103.904976    -4103.906367  0.957711 -4.905980 20.412344
     spin moment: S , {S} =    2.00710   0.00000  -0.00000   2.00710
timer: Routine,Calls,Time,% = IterSCF        1      11.452  16.21
   scf:    2    -4149.976656    -4138.272083    -4138.273858  0.463571 -4.201728 11.274114
     spin moment: S , {S} =    1.98931   0.00000   0.00000   1.98931
   scf:    3    -4111.423183    -4135.500693    -4135.519827  0.429224 -4.269323 11.430016
     spin moment: S , {S} =    2.00010   0.00000  -0.00000   2.00010
   scf:    4    -4151.105786    -4146.285571    -4146.285571  0.308996 -3.894371  6.117510
     spin moment: S , {S} =    0.00009  -0.00000  -0.00000   0.00009
   scf:    5    -4147.450075    -4146.960068    -4146.960068  0.037483 -3.689039  4.333474
     spin moment: S , {S} =    0.00006   0.00000   0.00000   0.00006
   scf:    6    -4147.722494    -4147.345361    -4147.345361  0.025002 -3.707471  2.104977
     spin moment: S , {S} =    0.00003   0.00000   0.00000   0.00003
   scf:    7    -4147.695946    -4147.519526    -4147.519526  0.021235 -3.798958  0.863674
     spin moment: S , {S} =    0.00001   0.00000   0.00000   0.00001
   scf:    8    -4147.637067    -4147.576725    -4147.576725  0.012124 -3.737068  0.473189
     spin moment: S , {S} =    0.00000  -0.00000  -0.00000   0.00000
   scf:    9    -4147.616357    -4147.595909    -4147.595909  0.006949 -3.786866  0.320909
     spin moment: S , {S} =    0.00000  -0.00000  -0.00000   0.00000
   scf:   10    -4147.644212    -4147.616131    -4147.616131  0.017671 -3.803464  0.148564
     spin moment: S , {S} =    0.00000   0.00000   0.00000  -0.00000
   scf:   11    -4147.619178    -4147.617588    -4147.617588  0.004834 -3.795718  0.049971
     spin moment: S , {S} =    0.00000   0.00000  -0.00000   0.00000
   scf:   12    -4147.618361    -4147.617976    -4147.617976  0.001856 -3.791376  0.030161
     spin moment: S , {S} =    0.00000   0.00000  -0.00000   0.00000
   scf:   13    -4147.618472    -4147.618211    -4147.618211  0.001819 -3.789811  0.023288
     spin moment: S , {S} =    0.00000  -0.00000   0.00000   0.00000
   scf:   14    -4147.618592    -4147.618386    -4147.618386  0.001932 -3.789180  0.017076
     spin moment: S , {S} =    0.00000   0.00000   0.00000   0.00000
   scf:   15    -4147.618687    -4147.618515    -4147.618515  0.002221 -3.789345  0.010394
     spin moment: S , {S} =    0.00000   0.00000   0.00000   0.00000
   scf:   16    -4147.618656    -4147.618570    -4147.618570  0.001889 -3.789241  0.004555
     spin moment: S , {S} =    0.00000  -0.00000   0.00000   0.00000
   scf:   17    -4147.618590    -4147.618578    -4147.618578  0.000709 -3.789436  0.002404
     spin moment: S , {S} =    0.00000  -0.00000   0.00000   0.00000
   scf:   18    -4147.618582    -4147.618580    -4147.618580  0.000312 -3.789527  0.001061
     spin moment: S , {S} =    0.00000   0.00000   0.00000   0.00000
   scf:   19    -4147.618581    -4147.618580    -4147.618580  0.000116 -3.789530  0.000521
     spin moment: S , {S} =    0.00000   0.00000   0.00000  -0.00000
   scf:   20    -4147.618580    -4147.618580    -4147.618580  0.000038 -3.789493  0.000350
     spin moment: S , {S} =    0.00000   0.00000   0.00000  -0.00000
   scf:   21    -4147.618581    -4147.618580    -4147.618580  0.000055 -3.789456  0.000214
     spin moment: S , {S} =    0.00000   0.00000   0.00000  -0.00000
   scf:   22    -4147.618580    -4147.618580    -4147.618580  0.000017 -3.789435  0.000088
     spin moment: S , {S} =    0.00000   0.00000   0.00000  -0.00000
   scf:   23    -4147.618580    -4147.618580    -4147.618580  0.000006 -3.789434  0.000052
     spin moment: S , {S} =    0.00000   0.00000   0.00000  -0.00000
   scf:   24    -4147.618580    -4147.618580    -4147.618580  0.000003 -3.789431  0.000035
     spin moment: S , {S} =    0.00000   0.00000   0.00000  -0.00000
mix: Pulay -- resetting history
   scf:   25    -4147.618580    -4147.618580    -4147.618580  0.000004 -3.789427  0.000014
     spin moment: S , {S} =    0.00000   0.00000   0.00000   0.00000
   scf:   26    -4147.618580    -4147.618580    -4147.618580  0.000002 -3.789424  0.000007
     spin moment: S , {S} =    0.00000  -0.00000   0.00000   0.00000
   scf:   27    -4147.618580    -4147.618580    -4147.618580  0.000001 -3.789423  0.000004
     spin moment: S , {S} =    0.00000  -0.00000   0.00000   0.00000
   scf:   28    -4147.618580    -4147.618580    -4147.618580  0.000000 -3.789423  0.000003
     spin moment: S , {S} =    0.00000  -0.00000   0.00000   0.00000
   scf:   29    -4147.618580    -4147.618580    -4147.618580  0.000000 -3.789423  0.000002
     spin moment: S , {S} =    0.00000  -0.00000   0.00000   0.00000
   scf:   30    -4147.618580    -4147.618580    -4147.618580  0.000000 -3.789423  0.000001
     spin moment: S , {S} =    0.00000  -0.00000   0.00000   0.00000

SCF Convergence by DM+H criterion
max |DM_out - DM_in|         :     0.0000003786
max |H_out - H_in|      (eV) :     0.0000008857
SCF cycle converged after 30 iterations

Using DM_out to compute the final energy and forces
No. of atoms with KB's overlaping orbs in proc 0. Max # of overlaps:      29     192

siesta: E_KS(eV) =            -4147.6186

siesta: E_KS - E_eggbox =     -4147.6186
     spin moment: S , {S} =    0.00000  -0.00000   0.00000   0.00000

siesta: Atomic forces (eV/Ang):
     1    4.173010   -1.109639    0.000000
     2   -0.035117    0.035884   -0.000000
     3    0.344558   -0.077531   -0.000000
     4    0.268450    0.006295    0.000000
     5    0.012221   -0.023743    0.000000
     6    0.993455    0.483830    0.000000
     7    0.014297   -0.092883   -0.000000
     8   -0.139552    0.104012   -0.000000
     9   -0.015484    0.484383   -0.000000
    10   -0.316583    0.171822    0.000000
    11   -0.010025   -0.007003    0.000000
    12   -0.062965   -0.175156    0.000000
    13   -0.019212   -0.035028    0.000000
    14    0.054165   -0.055413   -0.000000
    15   -0.471174   -0.350914   -0.000000
    16   -0.059349    0.164011   -0.000000
    17    0.312294   -0.455293    0.000000
    18   -0.081076    0.076651   -0.000000
    19   -0.117820   -0.422151   -0.000000
    20   -0.016236   -0.154513    0.000000
    21   -0.131246    0.327373    0.000000
    22   -1.247441   -0.665841   -0.000000
    23    0.088981    0.141789   -0.000000
    24    0.041904   -0.103721   -0.000000
    25    0.178540   -0.004774   -0.000000
    26   -0.090043   -0.279536   -0.000000
    27    0.668023    0.557665   -0.000000
    28   -2.583060   -1.093647    0.000000
    29   -0.021944    0.174854   -0.000000
----------------------------------------
   Tot    1.731571   -2.378217   -0.000000
----------------------------------------
   Max    4.173010
   Res    0.609887    sqrt( Sum f_i^2 / 3N )
----------------------------------------
   Max    4.173010    constrained

Stress tensor Voigt[x,y,z,yz,xz,xy] (kbar):        0.64        1.89       -0.07        0.00       -0.00        1.28
(Free)E + p*V (eV/cell)    -4149.9182
Target enthalpy (eV/cell)    -4147.6186

mulliken: Atomic and Orbital Populations:

Species: O                   

Atom      Orb        Charge      Spin       Svec
----------------------------------------------------------------
    1  1 2s         1.75117   0.00000     -0.000   0.000   0.000
    1  2 2s         0.05563   0.00000      0.000  -0.000   0.000
    1  3 2py        1.40324   0.00000     -0.000  -0.000   0.000
    1  4 2pz        1.59765   0.00000     -0.000  -0.000   0.000
    1  5 2px        1.63573   0.00000      0.000   0.000   0.000
    1  6 2py        0.05894   0.00000      0.000   0.000  -0.000
    1  7 2pz       -0.01553   0.00000      0.000   0.000   0.000
    1  8 2px       -0.00041   0.00000     -0.000  -0.000  -0.000
    1  9 3Pdxy      0.00694   0.00000      0.000   0.000  -0.000
    1 10 3Pdyz      0.00786   0.00000     -0.000   0.000  -0.000
    1 11 3Pdz2      0.00149   0.00000     -0.000  -0.000   0.000
    1 12 3Pdxz      0.00015   0.00000     -0.000  -0.000  -0.000
    1 13 3Pdx2-y2   0.00601   0.00000      0.000  -0.000  -0.000
    1     Total     6.50887   0.00000     -0.000   0.000   0.000

   28  1 2s         1.75869   0.00000      0.000  -0.000   0.000
   28  2 2s         0.05129   0.00000     -0.000   0.000  -0.000
   28  3 2py        1.38920   0.00000     -0.000   0.000   0.000
   28  4 2pz        1.58842   0.00000      0.000   0.000  -0.000
   28  5 2px        1.65507   0.00000      0.000   0.000  -0.000
   28  6 2py        0.05856   0.00000      0.000   0.000  -0.000
   28  7 2pz       -0.01339   0.00000     -0.000  -0.000  -0.000
   28  8 2px        0.00124   0.00000     -0.000   0.000  -0.000
   28  9 3Pdxy      0.00672   0.00000     -0.000  -0.000   0.000
   28 10 3Pdyz      0.00892   0.00000     -0.000  -0.000   0.000
   28 11 3Pdz2      0.00124   0.00000     -0.000   0.000   0.000
   28 12 3Pdxz     -0.00015   0.00000     -0.000   0.000   0.000
   28 13 3Pdx2-y2   0.00731   0.00000     -0.000   0.000  -0.000
   28     Total     6.51312   0.00000      0.000   0.000  -0.000

----------------------------------------------------------------
Total              13.02199   0.00000      0.000   0.000   0.000


Species: N                   

Atom      Orb        Charge      Spin       Svec
----------------------------------------------------------------
    2  1 2s         1.54883   0.00000     -0.000  -0.000   0.000
    2  2 2s         0.08495   0.00000      0.000   0.000  -0.000
    2  3 2py        1.04373   0.00000     -0.000   0.000   0.000
    2  4 2pz        1.22476   0.00000      0.000   0.000   0.000
    2  5 2px        0.99262   0.00000     -0.000  -0.000   0.000
    2  6 2py        0.18814   0.00000     -0.000  -0.000  -0.000
    2  7 2pz        0.05524   0.00000     -0.000  -0.000  -0.000
    2  8 2px        0.19553   0.00000      0.000   0.000  -0.000
    2  9 3Pdxy      0.00835   0.00000      0.000  -0.000   0.000
    2 10 3Pdyz      0.01095   0.00000     -0.000  -0.000  -0.000
    2 11 3Pdz2      0.00191   0.00000      0.000   0.000  -0.000
    2 12 3Pdxz      0.00758   0.00000      0.000  -0.000  -0.000
    2 13 3Pdx2-y2   0.00907   0.00000     -0.000  -0.000   0.000
    2     Total     5.37167   0.00000     -0.000   0.000   0.000

    3  1 2s         1.38647   0.00000      0.000   0.000  -0.000
    3  2 2s         0.12263   0.00000     -0.000  -0.000   0.000
    3  3 2py        0.93811   0.00000     -0.000  -0.000   0.000
    3  4 2pz        1.54203   0.00000     -0.000   0.000   0.000
    3  5 2px        1.08120   0.00000      0.000  -0.000   0.000
    3  6 2py        0.25263   0.00000      0.000   0.000  -0.000
    3  7 2pz        0.00534   0.00000      0.000  -0.000  -0.000
    3  8 2px        0.18221   0.00000     -0.000   0.000   0.000
    3  9 3Pdxy      0.00407   0.00000     -0.000   0.000  -0.000
    3 10 3Pdyz      0.00395   0.00000      0.000  -0.000   0.000
    3 11 3Pdz2      0.00063   0.00000     -0.000   0.000  -0.000
    3 12 3Pdxz      0.00271   0.00000      0.000   0.000   0.000
    3 13 3Pdx2-y2   0.00251   0.00000      0.000   0.000  -0.000
    3     Total     5.52450   0.00000      0.000  -0.000   0.000

    4  1 2s         1.46132   0.00000      0.000  -0.000   0.000
    4  2 2s         0.11896   0.00000      0.000   0.000  -0.000
    4  3 2py        1.12738   0.00000     -0.000  -0.000   0.000
    4  4 2pz        1.29338   0.00000      0.000  -0.000   0.000
    4  5 2px        0.82662   0.00000      0.000   0.000   0.000
    4  6 2py        0.15052   0.00000     -0.000  -0.000  -0.000
    4  7 2pz        0.05311   0.00000     -0.000  -0.000  -0.000
    4  8 2px        0.29265   0.00000     -0.000  -0.000  -0.000
    4  9 3Pdxy      0.00872   0.00000      0.000  -0.000  -0.000
    4 10 3Pdyz      0.01046   0.00000      0.000   0.000  -0.000
    4 11 3Pdz2      0.00126   0.00000      0.000  -0.000  -0.000
    4 12 3Pdxz      0.00479   0.00000      0.000   0.000  -0.000
    4 13 3Pdx2-y2   0.00798   0.00000      0.000   0.000  -0.000
    4     Total     5.35714   0.00000      0.000  -0.000  -0.000

    5  1 2s         1.37570   0.00000      0.000  -0.000   0.000
    5  2 2s         0.12827   0.00000      0.000   0.000  -0.000
    5  3 2py        1.02639   0.00000     -0.000   0.000   0.000
    5  4 2pz        1.50124   0.00000      0.000  -0.000   0.000
    5  5 2px        1.05985   0.00000      0.000  -0.000   0.000
    5  6 2py        0.20358   0.00000      0.000  -0.000  -0.000
    5  7 2pz        0.01332   0.00000     -0.000   0.000  -0.000
    5  8 2px        0.20149   0.00000     -0.000   0.000  -0.000
    5  9 3Pdxy      0.00388   0.00000      0.000  -0.000  -0.000
    5 10 3Pdyz      0.00244   0.00000      0.000  -0.000  -0.000
    5 11 3Pdz2      0.00143   0.00000      0.000  -0.000  -0.000
    5 12 3Pdxz      0.00664   0.00000      0.000  -0.000  -0.000
    5 13 3Pdx2-y2   0.00562   0.00000      0.000   0.000  -0.000
    5     Total     5.52987   0.00000      0.000  -0.000   0.000

    6  1 2s         1.26243   0.00000     -0.000  -0.000   0.000
    6  2 2s         0.18268   0.00000      0.000   0.000  -0.000
    6  3 2py        1.06922   0.00000     -0.000   0.000   0.000
    6  4 2pz        1.53573   0.00000      0.000  -0.000   0.000
    6  5 2px        0.97261   0.00000     -0.000  -0.000  -0.000
    6  6 2py        0.19437   0.00000      0.000   0.000   0.000
    6  7 2pz        0.03287   0.00000     -0.000   0.000  -0.000
    6  8 2px        0.25572   0.00000      0.000   0.000   0.000
    6  9 3Pdxy      0.00233   0.00000     -0.000   0.000  -0.000
    6 10 3Pdyz      0.00006   0.00000      0.000   0.000  -0.000
    6 11 3Pdz2      0.00158   0.00000     -0.000   0.000  -0.000
    6 12 3Pdxz      0.00370   0.00000      0.000  -0.000  -0.000
    6 13 3Pdx2-y2   0.00426   0.00000      0.000   0.000  -0.000
    6     Total     5.51756   0.00000     -0.000  -0.000   0.000

   21  1 2s         1.41600   0.00000      0.000  -0.000   0.000
   21  2 2s         0.12955   0.00000     -0.000   0.000  -0.000
   21  3 2py        0.88009   0.00000      0.000  -0.000   0.000
   21  4 2pz        1.31574   0.00000     -0.000  -0.000   0.000
   21  5 2px        1.16916   0.00000     -0.000  -0.000   0.000
   21  6 2py        0.27396   0.00000     -0.000  -0.000  -0.000
   21  7 2pz        0.04469   0.00000      0.000   0.000  -0.000
   21  8 2px        0.15650   0.00000      0.000   0.000  -0.000
   21  9 3Pdxy      0.00628   0.00000      0.000  -0.000   0.000
   21 10 3Pdyz      0.00461   0.00000      0.000   0.000   0.000
   21 11 3Pdz2     -0.00000   0.00000      0.000   0.000  -0.000
   21 12 3Pdxz      0.00578   0.00000      0.000   0.000  -0.000
   21 13 3Pdx2-y2   0.00575   0.00000     -0.000  -0.000   0.000
   21     Total     5.40811   0.00000     -0.000  -0.000   0.000

   22  1 2s         1.28500   0.00000      0.000   0.000   0.000
   22  2 2s         0.17304   0.00000     -0.000  -0.000  -0.000
   22  3 2py        1.05632   0.00000      0.000  -0.000   0.000
   22  4 2pz        1.50427   0.00000      0.000   0.000   0.000
   22  5 2px        1.01080   0.00000     -0.000   0.000   0.000
   22  6 2py        0.20003   0.00000     -0.000   0.000   0.000
   22  7 2pz        0.03179   0.00000     -0.000  -0.000  -0.000
   22  8 2px        0.23291   0.00000      0.000  -0.000   0.000
   22  9 3Pdxy      0.00319   0.00000     -0.000  -0.000  -0.000
   22 10 3Pdyz      0.00023   0.00000     -0.000   0.000  -0.000
   22 11 3Pdz2      0.00228   0.00000      0.000  -0.000  -0.000
   22 12 3Pdxz      0.00383   0.00000      0.000   0.000  -0.000
   22 13 3Pdx2-y2   0.00478   0.00000      0.000  -0.000  -0.000
   22     Total     5.50847   0.00000      0.000   0.000   0.000

   23  1 2s         1.37994   0.00000      0.000  -0.000   0.000
   23  2 2s         0.12638   0.00000     -0.000   0.000  -0.000
   23  3 2py        1.00823   0.00000     -0.000   0.000   0.000
   23  4 2pz        1.53477   0.00000      0.000  -0.000   0.000
   23  5 2px        1.05555   0.00000     -0.000  -0.000   0.000
   23  6 2py        0.21330   0.00000      0.000  -0.000   0.000
   23  7 2pz        0.00430   0.00000     -0.000   0.000  -0.000
   23  8 2px        0.20080   0.00000      0.000   0.000  -0.000
   23  9 3Pdxy      0.00539   0.00000      0.000  -0.000  -0.000
   23 10 3Pdyz      0.00451   0.00000     -0.000   0.000   0.000
   23 11 3Pdz2      0.00077   0.00000      0.000  -0.000   0.000
   23 12 3Pdxz      0.00244   0.00000      0.000  -0.000  -0.000
   23 13 3Pdx2-y2   0.00143   0.00000     -0.000   0.000  -0.000
   23     Total     5.53780   0.00000     -0.000  -0.000   0.000

----------------------------------------------------------------
Total              56.77711   0.00000     -0.000  -0.000   0.000


Species: Si                  

Atom      Orb        Charge      Spin       Svec
----------------------------------------------------------------
    7  1 3s         0.66411   0.00000     -0.000   0.000  -0.000
    7  2 3s         0.36625   0.00000      0.000  -0.000  -0.000
    7  3 3py        0.46970   0.00000      0.000  -0.000  -0.000
    7  4 3pz        0.69865   0.00000      0.000   0.000   0.000
    7  5 3px        0.12071   0.00000     -0.000  -0.000  -0.000
    7  6 3py        0.27596   0.00000     -0.000  -0.000  -0.000
    7  7 3pz        0.26085   0.00000     -0.000  -0.000  -0.000
    7  8 3px        0.44047   0.00000      0.000   0.000  -0.000
    7  9 3Pdxy      0.24591   0.00000      0.000   0.000  -0.000
    7 10 3Pdyz      0.02857   0.00000      0.000   0.000   0.000
    7 11 3Pdz2      0.01132   0.00000     -0.000  -0.000  -0.000
    7 12 3Pdxz      0.14637   0.00000      0.000   0.000   0.000
    7 13 3Pdx2-y2   0.11367   0.00000      0.000   0.000   0.000
    7     Total     3.84255   0.00000      0.000   0.000  -0.000

    8  1 3s         0.65464   0.00000     -0.000  -0.000  -0.000
    8  2 3s         0.36884   0.00000      0.000  -0.000  -0.000
    8  3 3py        0.39172   0.00000     -0.000   0.000   0.000
    8  4 3pz        0.50820   0.00000      0.000  -0.000  -0.000
    8  5 3px       -0.02491   0.00000      0.000  -0.000   0.000
    8  6 3py        0.30691   0.00000      0.000   0.000  -0.000
    8  7 3pz        0.20481   0.00000      0.000  -0.000  -0.000
    8  8 3px        0.51468   0.00000     -0.000   0.000  -0.000
    8  9 3Pdxy      0.24827   0.00000      0.000  -0.000   0.000
    8 10 3Pdyz      0.11223   0.00000     -0.000  -0.000   0.000
    8 11 3Pdz2      0.01377   0.00000      0.000  -0.000  -0.000
    8 12 3Pdxz      0.15616   0.00000      0.000   0.000  -0.000
    8 13 3Pdx2-y2   0.20219   0.00000      0.000   0.000  -0.000
    8     Total     3.65752   0.00000      0.000  -0.000  -0.000

    9  1 3s         0.59952   0.00000      0.000   0.000   0.000
    9  2 3s         0.37034   0.00000     -0.000  -0.000   0.000
    9  3 3py        0.10343   0.00000     -0.000  -0.000   0.000
    9  4 3pz        0.47808   0.00000     -0.000  -0.000   0.000
    9  5 3px        0.35917   0.00000     -0.000  -0.000   0.000
    9  6 3py        0.41663   0.00000      0.000   0.000   0.000
    9  7 3pz        0.18890   0.00000     -0.000   0.000   0.000
    9  8 3px        0.28412   0.00000      0.000  -0.000  -0.000
    9  9 3Pdxy      0.28940   0.00000      0.000   0.000   0.000
    9 10 3Pdyz      0.18976   0.00000      0.000  -0.000   0.000
    9 11 3Pdz2      0.01236   0.00000      0.000  -0.000   0.000
    9 12 3Pdxz      0.10507   0.00000     -0.000   0.000   0.000
    9 13 3Pdx2-y2   0.17788   0.00000      0.000  -0.000   0.000
    9     Total     3.57466   0.00000     -0.000  -0.000   0.000

   10  1 3s         0.48115   0.00000     -0.000   0.000   0.000
   10  2 3s         0.37837   0.00000      0.000  -0.000  -0.000
   10  3 3py        0.23801   0.00000     -0.000  -0.000  -0.000
   10  4 3pz        0.41195   0.00000      0.000  -0.000  -0.000
   10  5 3px        0.10107   0.00000     -0.000   0.000  -0.000
   10  6 3py        0.32555   0.00000      0.000  -0.000   0.000
   10  7 3pz        0.22042   0.00000     -0.000   0.000  -0.000
   10  8 3px        0.43688   0.00000      0.000  -0.000   0.000
   10  9 3Pdxy      0.17350   0.00000     -0.000   0.000   0.000
   10 10 3Pdyz      0.13395   0.00000     -0.000  -0.000  -0.000
   10 11 3Pdz2      0.00972   0.00000     -0.000   0.000  -0.000
   10 12 3Pdxz      0.17975   0.00000     -0.000   0.000  -0.000
   10 13 3Pdx2-y2   0.30863   0.00000     -0.000  -0.000   0.000
   10     Total     3.39895   0.00000     -0.000   0.000  -0.000

   11  1 3s         0.55353   0.00000      0.000   0.000  -0.000
   11  2 3s         0.38505   0.00000     -0.000  -0.000  -0.000
   11  3 3py        0.32336   0.00000      0.000   0.000  -0.000
   11  4 3pz        0.54021   0.00000     -0.000  -0.000  -0.000
   11  5 3px        0.12615   0.00000     -0.000   0.000  -0.000
   11  6 3py        0.28634   0.00000      0.000   0.000  -0.000
   11  7 3pz        0.17728   0.00000     -0.000   0.000  -0.000
   11  8 3px        0.44571   0.00000      0.000  -0.000   0.000
   11  9 3Pdxy      0.22591   0.00000      0.000  -0.000  -0.000
   11 10 3Pdyz      0.12682   0.00000     -0.000   0.000  -0.000
   11 11 3Pdz2      0.00960   0.00000      0.000  -0.000   0.000
   11 12 3Pdxz      0.05308   0.00000     -0.000   0.000  -0.000
   11 13 3Pdx2-y2   0.20442   0.00000      0.000   0.000  -0.000
   11     Total     3.45746   0.00000      0.000   0.000  -0.000

   17  1 3s         0.63481   0.00000      0.000  -0.000   0.000
   17  2 3s         0.36143   0.00000     -0.000  -0.000  -0.000
   17  3 3py        0.21842   0.00000      0.000   0.000  -0.000
   17  4 3pz        0.41966   0.00000      0.000  -0.000  -0.000
   17  5 3px        0.23980   0.00000      0.000  -0.000   0.000
   17  6 3py        0.38178   0.00000     -0.000  -0.000  -0.000
   17  7 3pz        0.21382   0.00000     -0.000   0.000  -0.000
   17  8 3px        0.37992   0.00000     -0.000  -0.000  -0.000
   17  9 3Pdxy      0.29065   0.00000     -0.000  -0.000  -0.000
   17 10 3Pdyz      0.13973   0.00000     -0.000   0.000  -0.000
   17 11 3Pdz2      0.00831   0.00000      0.000  -0.000  -0.000
   17 12 3Pdxz      0.14447   0.00000     -0.000  -0.000   0.000
   17 13 3Pdx2-y2   0.16981   0.00000     -0.000   0.000  -0.000
   17     Total     3.60261   0.00000      0.000  -0.000  -0.000

   18  1 3s         0.74194   0.00000     -0.000   0.000  -0.000
   18  2 3s         0.34252   0.00000      0.000  -0.000   0.000
   18  3 3py        0.06717   0.00000      0.000  -0.000  -0.000
   18  4 3pz        0.80528   0.00000      0.000   0.000   0.000
   18  5 3px        0.55658   0.00000     -0.000  -0.000  -0.000
   18  6 3py        0.52575   0.00000     -0.000   0.000   0.000
   18  7 3pz        0.19808   0.00000     -0.000  -0.000  -0.000
   18  8 3px        0.25241   0.00000      0.000   0.000  -0.000
   18  9 3Pdxy      0.10219   0.00000      0.000  -0.000   0.000
   18 10 3Pdyz      0.02779   0.00000     -0.000   0.000   0.000
   18 11 3Pdz2      0.00835   0.00000      0.000  -0.000   0.000
   18 12 3Pdxz      0.03174   0.00000      0.000   0.000  -0.000
   18 13 3Pdx2-y2   0.10949   0.00000     -0.000   0.000  -0.000
   18     Total     3.76927   0.00000     -0.000   0.000  -0.000

   19  1 3s         0.45995   0.00000      0.000   0.000  -0.000
   19  2 3s         0.36452   0.00000     -0.000  -0.000  -0.000
   19  3 3py        0.08535   0.00000      0.000  -0.000  -0.000
   19  4 3pz        0.41581   0.00000      0.000  -0.000  -0.000
   19  5 3px        0.30324   0.00000      0.000   0.000   0.000
   19  6 3py        0.45717   0.00000     -0.000   0.000  -0.000
   19  7 3pz        0.18770   0.00000     -0.000  -0.000  -0.000
   19  8 3px        0.27193   0.00000     -0.000   0.000  -0.000
   19  9 3Pdxy      0.32668   0.00000      0.000   0.000   0.000
   19 10 3Pdyz      0.18797   0.00000      0.000   0.000  -0.000
   19 11 3Pdz2      0.01288   0.00000      0.000   0.000   0.000
   19 12 3Pdxz      0.09663   0.00000      0.000  -0.000  -0.000
   19 13 3Pdx2-y2   0.24400   0.00000      0.000  -0.000   0.000
   19     Total     3.41384   0.00000      0.000  -0.000  -0.000

   20  1 3s         0.67595   0.00000     -0.000   0.000   0.000
   20  2 3s         0.37676   0.00000      0.000  -0.000  -0.000
   20  3 3py        0.33261   0.00000     -0.000   0.000  -0.000
   20  4 3pz        0.60489   0.00000     -0.000  -0.000  -0.000
   20  5 3px        0.14089   0.00000      0.000  -0.000   0.000
   20  6 3py        0.28756   0.00000      0.000  -0.000  -0.000
   20  7 3pz        0.16289   0.00000      0.000   0.000  -0.000
   20  8 3px        0.49928   0.00000     -0.000  -0.000  -0.000
   20  9 3Pdxy      0.09933   0.00000     -0.000   0.000   0.000
   20 10 3Pdyz      0.13092   0.00000     -0.000   0.000  -0.000
   20 11 3Pdz2      0.00759   0.00000     -0.000   0.000  -0.000
   20 12 3Pdxz      0.02657   0.00000      0.000  -0.000   0.000
   20 13 3Pdx2-y2   0.17524   0.00000      0.000   0.000  -0.000
   20     Total     3.52047   0.00000     -0.000  -0.000  -0.000

----------------------------------------------------------------
Total              89.01445   0.00000     -0.000   0.000  -0.000


Species: H                   

Atom      Orb        Charge      Spin       Svec
----------------------------------------------------------------
   12  1 1s         0.47944   0.00000      0.000   0.000  -0.000
   12  2 1s         0.18212   0.00000     -0.000  -0.000  -0.000
   12  3 2Ppy       0.03348   0.00000      0.000   0.000  -0.000
   12  4 2Ppz       0.03063   0.00000     -0.000   0.000  -0.000
   12  5 2Ppx       0.03575   0.00000      0.000   0.000  -0.000
   12     Total     0.76143   0.00000      0.000   0.000  -0.000

   13  1 1s         1.01992   0.00000     -0.000  -0.000   0.000
   13  2 1s         0.09536   0.00000      0.000   0.000  -0.000
   13  3 2Ppy       0.01806   0.00000     -0.000  -0.000   0.000
   13  4 2Ppz       0.02010   0.00000      0.000   0.000  -0.000
   13  5 2Ppx       0.03503   0.00000      0.000   0.000   0.000
   13     Total     1.18847   0.00000     -0.000  -0.000   0.000

   14  1 1s         0.47721   0.00000      0.000   0.000  -0.000
   14  2 1s         0.19745   0.00000     -0.000  -0.000  -0.000
   14  3 2Ppy       0.01943   0.00000      0.000   0.000   0.000
   14  4 2Ppz       0.04690   0.00000     -0.000  -0.000  -0.000
   14  5 2Ppx       0.01896   0.00000     -0.000  -0.000   0.000
   14     Total     0.75995   0.00000     -0.000  -0.000  -0.000

   15  1 1s         0.46793   0.00000      0.000  -0.000  -0.000
   15  2 1s         0.17544   0.00000     -0.000   0.000  -0.000
   15  3 2Ppy       0.02258   0.00000      0.000  -0.000   0.000
   15  4 2Ppz       0.03879   0.00000      0.000   0.000  -0.000
   15  5 2Ppx       0.06384   0.00000      0.000   0.000  -0.000
   15     Total     0.76858   0.00000      0.000   0.000  -0.000

   16  1 1s         0.50861   0.00000     -0.000   0.000  -0.000
   16  2 1s         0.18739   0.00000     -0.000  -0.000  -0.000
   16  3 2Ppy       0.02976   0.00000     -0.000   0.000  -0.000
   16  4 2Ppz       0.03952   0.00000     -0.000   0.000  -0.000
   16  5 2Ppx       0.02347   0.00000      0.000   0.000  -0.000
   16     Total     0.78875   0.00000     -0.000   0.000  -0.000

   24  1 1s         1.06228   0.00000      0.000   0.000   0.000
   24  2 1s         0.07392   0.00000      0.000  -0.000  -0.000
   24  3 2Ppy       0.03243   0.00000     -0.000  -0.000  -0.000
   24  4 2Ppz       0.03013   0.00000      0.000  -0.000   0.000
   24  5 2Ppx       0.01743   0.00000      0.000   0.000   0.000
   24     Total     1.21619   0.00000      0.000   0.000   0.000

   25  1 1s         1.04210   0.00000     -0.000   0.000   0.000
   25  2 1s         0.08681   0.00000      0.000  -0.000  -0.000
   25  3 2Ppy       0.01222   0.00000     -0.000   0.000   0.000
   25  4 2Ppz       0.01892   0.00000     -0.000  -0.000  -0.000
   25  5 2Ppx       0.03561   0.00000      0.000   0.000   0.000
   25     Total     1.19565   0.00000     -0.000   0.000   0.000

   26  1 1s         0.48716   0.00000      0.000   0.000  -0.000
   26  2 1s         0.19467   0.00000     -0.000   0.000  -0.000
   26  3 2Ppy       0.02299   0.00000      0.000  -0.000   0.000
   26  4 2Ppz       0.04816   0.00000     -0.000  -0.000  -0.000
   26  5 2Ppx       0.01791   0.00000      0.000  -0.000   0.000
   26     Total     0.77089   0.00000      0.000  -0.000  -0.000

   27  1 1s         0.47227   0.00000      0.000  -0.000  -0.000
   27  2 1s         0.16774   0.00000     -0.000  -0.000  -0.000
   27  3 2Ppy       0.03024   0.00000     -0.000   0.000  -0.000
   27  4 2Ppz       0.03563   0.00000     -0.000   0.000  -0.000
   27  5 2Ppx       0.06723   0.00000      0.000   0.000  -0.000
   27     Total     0.77311   0.00000     -0.000  -0.000  -0.000

   29  1 1s         0.48908   0.00000      0.000  -0.000  -0.000
   29  2 1s         0.18739   0.00000      0.000   0.000  -0.000
   29  3 2Ppy       0.02499   0.00000      0.000   0.000  -0.000
   29  4 2Ppz       0.03494   0.00000      0.000  -0.000  -0.000
   29  5 2Ppx       0.02613   0.00000      0.000   0.000  -0.000
   29     Total     0.76253   0.00000      0.000  -0.000  -0.000

----------------------------------------------------------------
Total              98.00000   0.00000     -0.000   0.000   0.000


siesta: Eigenvalues (eV):
ik =     1
  -22.4197  -22.4197  -22.0330  -22.0330  -21.3207  -21.3207  -21.2498  -21.2498  -21.1324  -21.1324
  -21.0056  -21.0056  -20.4545  -20.4545  -19.5993  -19.5993  -19.5680  -19.5680  -19.3580  -19.3580
  -14.7978  -14.7978  -13.7896  -13.7896  -13.2834  -13.2834  -13.1039  -13.1039  -12.8716  -12.8716
  -12.7642  -12.7642  -12.5485  -12.5485  -12.1565  -12.1564  -11.8810  -11.8810  -11.7934  -11.7934
  -11.1088  -11.1088  -10.8413  -10.8413  -10.6206  -10.6206  -10.4965  -10.4965  -10.1899  -10.1899
   -9.6411   -9.6411   -9.0731   -9.0731   -8.9162   -8.9162   -8.8126   -8.8126   -8.5868   -8.5868
   -8.5794   -8.5794   -8.4422   -8.4422   -8.2560   -8.2560   -8.0232   -8.0232   -7.8393   -7.8393
   -7.6496   -7.6496   -7.3733   -7.3733   -7.1635   -7.1635   -7.0158   -7.0158   -6.8172   -6.8172
   -6.6087   -6.6087   -6.4792   -6.4792   -6.3810   -6.3810   -6.3446   -6.3446   -6.2157   -6.2157
   -6.1866   -6.1866   -5.9414   -5.9414   -5.5778   -5.5778   -4.3091   -4.3091   -3.2695   -3.2695
   -2.3552   -2.3552   -2.3431   -2.3431   -2.1902   -2.1902   -1.8678   -1.8678   -1.8637   -1.8637
   -1.8450   -1.8450   -1.6889   -1.6889   -1.6197   -1.6197   -1.2420   -1.2420   -1.2070   -1.2070
   -1.0056   -1.0056   -0.6180   -0.6180   -0.4102   -0.4102   -0.3122   -0.3122    0.3019    0.3019
    0.4702    0.4702    0.5056    0.5056    0.6369    0.6369    0.9313    0.9313    1.1266    1.1266
    1.3332    1.3332    1.3790    1.3790    1.3942    1.3942    1.4939    1.4939    1.8970    1.8970
    2.0193    2.0193    2.4861    2.4861    2.6497    2.6497    2.7394    2.7394    2.7651    2.7651
    2.7990    2.7990    2.8453    2.8453    3.0207    3.0207    3.4359    3.4359    3.5139    3.5139
    3.7702    3.7702    4.0196    4.0196    4.1340    4.1340    4.1693    4.1693    4.2732    4.2732
    4.5171    4.5171    4.6198    4.6198    4.7194    4.7194    4.9342    4.9342    5.0527    5.0527
    5.2320    5.2320    5.3074    5.3074    5.5392    5.5392    5.6625    5.6625    5.7135    5.7135
    5.9160    5.9160    5.9856    5.9856    6.2082    6.2082    6.3824    6.3824    6.5179    6.5179
    6.5669    6.5669    6.6653    6.6653    6.7359    6.7359    6.8322    6.8322    7.0208    7.0208
    7.2265    7.2265    7.4469    7.4469    7.6208    7.6208    7.7734    7.7734    7.9736    7.9736
    8.0216    8.0216    8.1832    8.1832    8.2234    8.2234    8.4258    8.4258    8.6822    8.6822
    8.8111    8.8111    8.8255    8.8255    8.9523    8.9523    9.0473    9.0473    9.3718    9.3718
    9.4573    9.4573    9.8358    9.8358    9.8647    9.8647    9.9119    9.9119   10.0613   10.0613
   10.2187   10.2187   10.4752   10.4752   10.6813   10.6813   11.1143   11.1143   11.2302   11.2302
   11.2712   11.2712   11.5852   11.5852   12.1148   12.1148   12.2040   12.2040   12.2425   12.2425
   12.3636   12.3636   12.4842   12.4842   12.5295   12.5295   12.6398   12.6398   12.9692   12.9692
   13.2918   13.2918   13.3890   13.3890   13.5533   13.5533   13.7565   13.7565   13.8787   13.8787
   14.1397   14.1397   14.2708   14.2708   14.5934   14.5934   14.7860   14.7860   14.9822   14.9822
   15.3077   15.3077   15.7773   15.7773   16.2933   16.2933   16.6289   16.6289   16.7682   16.7682
   17.1274   17.1274   17.5281   17.5281   17.8850   17.8850   18.5702   18.5702   18.8510   18.8510
   19.1422   19.1422   19.8297   19.8297   20.2034   20.2034   20.4009   20.4009   20.4854   20.4854
   21.1237   21.1237   21.9122   21.9122   22.1915   22.1915   22.5365   22.5365   23.2646   23.2646
   23.5805   23.5805   23.7742   23.7742   24.0648   24.0648   24.3431   24.3431   25.1394   25.1394
   25.3183   25.3183   25.7088   25.7088   26.2764   26.2764   27.5350   27.5350   28.6569   28.6569
   29.2603   29.2603   29.6879   29.6879   29.8608   29.8608   30.2452   30.2452   30.3328   30.3328
   30.6717   30.6717   30.8075   30.8075   30.9701   30.9701   31.3199   31.3199   31.4909   31.4909
   31.5883   31.5883   32.0564   32.0564   33.2945   33.2945   33.7085   33.7085   34.0441   34.0441
   34.1138   34.1138   34.9142   34.9142   35.0690   35.0690   35.1181   35.1181   35.5545   35.5545
   35.9922   35.9922   36.0086   36.0086   36.0427   36.0427   37.0622   37.0622   37.8388   37.8388
   38.3314   38.3314   38.7143   38.7143   38.8273   38.8273   39.2134   39.2134   39.4415   39.4415
   39.5976   39.5976   39.9568   39.9568   40.8547   40.8547   41.0060   41.0060   41.2503   41.2503
   41.6728   41.6728   41.8635   41.8635   42.0498   42.0498   42.2303   42.2303   42.8329   42.8329
   43.1164   43.1164   43.6762   43.6762   43.8390   43.8390   44.2147   44.2147   44.4296   44.4296
   44.8650   44.8650   44.8729   44.8729   45.1108   45.1108   45.4015   45.4015   45.4799   45.4799
   46.0080   46.0080   46.7167   46.7167   47.2185   47.2185   47.5864   47.5864   48.5090   48.5090
   48.7391   48.7391   49.6439   49.6439   50.1163   50.1163   50.2737   50.2737   50.2833   50.2833
   50.5641   50.5641   51.2638   51.2638   51.7835   51.7835   52.4892   52.4892   52.8944   52.8944
   53.5573   53.5573   53.6603   53.6603   54.9289   54.9289   55.5325   55.5325   55.7894   55.7894
   55.8808   55.8808   56.2455   56.2455   56.4315   56.4315   57.9566   57.9566   57.9803   57.9803
   58.8738   58.8738   59.2539   59.2539   59.3836   59.3836   60.0496   60.0496   61.1206   61.1206
   61.6918   61.6918   61.8121   61.8121   62.3213   62.3213   62.5198   62.5198   65.5458   65.5458
   65.9023   65.9023   66.1461   66.1461   67.1457   67.1457   67.1475   67.1475   67.4638   67.4638
   67.9903   67.9903   69.5772   69.5772   70.8199   70.8199   74.9304   74.9304   77.4653   77.4653
   78.6315   78.6315   86.5333   86.5333   92.2381   92.2381   92.6780   92.6780   94.2572   94.2572
   98.8838   98.8838   99.6263   99.6263  102.0607  102.0607  103.8358  103.8358  105.0343  105.0343
  113.8451  113.8451  116.1162  116.1162  124.5006  124.5006  127.0639  127.0639  136.0313  136.0313
  142.1447  142.1447  144.8183  144.8183
siesta: Fermi energy =      -3.789423 eV

siesta: Program's energy decomposition (eV):
siesta: Ebs     =     -1133.242253
siesta: Eions   =      3585.165840
siesta: Ena     =       381.740011
siesta: Ekin    =      2905.123905
siesta: Enl     =     -2790.275042
siesta: Eso     =        -0.004302
siesta: Edftu   =         0.000000
siesta: DEna    =        47.775876
siesta: DUscf   =        13.773685
siesta: DUext   =         0.000000
siesta: Exc     =     -1120.586874
siesta: eta*DQ  =         0.000000
siesta: Emadel  =         0.000000
siesta: Emeta   =         0.000000
siesta: Emolmec =         0.000000
siesta: Ekinion =         0.000000
siesta: Eharris =     -4147.618580
siesta: Etot    =     -4147.618580
siesta: FreeEng =     -4147.618580

siesta: Final energy (eV):
siesta:  Band Struct. =   -1133.242253
siesta:       Kinetic =    2905.123905
siesta:       Hartree =    8865.575749
siesta:       Edftu   =       0.000000
siesta:       Eso     =      -0.004302
siesta:    Ext. field =       0.000000
siesta:   Exch.-corr. =   -1120.586874
siesta:  Ion-electron =  -20314.765886
siesta:       Ion-ion =    5517.038828
siesta:       Ekinion =       0.000000
siesta:         Total =   -4147.618580
siesta:         Fermi =      -3.789423

siesta: Atomic forces (eV/Ang):
siesta:      1    4.173010   -1.109639    0.000000
siesta:      2   -0.035117    0.035884   -0.000000
siesta:      3    0.344558   -0.077531   -0.000000
siesta:      4    0.268450    0.006295    0.000000
siesta:      5    0.012221   -0.023743    0.000000
siesta:      6    0.993455    0.483830    0.000000
siesta:      7    0.014297   -0.092883   -0.000000
siesta:      8   -0.139552    0.104012   -0.000000
siesta:      9   -0.015484    0.484383   -0.000000
siesta:     10   -0.316583    0.171822    0.000000
siesta:     11   -0.010025   -0.007003    0.000000
siesta:     12   -0.062965   -0.175156    0.000000
siesta:     13   -0.019212   -0.035028    0.000000
siesta:     14    0.054165   -0.055413   -0.000000
siesta:     15   -0.471174   -0.350914   -0.000000
siesta:     16   -0.059349    0.164011   -0.000000
siesta:     17    0.312294   -0.455293    0.000000
siesta:     18   -0.081076    0.076651   -0.000000
siesta:     19   -0.117820   -0.422151   -0.000000
siesta:     20   -0.016236   -0.154513    0.000000
siesta:     21   -0.131246    0.327373    0.000000
siesta:     22   -1.247441   -0.665841   -0.000000
siesta:     23    0.088981    0.141789   -0.000000
siesta:     24    0.041904   -0.103721   -0.000000
siesta:     25    0.178540   -0.004774   -0.000000
siesta:     26   -0.090043   -0.279536   -0.000000
siesta:     27    0.668023    0.557665   -0.000000
siesta:     28   -2.583060   -1.093647    0.000000
siesta:     29   -0.021944    0.174854   -0.000000
siesta: ----------------------------------------
siesta:    Tot    1.731571   -2.378217   -0.000000

siesta: Stress tensor (static) (eV/Ang**3):
siesta:     0.000396    0.000799    0.000000
siesta:     0.000799    0.001179    0.000000
siesta:    -0.000000    0.000000   -0.000046

siesta: Cell volume =       4510.447903 Ang**3

siesta: Pressure (static):
siesta:                Solid            Molecule  Units
siesta:          -0.00000555          0.00001206  Ry/Bohr**3
siesta:          -0.00050983          0.00110686  eV/Ang**3
siesta:          -0.81685229          1.77339800  kBar
(Free)E+ p_basis*V_orbitals  =       -4127.768163
(Free)Eharris+ p_basis*V_orbitals  =       -4127.768163
     spin moment: S , {S} =    0.00000  -0.00000   0.00000   0.00000

siesta: Electric dipole (a.u.)  =    1.657299    0.156968   -0.000000
siesta: Electric dipole (Debye) =    4.212438    0.398973   -0.000000

cite: Please see "GC.bib" for an exhaustive BiBTeX file.
cite: Please clearly indicate Siesta version in published work: v4.1.5-1-g384057250
cite: This calculation has made use of the following articles
cite: which are encouraged to be cited in a published work.
        Primary SIESTA paper
          DOI: www.doi.org/10.1088/0953-8984/14/11/302
        Spin-orbit coupling (on-site approximation)
          DOI: www.doi.org/10.1088/0953-8984/19/19/489001


WARNING: alloc-realloc-dealloc name mismatch
         Name: atomlist isa
         Size:              -116. Bytes
         Node:     0
         Subsequent mismatches will not be reported
>> End of run:  28-JUN-2023  18:42:15
Job completed
