Siesta Version  : v4.1.5-1-g384057250
Architecture    : gcc
Compiler version: GNU Fortran (Debian 10.2.1-6) 10.2.1 20210110
Compiler flags  : mpifort -O2 -fPIC -ftree-vectorize -fallow-argument-mismatch
PP flags        : -DFC_HAVE_ABORT -DMPI -DSIESTA__FLOOK -DSIESTA__METIS -DSIESTA__MUMPS -DCDF -DNCDF -DNCDF_4 -DNCDF_PARALLEL -DSIESTA__MRRR -DSIESTA__ELPA
Libraries       : libncdf.a libfdict.a  -lflookall -ldl -lnetcdff -lnetcdf -lhdf5_hl -lhdf5 -lhdf5_fortran -lz -lscalapack-openmpi -lopenblas -lmetis -lzmumps -lcmumps -ldmumps -lmumps_common -lpord -lsmumps -lesmumps -lscotch -lscotcherr -fopenmp -lelpa
PARALLEL version
NetCDF support
NetCDF-4 support
NetCDF-4 MPI-IO support
METIS ordering support
Lua support

* Running on 6 nodes in parallel
>> Start of run:  16-OCT-2023  18:04:11

                           ***********************       
                           *  WELCOME TO SIESTA  *       
                           ***********************       

reinit: Reading from standard input
reinit: Dumped input in INPUT_TMP.06383
************************** Dump of input data file ****************************
# mpirun -np 4 siesta-4.1.5 < GC.fdf > GC.out &
SystemLabel      GC
NumberOfAtoms    29
NumberOfSpecies  4
%block ChemicalSpeciesLabel
    1    1  H
    2    7  N
    3   14  Si
    4    8  O
%endblock ChemicalSpeciesLabel
############################################
# This overrides Defaults.fdf configuration
############################################
MD.TypeOfRun                CG # CG, Verlet
MD.Steps                    0
MaxSCFIterations            600
AtomicCoordinatesFormat NotScaledCartesianAng
%block AtomicCoordinatesAndAtomicSpecies
    1.5140822272843584 2.8835828298036286 -0.0  1  1  H
    0.8075954972843584 2.0935466498036286 -0.0  2  2  N
    -0.9226914127156416 2.5349105598036283 0.0  3  3  Si
    -1.0784710927156416 4.0249028198036285 0.0  1  4  H
    -2.446013032715642 0.9760030398036285 -0.0  3  5  Si
    -3.929200662715642 1.2188333998036285 -0.0  1  6  H
    -1.2476221727156416 -0.9372731201963715 -0.0  3  7  Si
    -2.013647632715642 -2.4699898601963715 -0.0  2  8  N
    -1.4234010827156416 -3.4272028901963716 0.0  1  9  H
    -3.0652699527156417 -2.5504500901963714 -0.0  1  10  H
    0.46857788728435834 -0.8820988101963715 0.0  2  11  N
    1.5436005072843584 0.44824002980362854 -0.0  3  12  Si
    3.152273827284358 0.42942976980362857 -0.0  4  13  O
    5.6164483 -7.44953905 0.0  1  14  H
    4.58206954 -7.2320376 0.0  2  15  N
    3.29666389 -8.492636 0.0  3  16  Si
    3.80117524 -9.90371886 -0.0  1  17  H
    1.65934232 -8.01362137 0.0  2  18  N
    1.68097912 -6.20463398 -0.0  3  19  Si
    0.54543521 -4.28636135 0.0  3  20  Si
    -1.03431493 -3.94450034 0.0  4  21  O
    1.73226934 -2.87719605 0.0  2  22  N
    1.20957366 -1.92961761 -0.0  1  23  H
    3.50853448 -2.77677601 0.0  3  24  Si
    4.13684451 -1.17938608 0.0  2  25  N
    3.54296161 -0.26248101 0.0  1  26  H
    5.18364407 -1.05231197 -0.0  1  27  H
    4.63288658 -4.07521596 -0.0  2  28  N
    3.79410501 -5.58634043 0.0  3  29  Si
%endblock AtomicCoordinatesAndAtomicSpecies
%include ../../../../Defaults.fdf
************************** End of input data file *****************************

reinit: -----------------------------------------------------------------------
reinit: System Name: 
reinit: -----------------------------------------------------------------------
reinit: System Label: GC
reinit: -----------------------------------------------------------------------

initatom: Reading input for the pseudopotentials and atomic orbitals ----------
Species number:   1 Atomic number:    1 Label: H
Species number:   2 Atomic number:    7 Label: N
Species number:   3 Atomic number:   14 Label: Si
Species number:   4 Atomic number:    8 Label: O

Ground state valence configuration:   1s01
Reading pseudopotential information in formatted form from H.psf

Pseudopotential generated from a relativistic atomic calculation

Valence configuration for pseudopotential generation:
1s( 1.00) rc: 0.01
2p( 0.00) rc: 0.60
3d( 0.00) rc: 1.99
4f( 0.00) rc: 2.49
Ground state valence configuration:   2s02  2p03
Reading pseudopotential information in formatted form from N.psf

Pseudopotential generated from a relativistic atomic calculation

Valence configuration for pseudopotential generation:
2s( 2.00) rc: 0.94
2p( 3.00) rc: 0.59
3d( 0.00) rc: 3.46
4f( 0.00) rc: 2.47
Ground state valence configuration:   3s02  3p02
Reading pseudopotential information in formatted form from Si.psf

Pseudopotential generated from a relativistic atomic calculation

Valence configuration for pseudopotential generation:
3s( 2.00) rc: 1.67
3p( 2.00) rc: 2.04
3d( 0.00) rc: 2.89
4f( 0.00) rc: 2.49
Ground state valence configuration:   2s02  2p04
Reading pseudopotential information in formatted form from O.psf

Pseudopotential generated from a relativistic atomic calculation

Valence configuration for pseudopotential generation:
2s( 2.00) rc: 0.45
2p( 4.00) rc: 0.92
3d( 0.00) rc: 2.24
4f( 0.00) rc: 0.25
For H, standard SIESTA heuristics set lmxkb to 2
 (one more than the basis l, including polarization orbitals).
Use PS.lmax or PS.KBprojectors blocks to override.
For N, standard SIESTA heuristics set lmxkb to 3
 (one more than the basis l, including polarization orbitals).
Use PS.lmax or PS.KBprojectors blocks to override.
For Si, standard SIESTA heuristics set lmxkb to 3
 (one more than the basis l, including polarization orbitals).
Use PS.lmax or PS.KBprojectors blocks to override.
For O, standard SIESTA heuristics set lmxkb to 3
 (one more than the basis l, including polarization orbitals).
Use PS.lmax or PS.KBprojectors blocks to override.

<basis_specs>
===============================================================================
H                    Z=   1    Mass=  1.0100        Charge= 0.17977+309
Lmxo=0 Lmxkb= 2    BasisType=split      Semic=F
L=0  Nsemic=0  Cnfigmx=1
          i=1  nzeta=2  polorb=1  (1s)
            splnorm:   0.62000    
               vcte:    0.0000    
               rinn:    0.0000    
               qcoe:    0.0000    
               qyuk:    0.0000    
               qwid:   0.10000E-01
                rcs:    0.0000      0.0000    
            lambdas:    1.0000      1.0000    
-------------------------------------------------------------------------------
L=0  Nkbl=1  erefs: 0.17977+309
L=1  Nkbl=1  erefs: 0.17977+309
L=2  Nkbl=1  erefs: 0.17977+309
===============================================================================
</basis_specs>

atom: Called for H                     (Z =   1)

read_vps: Pseudopotential generation method:
read_vps: ATM4.2.7  Troullier-Martins                       
Valence charge for ps generation:    1.00000

xc_check: Exchange-correlation functional:
xc_check: GGA Perdew, Burke & Ernzerhof 1996
V l=0 = -2*Zval/r beyond r=  0.0098
V l=1 = -2*Zval/r beyond r=  0.5817
V l=2 = -2*Zval/r beyond r=  1.9372
All V_l potentials equal beyond r=  1.9372
This should be close to max(r_c) in ps generation
All pots = -2*Zval/r beyond r=  1.9372

VLOCAL1: 99.0% of the norm of Vloc inside     11.567 Ry
VLOCAL1: 99.9% of the norm of Vloc inside     26.362 Ry
atom: Maximum radius for 4*pi*r*r*local-pseudopot. charge    2.25106
atom: Maximum radius for r*vlocal+2*Zval:    1.91306
GHOST: No ghost state for L =  0
GHOST: No ghost state for L =  1
GHOST: No ghost state for L =  2

KBgen: Kleinman-Bylander projectors: 
   l= 0   rc=  2.036604   el= -0.477180   Ekb= -6.081590   kbcos= -0.277285
   l= 1   rc=  2.195416   el=  0.001076   Ekb= -0.926943   kbcos= -0.034643
   l= 2   rc=  2.251056   el=  0.002010   Ekb= -0.130941   kbcos= -0.009788

KBgen: Total number of Kleinman-Bylander projectors:    9
atom: -------------------------------------------------------------------------

atom: SANKEY-TYPE ORBITALS:
atom: Selected multiple-zeta basis: split     

SPLIT: Orbitals with angular momentum L= 0

SPLIT: Basis orbitals for state 1s

SPLIT: PAO cut-off radius determined from an
SPLIT: energy shift=  0.002000 Ry

   izeta = 1
                 lambda =    1.000000
                     rc =    6.518340
                 energy =   -0.475305
                kinetic =    0.912139
    potential(screened) =   -1.387444
       potential(ionic) =   -1.907295

   izeta = 2
                 rmatch =    2.141150
              splitnorm =    0.620000
                 energy =    0.566467
                kinetic =    3.772856
    potential(screened) =   -3.206389
       potential(ionic) =   -3.759093

POLgen: Perturbative polarization orbital with L=  1

POLgen: Polarization orbital for state 1s

   izeta = 1
                     rc =    6.518340
                 energy =    0.533861
                kinetic =    1.121086
    potential(screened) =   -0.587225
       potential(ionic) =   -1.053027
atom: Total number of Sankey-type orbitals:  5

atm_pop: Valence configuration (for local Pseudopot. screening):
 1s( 1.00)                                                            
Vna: chval, zval:    1.00000   1.00000

Vna:  Cut-off radius for the neutral-atom potential:   6.518340

atom: _________________________________________________________________________

<basis_specs>
===============================================================================
N                    Z=   7    Mass=  14.010        Charge= 0.17977+309
Lmxo=1 Lmxkb= 3    BasisType=split      Semic=F
L=0  Nsemic=0  Cnfigmx=2
          i=1  nzeta=2  polorb=0  (2s)
            splnorm:   0.28000    
               vcte:    0.0000    
               rinn:    0.0000    
               qcoe:    0.0000    
               qyuk:    0.0000    
               qwid:   0.10000E-01
                rcs:    0.0000      0.0000    
            lambdas:    1.0000      1.0000    
L=1  Nsemic=0  Cnfigmx=2
          i=1  nzeta=2  polorb=1  (2p)
            splnorm:   0.28000    
               vcte:    0.0000    
               rinn:    0.0000    
               qcoe:    0.0000    
               qyuk:    0.0000    
               qwid:   0.10000E-01
                rcs:    0.0000      0.0000    
            lambdas:    1.0000      1.0000    
-------------------------------------------------------------------------------
L=0  Nkbl=1  erefs: 0.17977+309
L=1  Nkbl=1  erefs: 0.17977+309
L=2  Nkbl=1  erefs: 0.17977+309
L=3  Nkbl=1  erefs: 0.17977+309
===============================================================================
</basis_specs>

atom: Called for N                     (Z =   7)

read_vps: Pseudopotential generation method:
read_vps: ATM4.2.7  Troullier-Martins                       
Valence charge for ps generation:    5.00000

xc_check: Exchange-correlation functional:
xc_check: GGA Perdew, Burke & Ernzerhof 1996
V l=0 = -2*Zval/r beyond r=  1.2889
V l=1 = -2*Zval/r beyond r=  1.2889
V l=2 = -2*Zval/r beyond r=  3.4178
V l=3 = -2*Zval/r beyond r=  2.4084
All V_l potentials equal beyond r=  3.3753
This should be close to max(r_c) in ps generation
All pots = -2*Zval/r beyond r=  3.4178

VLOCAL1: 99.0% of the norm of Vloc inside      3.810 Ry
VLOCAL1: 99.9% of the norm of Vloc inside      8.683 Ry
atom: Maximum radius for 4*pi*r*r*local-pseudopot. charge    4.02088
atom: Maximum radius for r*vlocal+2*Zval:    3.54838
GHOST: No ghost state for L =  0
GHOST: No ghost state for L =  1
GHOST: No ghost state for L =  2
GHOST: No ghost state for L =  3

KBgen: Kleinman-Bylander projectors: 
   l= 0   rc=  3.417763   el= -1.365098   Ekb= -4.433130   kbcos= -0.707855
   l= 1   rc=  3.375302   el= -0.521201   Ekb=-13.264039   kbcos= -0.535594
   l= 2   rc=  3.872880   el=  0.001991   Ekb= -0.641094   kbcos= -0.062456
   l= 3   rc=  3.970931   el=  0.003093   Ekb= -0.474517   kbcos= -0.018236

KBgen: Total number of Kleinman-Bylander projectors:   16
atom: -------------------------------------------------------------------------

atom: SANKEY-TYPE ORBITALS:
atom: Selected multiple-zeta basis: split     

SPLIT: Orbitals with angular momentum L= 0

SPLIT: Basis orbitals for state 2s

SPLIT: PAO cut-off radius determined from an
SPLIT: energy shift=  0.002000 Ry

   izeta = 1
                 lambda =    1.000000
                     rc =    4.730425
                 energy =   -1.363399
                kinetic =    1.245246
    potential(screened) =   -2.608645
       potential(ionic) =   -8.121105

   izeta = 2
                 rmatch =    2.531849
              splitnorm =    0.280000
                 energy =   -0.959908
                kinetic =    2.409435
    potential(screened) =   -3.369343
       potential(ionic) =   -9.427975

SPLIT: Orbitals with angular momentum L= 1

SPLIT: Basis orbitals for state 2p

SPLIT: PAO cut-off radius determined from an
SPLIT: energy shift=  0.002000 Ry

   izeta = 1
                 lambda =    1.000000
                     rc =    5.924108
                 energy =   -0.519262
                kinetic =    3.672940
    potential(screened) =   -4.192202
       potential(ionic) =   -9.518354

   izeta = 2
                 rmatch =    2.531849
              splitnorm =    0.280000
                 energy =   -0.104258
                kinetic =    6.807538
    potential(screened) =   -6.911796
       potential(ionic) =  -13.149920

POLgen: Perturbative polarization orbital with L=  2

POLgen: Polarization orbital for state 2p

   izeta = 1
                     rc =    5.924108
                 energy =    1.427508
                kinetic =    2.872379
    potential(screened) =   -1.444871
       potential(ionic) =   -5.563644
atom: Total number of Sankey-type orbitals: 13

atm_pop: Valence configuration (for local Pseudopot. screening):
 2s( 2.00)                                                            
 2p( 3.00)                                                            
Vna: chval, zval:    5.00000   5.00000

Vna:  Cut-off radius for the neutral-atom potential:   5.924108

atom: _________________________________________________________________________

<basis_specs>
===============================================================================
Si                   Z=  14    Mass=  28.090        Charge= 0.17977+309
Lmxo=1 Lmxkb= 3    BasisType=split      Semic=F
L=0  Nsemic=0  Cnfigmx=3
          i=1  nzeta=2  polorb=0  (3s)
            splnorm:   0.28000    
               vcte:    0.0000    
               rinn:    0.0000    
               qcoe:    0.0000    
               qyuk:    0.0000    
               qwid:   0.10000E-01
                rcs:    0.0000      0.0000    
            lambdas:    1.0000      1.0000    
L=1  Nsemic=0  Cnfigmx=3
          i=1  nzeta=2  polorb=1  (3p)
            splnorm:   0.28000    
               vcte:    0.0000    
               rinn:    0.0000    
               qcoe:    0.0000    
               qyuk:    0.0000    
               qwid:   0.10000E-01
                rcs:    0.0000      0.0000    
            lambdas:    1.0000      1.0000    
-------------------------------------------------------------------------------
L=0  Nkbl=1  erefs: 0.17977+309
L=1  Nkbl=1  erefs: 0.17977+309
L=2  Nkbl=1  erefs: 0.17977+309
L=3  Nkbl=1  erefs: 0.17977+309
===============================================================================
</basis_specs>

atom: Called for Si                    (Z =  14)

read_vps: Pseudopotential generation method:
read_vps: ATM4.2.7  Troullier-Martins                       
Valence charge for ps generation:    4.00000

xc_check: Exchange-correlation functional:
xc_check: GGA Perdew, Burke & Ernzerhof 1996
V l=0 = -2*Zval/r beyond r=  2.7826
V l=1 = -2*Zval/r beyond r=  2.7826
V l=2 = -2*Zval/r beyond r=  2.9253
V l=3 = -2*Zval/r beyond r=  2.7826
All V_l potentials equal beyond r=  2.8530
This should be close to max(r_c) in ps generation
All pots = -2*Zval/r beyond r=  2.9253

VLOCAL1: 99.0% of the norm of Vloc inside      5.333 Ry
VLOCAL1: 99.9% of the norm of Vloc inside     12.154 Ry
atom: Maximum radius for 4*pi*r*r*local-pseudopot. charge    3.39869
atom: Maximum radius for r*vlocal+2*Zval:    2.96205
GHOST: No ghost state for L =  0
GHOST: No ghost state for L =  1
GHOST: No ghost state for L =  2
GHOST: No ghost state for L =  3

KBgen: Kleinman-Bylander projectors: 
   l= 0   rc=  3.075247   el= -0.794092   Ekb=  5.879390   kbcos=  0.167461
   l= 1   rc=  3.153101   el= -0.300068   Ekb=  2.642817   kbcos=  0.058301
   l= 2   rc=  3.273594   el=  0.001958   Ekb= -1.185135   kbcos= -0.104411
   l= 3   rc=  3.232927   el=  0.003046   Ekb= -0.497174   kbcos= -0.015889

KBgen: Total number of Kleinman-Bylander projectors:   16
atom: -------------------------------------------------------------------------

atom: SANKEY-TYPE ORBITALS:
atom: Selected multiple-zeta basis: split     

SPLIT: Orbitals with angular momentum L= 0

SPLIT: Basis orbitals for state 3s

SPLIT: PAO cut-off radius determined from an
SPLIT: energy shift=  0.002000 Ry

   izeta = 1
                 lambda =    1.000000
                     rc =    6.429618
                 energy =   -0.792283
                kinetic =    0.525293
    potential(screened) =   -1.317576
       potential(ionic) =   -3.744923

   izeta = 2
                 rmatch =    3.998416
              splitnorm =    0.280000
                 energy =   -0.583081
                kinetic =    1.069570
    potential(screened) =   -1.652651
       potential(ionic) =   -4.235185

SPLIT: Orbitals with angular momentum L= 1

SPLIT: Basis orbitals for state 3p

SPLIT: PAO cut-off radius determined from an
SPLIT: energy shift=  0.002000 Ry

   izeta = 1
                 lambda =    1.000000
                     rc =    8.464845
                 energy =   -0.298236
                kinetic =    0.785360
    potential(screened) =   -1.083596
       potential(ionic) =   -3.273779

   izeta = 2
                 rmatch =    4.587816
              splitnorm =    0.280000
                 energy =   -0.131871
                kinetic =    1.403687
    potential(screened) =   -1.535557
       potential(ionic) =   -4.015310

POLgen: Perturbative polarization orbital with L=  2

POLgen: Polarization orbital for state 3p

   izeta = 1
                     rc =    8.464845
                 energy =    0.321949
                kinetic =    1.055677
    potential(screened) =   -0.733728
       potential(ionic) =   -2.672950
atom: Total number of Sankey-type orbitals: 13

atm_pop: Valence configuration (for local Pseudopot. screening):
 3s( 2.00)                                                            
 3p( 2.00)                                                            
Vna: chval, zval:    4.00000   4.00000

Vna:  Cut-off radius for the neutral-atom potential:   8.464845

atom: _________________________________________________________________________

<basis_specs>
===============================================================================
O                    Z=   8    Mass=  16.000        Charge= 0.17977+309
Lmxo=1 Lmxkb= 3    BasisType=split      Semic=F
L=0  Nsemic=0  Cnfigmx=2
          i=1  nzeta=2  polorb=0  (2s)
            splnorm:   0.28000    
               vcte:    0.0000    
               rinn:    0.0000    
               qcoe:    0.0000    
               qyuk:    0.0000    
               qwid:   0.10000E-01
                rcs:    0.0000      0.0000    
            lambdas:    1.0000      1.0000    
L=1  Nsemic=0  Cnfigmx=2
          i=1  nzeta=2  polorb=1  (2p)
            splnorm:   0.28000    
               vcte:    0.0000    
               rinn:    0.0000    
               qcoe:    0.0000    
               qyuk:    0.0000    
               qwid:   0.10000E-01
                rcs:    0.0000      0.0000    
            lambdas:    1.0000      1.0000    
-------------------------------------------------------------------------------
L=0  Nkbl=1  erefs: 0.17977+309
L=1  Nkbl=1  erefs: 0.17977+309
L=2  Nkbl=1  erefs: 0.17977+309
L=3  Nkbl=1  erefs: 0.17977+309
===============================================================================
</basis_specs>

atom: Called for O                     (Z =   8)

read_vps: Pseudopotential generation method:
read_vps: ATM4.2.7  Troullier-Martins                       
Valence charge for ps generation:    6.00000

xc_check: Exchange-correlation functional:
xc_check: GGA Perdew, Burke & Ernzerhof 1996
V l=0 = -2*Zval/r beyond r=  1.1000
V l=1 = -2*Zval/r beyond r=  1.1000
V l=2 = -2*Zval/r beyond r=  2.2154
V l=3 = -2*Zval/r beyond r=  1.1000
All V_l potentials equal beyond r=  2.2154
This should be close to max(r_c) in ps generation
All pots = -2*Zval/r beyond r=  2.2154

VLOCAL1: 99.0% of the norm of Vloc inside      8.845 Ry
VLOCAL1: 99.9% of the norm of Vloc inside     20.157 Ry
atom: Maximum radius for 4*pi*r*r*local-pseudopot. charge    2.67231
atom: Maximum radius for r*vlocal+2*Zval:    2.32897
GHOST: No ghost state for L =  0
GHOST: No ghost state for L =  1
GHOST: No ghost state for L =  2
GHOST: No ghost state for L =  3

KBgen: Kleinman-Bylander projectors: 
   l= 0   rc=  2.243238   el= -1.759686   Ekb=**********   kbcos= -0.171774
   l= 1   rc=  2.328968   el= -0.663873   Ekb=-14.506792   kbcos= -0.519897
   l= 2   rc=  2.573941   el=  0.002031   Ekb= -1.137373   kbcos= -0.019581
   l= 3   rc=  2.606321   el=  0.003153   Ekb= -1.013546   kbcos= -0.003122

KBgen: Total number of Kleinman-Bylander projectors:   16
atom: -------------------------------------------------------------------------

atom: SANKEY-TYPE ORBITALS:
atom: Selected multiple-zeta basis: split     

SPLIT: Orbitals with angular momentum L= 0

SPLIT: Basis orbitals for state 2s

SPLIT: PAO cut-off radius determined from an
SPLIT: energy shift=  0.002000 Ry

   izeta = 1
                 lambda =    1.000000
                     rc =    4.243912
                 energy =   -1.758270
                kinetic =    3.286084
    potential(screened) =   -5.044353
       potential(ionic) =  -12.921184

   izeta = 2
                 rmatch =    2.187845
              splitnorm =    0.280000
                 energy =   -0.885018
                kinetic =    8.134434
    potential(screened) =   -9.019452
       potential(ionic) =  -17.710645

SPLIT: Orbitals with angular momentum L= 1

SPLIT: Basis orbitals for state 2p

SPLIT: PAO cut-off radius determined from an
SPLIT: energy shift=  0.002000 Ry

   izeta = 1
                 lambda =    1.000000
                     rc =    5.314825
                 energy =   -0.661986
                kinetic =    4.917472
    potential(screened) =   -5.579458
       potential(ionic) =  -13.236259

   izeta = 2
                 rmatch =    2.160663
              splitnorm =    0.280000
                 energy =   -0.068760
                kinetic =    9.183374
    potential(screened) =   -9.252135
       potential(ionic) =  -18.274251

POLgen: Perturbative polarization orbital with L=  2

POLgen: Polarization orbital for state 2p

   izeta = 1
                     rc =    5.314825
                 energy =    1.970580
                kinetic =    3.886128
    potential(screened) =   -1.915547
       potential(ionic) =   -7.749584
atom: Total number of Sankey-type orbitals: 13

atm_pop: Valence configuration (for local Pseudopot. screening):
 2s( 2.00)                                                            
 2p( 4.00)                                                            
Vna: chval, zval:    6.00000   6.00000

Vna:  Cut-off radius for the neutral-atom potential:   5.314825

atom: _________________________________________________________________________

prinput: Basis input ----------------------------------------------------------

PAO.BasisType split     

%block ChemicalSpeciesLabel
    1    1 H                       # Species index, atomic number, species label
    2    7 N                       # Species index, atomic number, species label
    3   14 Si                      # Species index, atomic number, species label
    4    8 O                       # Species index, atomic number, species label
%endblock ChemicalSpeciesLabel

%block PAO.Basis                 # Define Basis set
H                     1                    # Species label, number of l-shells
 n=1   0   2 P   1                   # n, l, Nzeta, Polarization, NzetaPol
   6.518      2.141   
   1.000      1.000   
N                     2                    # Species label, number of l-shells
 n=2   0   2                         # n, l, Nzeta 
   4.730      2.532   
   1.000      1.000   
 n=2   1   2 P   1                   # n, l, Nzeta, Polarization, NzetaPol
   5.924      2.532   
   1.000      1.000   
Si                    2                    # Species label, number of l-shells
 n=3   0   2                         # n, l, Nzeta 
   6.430      3.998   
   1.000      1.000   
 n=3   1   2 P   1                   # n, l, Nzeta, Polarization, NzetaPol
   8.465      4.588   
   1.000      1.000   
O                     2                    # Species label, number of l-shells
 n=2   0   2                         # n, l, Nzeta 
   4.244      2.188   
   1.000      1.000   
 n=2   1   2 P   1                   # n, l, Nzeta, Polarization, NzetaPol
   5.315      2.161   
   1.000      1.000   
%endblock PAO.Basis

prinput: ----------------------------------------------------------------------

Dumping basis to NetCDF file H.ion.nc
Dumping basis to NetCDF file N.ion.nc
Dumping basis to NetCDF file Si.ion.nc
Dumping basis to NetCDF file O.ion.nc
coor:   Atomic-coordinates input format  =     Cartesian coordinates
coor:                                          (in Angstroms)

siesta: Atomic coordinates (Bohr) and species
siesta:      2.86120   5.44918  -0.00000  1        1
siesta:      1.52613   3.95623  -0.00000  2        2
siesta:     -1.74363   4.79029   0.00000  3        3
siesta:     -2.03802   7.60597   0.00000  1        4
siesta:     -4.62230   1.84438  -0.00000  3        5
siesta:     -7.42512   2.30326  -0.00000  1        6
siesta:     -2.35767  -1.77119  -0.00000  3        7
siesta:     -3.80524  -4.66761  -0.00000  2        8
siesta:     -2.68984  -6.47648   0.00000  1        9
siesta:     -5.79252  -4.81965  -0.00000  1       10
siesta:      0.88548  -1.66693   0.00000  2       11
siesta:      2.91698   0.84705  -0.00000  3       12
siesta:      5.95694   0.81150  -0.00000  4       13
siesta:     10.61355 -14.07759   0.00000  1       14
siesta:      8.65886 -13.66658   0.00000  2       15
siesta:      6.22979 -16.04876   0.00000  3       16
siesta:      7.18318 -18.71532  -0.00000  1       17
siesta:      3.13570 -15.14356   0.00000  2       18
siesta:      3.17659 -11.72506  -0.00000  3       19
siesta:      1.03072  -8.10005   0.00000  3       20
siesta:     -1.95457  -7.45403   0.00000  4       21
siesta:      3.27352  -5.43711   0.00000  2       22
siesta:      2.28576  -3.64645  -0.00000  1       23
siesta:      6.63017  -5.24735   0.00000  3       24
siesta:      7.81751  -2.22872   0.00000  2       25
siesta:      6.69523  -0.49602   0.00000  1       26
siesta:      9.79567  -1.98858  -0.00000  1       27
siesta:      8.75489  -7.70105  -0.00000  2       28
siesta:      7.16982 -10.55666   0.00000  3       29

siesta: Automatic unit cell vectors (Ang):
siesta:   18.088797    0.000000    0.000000
siesta:    0.000000   22.910067    0.000000
siesta:    0.000000    0.000000    9.854683

siesta: System type = molecule  

initatomlists: Number of atoms, orbitals, and projectors:     29   297   394

siesta: ******************** Simulation parameters ****************************
siesta:
siesta: The following are some of the parameters of the simulation.
siesta: A complete list of the parameters used, including default values,
siesta: can be found in file out.fdf
siesta:
redata: Spin configuration                          = spin-orbit
redata: Number of spin components                   = 8
redata: Time-Reversal Symmetry                      = F
redata: Spin spiral                                 = F
############################################################
This spin-orbit implementation uses a local approximation.
From 4.2 and onwards the full non-local approximation is implemented
You are strongly advised to use >=4.2 versions!
############################################################
redata: Long output                                 =   F
redata: Number of Atomic Species                    =        4
redata: Charge density info will appear in .RHO file
redata: Write Mulliken Pop.                         = NO
redata: Matel table size (NRTAB)                    =     1024
redata: Mesh Cutoff                                 =   340.0000 Ry
redata: Net charge of the system                    =     0.0000 |e|
redata: Min. number of SCF Iter                     =        1
redata: Max. number of SCF Iter                     =      600
redata: SCF convergence failure will abort job
redata: SCF mix quantity                            = Hamiltonian
redata: Mix DM or H after convergence               =   F
redata: Recompute H after scf cycle                 =   F
redata: Mix DM in first SCF step                    =   T
redata: Write Pulay info on disk                    =   F
redata: New DM Occupancy tolerance                  = 0.000000000001
redata: No kicks to SCF
redata: DM Mixing Weight for Kicks                  =     0.5000
redata: Require Harris convergence for SCF          =   F
redata: Harris energy tolerance for SCF             =     0.000100 eV
redata: Require DM convergence for SCF              =   T
redata: DM tolerance for SCF                        =     0.000008
redata: Require EDM convergence for SCF             =   F
redata: EDM tolerance for SCF                       =     0.001000 eV
redata: Require H convergence for SCF               =   T
redata: Hamiltonian tolerance for SCF               =     0.000001 eV
redata: Require (free) Energy convergence for SCF   =   F
redata: (free) Energy tolerance for SCF             =     0.000100 eV
redata: Using Saved Data (generic)                  =   F
redata: Use continuation files for DM               =   T
redata: Neglect nonoverlap interactions             =   F
redata: Method of Calculation                       = Diagonalization
redata: Electronic Temperature                      =   299.9978 K
redata: Fix the spin of the system                  =   F
redata: Dynamics option                             = Single-point calculation
mix.SCF: Pulay mixing                            = Pulay
mix.SCF:    Variant                              = stable
mix.SCF:    History steps                        = 6
mix.SCF:    Linear mixing weight                 =     0.250000
mix.SCF:    Mixing weight                        =     0.250000
mix.SCF:    SVD condition                        = 0.1000E-07
mix.SCF:    Restart steps                        = 24
mix.SCF:    Restart save steps                   = 3
mix.SCF: Spin-component mixing                   all
redata: Save all siesta data in one NC              =   F
redata: ***********************************************************************

%block SCF.Mixers
  Pulay
%endblock SCF.Mixers

%block SCF.Mixer.Pulay
  # Mixing method
  method pulay
  variant stable

  # Mixing options
  weight 0.2500
  weight.linear 0.2500
  history 6
  restart 24
  restart.save 3
%endblock SCF.Mixer.Pulay

DM_history_depth set to one: no extrapolation allowed by default for geometry relaxation
Size of DM history Fstack: 1
Total number of electrons:    98.000000
Total ionic charge:    98.000000

* ProcessorY, Blocksize:    2  24


* Orbital distribution balance (max,min):    57    48


Time-reversal symmetry not used.

siesta: k-grid: Number of k-points =     1
siesta: k-grid: Cutoff (effective) =     4.927 Ang
siesta: k-grid: Supercell and displacements
siesta: k-grid:    1   0   0      0.000
siesta: k-grid:    0   1   0      0.000
siesta: k-grid:    0   0   1      0.000

diag: Algorithm                                     = ELPA-1stage
diag: Parallel over k                               =   F
diag: Use parallel 2D distribution                  =   T
diag: Parallel block-size                           = 24
diag: Parallel distribution                         =     2 x     3
diag: Used triangular part                          = Lower
diag: Absolute tolerance                            =  0.100E-15
diag: Orthogonalization factor                      =  0.100E-05
diag: Memory factor                                 =  1.0000


ts: **************************************************************
ts: Save H and S matrices                           =    F
ts: Save DM and EDM matrices                        =    F
ts: Only save the overlap matrix S                  =    F
ts: **************************************************************

************************ Begin: TS CHECKS AND WARNINGS ************************
************************ End: TS CHECKS AND WARNINGS **************************


                     ====================================
                        Single-point calculation
                     ====================================

outcoor: Atomic coordinates (Ang):                          
    1.51408223    2.88358283    0.00000000   1       1  H
    0.80759550    2.09354665    0.00000000   2       2  N
   -0.92269141    2.53491056    0.00000000   3       3  Si
   -1.07847109    4.02490282    0.00000000   1       4  H
   -2.44601303    0.97600304    0.00000000   3       5  Si
   -3.92920066    1.21883340    0.00000000   1       6  H
   -1.24762217   -0.93727312    0.00000000   3       7  Si
   -2.01364763   -2.46998986    0.00000000   2       8  N
   -1.42340108   -3.42720289    0.00000000   1       9  H
   -3.06526995   -2.55045009    0.00000000   1      10  H
    0.46857789   -0.88209881    0.00000000   2      11  N
    1.54360051    0.44824003    0.00000000   3      12  Si
    3.15227383    0.42942977    0.00000000   4      13  O
    5.61644830   -7.44953905    0.00000000   1      14  H
    4.58206954   -7.23203760    0.00000000   2      15  N
    3.29666389   -8.49263600    0.00000000   3      16  Si
    3.80117524   -9.90371886    0.00000000   1      17  H
    1.65934232   -8.01362137    0.00000000   2      18  N
    1.68097912   -6.20463398    0.00000000   3      19  Si
    0.54543521   -4.28636135    0.00000000   3      20  Si
   -1.03431493   -3.94450034    0.00000000   4      21  O
    1.73226934   -2.87719605    0.00000000   2      22  N
    1.20957366   -1.92961761    0.00000000   1      23  H
    3.50853448   -2.77677601    0.00000000   3      24  Si
    4.13684451   -1.17938608    0.00000000   2      25  N
    3.54296161   -0.26248101    0.00000000   1      26  H
    5.18364407   -1.05231197    0.00000000   1      27  H
    4.63288658   -4.07521596    0.00000000   2      28  N
    3.79410501   -5.58634043    0.00000000   3      29  Si

outcell: Unit cell vectors (Ang):
       18.088797    0.000000    0.000000
        0.000000   22.910067    0.000000
        0.000000    0.000000    9.854683

outcell: Cell vector modules (Ang)   :   18.088797   22.910067    9.854683
outcell: Cell angles (23,13,12) (deg):     90.0000     90.0000     90.0000
outcell: Cell volume (Ang**3)        :   4083.9339
<dSpData1D:S at geom step 0
  <sparsity:sparsity for geom step 0
    nrows_g=297 nrows=57 sparsity=.1537 nnzs=13561, refcount: 8>
  <dData1D:(new from dSpData1D) n=13561, refcount: 1>
refcount: 1>
new_DM -- step:     1
Initializing Density Matrix...

Attempting to read DM from file... Failed...
DM filled with atomic data:
<dSpData2D:DM initialized from atoms
  <sparsity:sparsity for geom step 0
    nrows_g=297 nrows=57 sparsity=.1537 nnzs=13561, refcount: 9>
  <dData2D:DM n=13561 m=8, refcount: 1>
refcount: 1>
     spin moment: S , {S} =   56.00000   0.00000   0.00000  56.00000
No. of atoms with KB's overlaping orbs in proc 0. Max # of overlaps:      29     232

Initializing spin-orbit part of the Hamiltonian
  Adding spin-orbit effects for H 
  Adding spin-orbit effects for N 
  Adding spin-orbit effects for Si
  Adding spin-orbit effects for O 


New grid distribution:   1
           1       1:  108    1:   64    1:   20
           2       1:  108    1:   64   21:   40
           3       1:  108    1:   64   41:   60
           4       1:  108   65:  128    1:   20
           5       1:  108   65:  128   21:   40
           6       1:  108   65:  128   41:   60

InitMesh: MESH =   216 x   256 x   120 =     6635520
InitMesh: (bp) =   108 x   128 x    60 =      829440
InitMesh: Mesh cutoff (required, used) =   340.000   345.087 Ry
ExtMesh (bp) on 0 =   216 x   168 x   132 =     4790016
New grid distribution:   2
           1      15:  108    1:   77    1:   60
           2       1:   14    1:  102    1:   60
           3       1:   14  103:  128    1:   60
           4      15:  108  117:  128    1:   60
           5      15:  108   78:  102    1:   60
           6      15:  108  103:  116    1:   60
New grid distribution:   3
           1      21:  108   21:   84    1:   60
           2      21:  108    1:   20    1:   60
           3       1:   23   85:  128    1:   60
           4      24:  108  110:  128    1:   60
           5      24:  108   85:  109    1:   60
           6       1:   20    1:   84    1:   60
Setting up quadratic distribution...
ExtMesh (bp) on 0 =   202 x   181 x   172 =     6288664
PhiOnMesh: Number of (b)points on node 0 =               434280
PhiOnMesh: nlist on node 0 =              2448280

stepf: Fermi-Dirac step function

siesta: Program's energy decomposition (eV):
siesta: Ebs     =      -554.340023
siesta: Eions   =      3585.165840
siesta: Ena     =       421.733910
siesta: Ekin    =      3488.549535
siesta: Enl     =     -3423.956298
siesta: Eso     =        -0.003478
siesta: Edftu   =         0.000000
siesta: DEna    =       158.624567
siesta: DUscf   =        93.465311
siesta: DUext   =         0.000000
siesta: Exc     =     -1228.341746
siesta: eta*DQ  =         0.000000
siesta: Emadel  =         0.000000
siesta: Emeta   =         0.000000
siesta: Emolmec =         0.000000
siesta: Ekinion =         0.000000
siesta: Eharris =     -3955.128329
siesta: Etot    =     -4075.094041
siesta: FreeEng =     -4075.095712

        iscf     Eharris(eV)        E_KS(eV)     FreeEng(eV)     dDmax    Ef(eV) dHmax(eV)
   scf:    1    -3955.128329    -4075.094041    -4075.095712  0.952648 -4.931585 25.283014
     spin moment: S , {S} =    2.00972   0.00000  -0.00000   2.00972
timer: Routine,Calls,Time,% = IterSCF        1       5.928  22.19
   scf:    2    -4118.352930    -4115.374168    -4115.408259  0.482668 -3.998576 13.856171
     spin moment: S , {S} =    3.94884  -0.00000  -0.00000   3.94884
   scf:    3    -4118.030656    -4122.138699    -4122.143413  0.463844 -3.846056 12.230886
     spin moment: S , {S} =    0.03652  -0.00000  -0.00000   0.03652
   scf:    4    -4128.013150    -4125.687750    -4125.688053  0.097771 -3.599829  5.398389
     spin moment: S , {S} =    0.00152  -0.00000  -0.00000   0.00152
   scf:    5    -4126.972997    -4126.579758    -4126.579768  0.071687 -3.530013  3.363289
     spin moment: S , {S} =    0.00009  -0.00000  -0.00000   0.00009
   scf:    6    -4127.191851    -4126.883829    -4126.883829  0.027260 -3.577352  1.209185
     spin moment: S , {S} =    0.00002   0.00000  -0.00000   0.00002
   scf:    7    -4127.064636    -4126.977093    -4126.977093  0.013190 -3.639892  0.458424
     spin moment: S , {S} =    0.00001   0.00000  -0.00000   0.00001
   scf:    8    -4127.082632    -4127.027392    -4127.027392  0.012162 -3.709386  0.202220
     spin moment: S , {S} =    0.00000   0.00000   0.00000   0.00000
   scf:    9    -4127.049401    -4127.038079    -4127.038079  0.004795 -3.713040  0.122210
     spin moment: S , {S} =    0.00000   0.00000  -0.00000   0.00000
   scf:   10    -4127.060124    -4127.048400    -4127.048400  0.006211 -3.714078  0.080713
     spin moment: S , {S} =    0.00000   0.00000  -0.00000   0.00000
   scf:   11    -4127.062675    -4127.054785    -4127.054785  0.007236 -3.713237  0.052524
     spin moment: S , {S} =    0.00000  -0.00000  -0.00000   0.00000
   scf:   12    -4127.060255    -4127.057102    -4127.057102  0.005919 -3.712364  0.033356
     spin moment: S , {S} =    0.00000  -0.00000  -0.00000   0.00000
   scf:   13    -4127.057901    -4127.057465    -4127.057465  0.002257 -3.707095  0.022062
     spin moment: S , {S} =    0.00000  -0.00000  -0.00000   0.00000
   scf:   14    -4127.057908    -4127.057654    -4127.057654  0.002174 -3.713727  0.013443
     spin moment: S , {S} =    0.00000  -0.00000  -0.00000   0.00000
   scf:   15    -4127.057760    -4127.057703    -4127.057703  0.000906 -3.713119  0.010263
     spin moment: S , {S} =    0.00000  -0.00000  -0.00000   0.00000
   scf:   16    -4127.057824    -4127.057755    -4127.057755  0.001407 -3.712891  0.006021
     spin moment: S , {S} =    0.00000  -0.00000  -0.00000  -0.00000
   scf:   17    -4127.057803    -4127.057774    -4127.057774  0.001018 -3.712633  0.002627
     spin moment: S , {S} =    0.00000  -0.00000  -0.00000  -0.00000
   scf:   18    -4127.057783    -4127.057778    -4127.057778  0.000380 -3.712483  0.001645
     spin moment: S , {S} =    0.00000  -0.00000  -0.00000  -0.00000
   scf:   19    -4127.057781    -4127.057779    -4127.057779  0.000137 -3.712532  0.001062
     spin moment: S , {S} =    0.00000  -0.00000  -0.00000   0.00000
   scf:   20    -4127.057782    -4127.057780    -4127.057780  0.000144 -3.712483  0.000486
     spin moment: S , {S} =    0.00000  -0.00000  -0.00000  -0.00000
   scf:   21    -4127.057781    -4127.057780    -4127.057780  0.000044 -3.712499  0.000251
     spin moment: S , {S} =    0.00000  -0.00000  -0.00000  -0.00000
   scf:   22    -4127.057781    -4127.057780    -4127.057780  0.000036 -3.712505  0.000165
     spin moment: S , {S} =    0.00000  -0.00000  -0.00000  -0.00000
   scf:   23    -4127.057781    -4127.057780    -4127.057780  0.000017 -3.712520  0.000120
     spin moment: S , {S} =    0.00000  -0.00000  -0.00000  -0.00000
   scf:   24    -4127.057780    -4127.057780    -4127.057780  0.000013 -3.712529  0.000088
     spin moment: S , {S} =    0.00000  -0.00000  -0.00000  -0.00000
mix: Pulay -- resetting history
   scf:   25    -4127.057780    -4127.057780    -4127.057780  0.000006 -3.712528  0.000057
     spin moment: S , {S} =    0.00000  -0.00000  -0.00000  -0.00000
   scf:   26    -4127.057780    -4127.057780    -4127.057780  0.000003 -3.712525  0.000056
     spin moment: S , {S} =    0.00000  -0.00000  -0.00000  -0.00000
   scf:   27    -4127.057780    -4127.057780    -4127.057780  0.000006 -3.712516  0.000033
     spin moment: S , {S} =    0.00000  -0.00000  -0.00000  -0.00000
   scf:   28    -4127.057780    -4127.057780    -4127.057780  0.000002 -3.712518  0.000025
     spin moment: S , {S} =    0.00000  -0.00000  -0.00000  -0.00000
   scf:   29    -4127.057780    -4127.057780    -4127.057780  0.000002 -3.712519  0.000019
     spin moment: S , {S} =    0.00000  -0.00000  -0.00000  -0.00000
   scf:   30    -4127.057780    -4127.057780    -4127.057780  0.000002 -3.712519  0.000011
     spin moment: S , {S} =    0.00000  -0.00000  -0.00000  -0.00000
   scf:   31    -4127.057780    -4127.057780    -4127.057780  0.000001 -3.712519  0.000005
     spin moment: S , {S} =    0.00000  -0.00000  -0.00000  -0.00000
   scf:   32    -4127.057780    -4127.057780    -4127.057780  0.000001 -3.712519  0.000002
     spin moment: S , {S} =    0.00000  -0.00000  -0.00000  -0.00000
   scf:   33    -4127.057780    -4127.057780    -4127.057780  0.000000 -3.712518  0.000001
     spin moment: S , {S} =    0.00000  -0.00000  -0.00000  -0.00000
   scf:   34    -4127.057780    -4127.057780    -4127.057780  0.000000 -3.712518  0.000001
     spin moment: S , {S} =    0.00000  -0.00000  -0.00000  -0.00000

SCF Convergence by DM+H criterion
max |DM_out - DM_in|         :     0.0000001806
max |H_out - H_in|      (eV) :     0.0000009957
SCF cycle converged after 34 iterations

Using DM_out to compute the final energy and forces
No. of atoms with KB's overlaping orbs in proc 0. Max # of overlaps:      29     232

siesta: E_KS(eV) =            -4127.0578

siesta: E_KS - E_eggbox =     -4127.0578
     spin moment: S , {S} =    0.00000  -0.00000  -0.00000  -0.00000

siesta: Atomic forces (eV/Ang):
     1   -0.017571   -0.086164   -0.000000
     2    0.711065   -0.495067   -0.000000
     3   -0.780712    0.178296    0.000000
     4    0.028827    0.254682    0.000000
     5    0.456227    0.260901   -0.000000
     6    0.048597    0.039997   -0.000000
     7   -2.576581   -0.469244   -0.000000
     8   -9.759817   16.963535    0.000000
     9  -36.186013   47.980513   -0.000000
    10   -0.353598    0.678743    0.000000
    11   -0.822512    3.727306   -0.000000
    12   -2.246096    1.533258    0.000000
    13  -15.250572   33.355714   -0.000000
    14   -0.022718    0.161915    0.000000
    15   -0.147773   -0.119642    0.000000
    16   -0.011554    0.048458    0.000000
    17   -0.077701   -0.018124   -0.000000
    18    0.000473   -0.060005    0.000000
    19   -0.466205   -0.044912   -0.000000
    20    2.741427   -0.568773    0.000000
    21   47.663125  -62.895069   -0.000000
    22    1.611818   -4.413188    0.000000
    23   -0.300297    0.041930    0.000000
    24    0.960994    0.623754   -0.000000
    25    7.282535  -12.952710   -0.000000
    26    9.307796  -16.855247    0.000000
    27    0.249528   -0.679948    0.000000
    28    0.100744   -1.216641   -0.000000
    29    0.492889    0.518553    0.000000
----------------------------------------
   Tot    2.636326    5.492823    0.000000
----------------------------------------
   Max   62.895069
   Res   11.853588    sqrt( Sum f_i^2 / 3N )
----------------------------------------
   Max   62.895069    constrained

Stress tensor Voigt[x,y,z,yz,xz,xy] (kbar):      -16.43      -37.15       -0.10        0.00       -0.00       26.20
(Free)E + p*V (eV/cell)    -4081.4384
Target enthalpy (eV/cell)    -4127.0578

siesta: Eigenvalues (eV):
ik =     1
  -28.5332  -28.5332  -27.2094  -27.2094  -21.9010  -21.9010  -21.3497  -21.3497  -21.1780  -21.1780
  -20.1413  -20.1413  -19.6481  -19.6481  -19.3679  -19.3679  -19.1472  -19.1472  -18.9751  -18.9751
  -16.2209  -16.2209  -15.3054  -15.3054  -14.5290  -14.5290  -13.6264  -13.6264  -13.3286  -13.3286
  -13.0501  -13.0501  -12.9662  -12.9662  -12.5529  -12.5529  -12.1529  -12.1529  -12.0652  -12.0652
  -11.1777  -11.1777  -10.9344  -10.9344  -10.6275  -10.6275  -10.3351  -10.3351  -10.0092  -10.0092
   -9.8950   -9.8950   -9.6747   -9.6747   -9.4030   -9.4030   -9.2858   -9.2858   -8.9866   -8.9866
   -8.8797   -8.8797   -8.7097   -8.7097   -8.5397   -8.5397   -8.4275   -8.4275   -8.2877   -8.2877
   -8.0188   -8.0188   -7.8712   -7.8712   -7.4148   -7.4148   -7.3852   -7.3852   -6.6909   -6.6909
   -6.5224   -6.5224   -6.3335   -6.3335   -5.9956   -5.9956   -5.9424   -5.9424   -5.3559   -5.3559
   -5.2944   -5.2944   -5.2163   -5.2163   -4.9903   -4.9903   -4.2912   -4.2912   -3.1285   -3.1285
   -2.5199   -2.5199   -2.4201   -2.4201   -2.2804   -2.2804   -2.1837   -2.1837   -2.0821   -2.0821
   -1.9042   -1.9042   -1.5789   -1.5789   -1.5123   -1.5123   -1.1979   -1.1979   -0.9462   -0.9462
   -0.8736   -0.8736   -0.7396   -0.7396   -0.3675   -0.3675   -0.2765   -0.2765    0.4699    0.4699
    0.4794    0.4794    0.5271    0.5271    0.6196    0.6196    0.7209    0.7209    1.1706    1.1706
    1.4219    1.4219    1.4812    1.4812    1.5333    1.5333    1.6347    1.6347    2.1035    2.1035
    2.3490    2.3490    2.5709    2.5709    2.5777    2.5777    2.6824    2.6824    2.9268    2.9268
    3.0382    3.0382    3.3337    3.3337    3.4389    3.4389    3.6152    3.6152    3.7142    3.7142
    4.0706    4.0706    4.1457    4.1457    4.3313    4.3313    4.3814    4.3814    4.5356    4.5356
    4.6159    4.6159    4.8091    4.8091    4.9565    4.9565    5.2489    5.2489    5.3894    5.3894
    5.6059    5.6059    5.6692    5.6692    5.7083    5.7083    5.8055    5.8055    5.9285    5.9285
    6.0930    6.0930    6.4338    6.4338    6.4748    6.4748    6.7220    6.7220    6.8125    6.8125
    7.1881    7.1881    7.2021    7.2021    7.3198    7.3198    7.5178    7.5178    7.7207    7.7207
    7.7628    7.7628    7.8385    7.8385    8.0365    8.0365    8.2147    8.2147    8.4427    8.4427
    8.5731    8.5731    8.6515    8.6515    8.7699    8.7699    8.7936    8.7936    9.1326    9.1326
    9.2529    9.2529    9.2565    9.2565    9.7129    9.7129    9.7639    9.7639   10.1325   10.1325
   10.2922   10.2922   10.3863   10.3863   10.4132   10.4132   10.8330   10.8330   11.1343   11.1343
   11.2240   11.2240   11.3380   11.3380   11.4804   11.4804   11.5876   11.5876   12.0260   12.0260
   12.4481   12.4481   12.5949   12.5949   12.6975   12.6975   12.7792   12.7792   12.9129   12.9129
   13.0382   13.0382   13.4907   13.4907   13.6547   13.6547   14.0608   14.0608   14.1718   14.1718
   14.4019   14.4019   14.6255   14.6255   14.7820   14.7820   15.3664   15.3664   15.5609   15.5609
   15.6088   15.6088   16.1520   16.1520   16.5775   16.5775   16.8229   16.8229   16.9855   16.9855
   17.6638   17.6638   17.6792   17.6792   18.3029   18.3029   18.4638   18.4638   18.6376   18.6376
   19.1002   19.1002   19.1390   19.1390   19.5695   19.5695   19.9453   19.9453   20.4906   20.4906
   20.8566   20.8566   21.1199   21.1199   21.5858   21.5858   21.8922   21.8922   22.2076   22.2076
   22.5643   22.5643   23.2568   23.2568   23.6740   23.6740   24.2941   24.2941   24.6290   24.6290
   24.9972   24.9972   25.3091   25.3091   25.6372   25.6372   26.7072   26.7072   27.4399   27.4399
   27.7711   27.7711   28.6987   28.6987   29.1931   29.1931   29.5138   29.5138   29.8038   29.8038
   30.1901   30.1901   30.5201   30.5201   30.6937   30.6937   31.0489   31.0489   31.0552   31.0552
   31.5066   31.5066   31.7961   31.7961   32.1409   32.1409   32.8626   32.8626   32.9530   32.9530
   33.4975   33.4975   34.6058   34.6058   34.8357   34.8357   35.1062   35.1062   35.7842   35.7842
   36.3277   36.3277   36.8606   36.8606   36.9146   36.9146   37.1060   37.1060   38.3689   38.3689
   38.4738   38.4738   38.7812   38.7812   39.4621   39.4621   39.7517   39.7517   40.0630   40.0630
   40.0886   40.0886   40.4289   40.4289   40.9720   40.9720   41.0426   41.0426   41.1608   41.1608
   42.3600   42.3600   42.7958   42.7958   42.9229   42.9229   43.0438   43.0438   43.3341   43.3341
   43.8124   43.8124   43.9341   43.9341   44.4713   44.4713   44.6397   44.6397   44.8015   44.8015
   45.5154   45.5154   45.8659   45.8659   46.5503   46.5503   46.5715   46.5715   46.7941   46.7941
   47.2952   47.2952   47.4278   47.4278   47.4450   47.4450   48.0959   48.0959   48.4804   48.4804
   49.1609   49.1609   49.2790   49.2790   49.6703   49.6703   50.3077   50.3077   50.5919   50.5919
   51.6908   51.6908   51.8810   51.8810   53.1587   53.1587   54.2132   54.2132   54.2714   54.2714
   55.0932   55.0932   55.1475   55.1475   55.7293   55.7293   55.8272   55.8272   56.4709   56.4709
   57.0095   57.0095   57.1615   57.1615   58.0281   58.0281   59.7214   59.7214   59.9440   59.9440
   60.6246   60.6246   61.1534   61.1534   61.3606   61.3606   62.0299   62.0299   63.3655   63.3655
   63.6120   63.6120   65.1102   65.1102   65.2266   65.2266   66.8783   66.8783   66.9845   66.9845
   68.5131   68.5131   69.2876   69.2876   69.7874   69.7874   71.7226   71.7226   72.5461   72.5461
   75.3049   75.3049   76.1184   76.1184   76.7201   76.7201   80.0708   80.0708   82.6916   82.6916
   89.5574   89.5574   90.8959   90.8959   92.6070   92.6070   92.6602   92.6602   93.7410   93.7410
   95.9063   95.9063  100.3600  100.3600  103.5374  103.5374  104.8013  104.8013  107.2543  107.2543
  111.5095  111.5095  117.4987  117.4987  120.4756  120.4756  124.1666  124.1666  130.0930  130.0930
  131.0925  131.0925  134.7338  134.7338  143.9213  143.9213  148.2754  148.2754  153.7734  153.7734
  187.3024  187.3024  264.3054  264.3054
siesta: Fermi energy =      -3.712518 eV

siesta: Program's energy decomposition (eV):
siesta: Ebs     =     -1167.489383
siesta: Eions   =      3585.165840
siesta: Ena     =       421.733910
siesta: Ekin    =      2989.876285
siesta: Enl     =     -2877.287799
siesta: Eso     =        -0.004462
siesta: Edftu   =         0.000000
siesta: DEna    =        47.929045
siesta: DUscf   =        15.629565
siesta: DUext   =         0.000000
siesta: Exc     =     -1139.768484
siesta: eta*DQ  =         0.000000
siesta: Emadel  =         0.000000
siesta: Emeta   =         0.000000
siesta: Emolmec =         0.000000
siesta: Ekinion =         0.000000
siesta: Eharris =     -4127.057780
siesta: Etot    =     -4127.057780
siesta: FreeEng =     -4127.057780

siesta: Final energy (eV):
siesta:  Band Struct. =   -1167.489383
siesta:       Kinetic =    2989.876285
siesta:       Hartree =    9668.713644
siesta:       Edftu   =       0.000000
siesta:       Eso     =      -0.004462
siesta:    Ext. field =       0.000000
siesta:   Exch.-corr. =   -1139.768484
siesta:  Ion-electron =  -22014.509609
siesta:       Ion-ion =    6368.634846
siesta:       Ekinion =       0.000000
siesta:         Total =   -4127.057780
siesta:         Fermi =      -3.712518

siesta: Atomic forces (eV/Ang):
siesta:      1   -0.017571   -0.086164   -0.000000
siesta:      2    0.711065   -0.495067   -0.000000
siesta:      3   -0.780712    0.178296    0.000000
siesta:      4    0.028827    0.254682    0.000000
siesta:      5    0.456227    0.260901   -0.000000
siesta:      6    0.048597    0.039997   -0.000000
siesta:      7   -2.576581   -0.469244   -0.000000
siesta:      8   -9.759817   16.963535    0.000000
siesta:      9  -36.186013   47.980513   -0.000000
siesta:     10   -0.353598    0.678743    0.000000
siesta:     11   -0.822512    3.727306   -0.000000
siesta:     12   -2.246096    1.533258    0.000000
siesta:     13  -15.250572   33.355714   -0.000000
siesta:     14   -0.022718    0.161915    0.000000
siesta:     15   -0.147773   -0.119642    0.000000
siesta:     16   -0.011554    0.048458    0.000000
siesta:     17   -0.077701   -0.018124   -0.000000
siesta:     18    0.000473   -0.060005    0.000000
siesta:     19   -0.466205   -0.044912   -0.000000
siesta:     20    2.741427   -0.568773    0.000000
siesta:     21   47.663125  -62.895069   -0.000000
siesta:     22    1.611818   -4.413188    0.000000
siesta:     23   -0.300297    0.041930    0.000000
siesta:     24    0.960994    0.623754   -0.000000
siesta:     25    7.282535  -12.952710   -0.000000
siesta:     26    9.307796  -16.855247    0.000000
siesta:     27    0.249528   -0.679948    0.000000
siesta:     28    0.100744   -1.216641   -0.000000
siesta:     29    0.492889    0.518553    0.000000
siesta: ----------------------------------------
siesta:    Tot    2.636326    5.492823    0.000000

siesta: Stress tensor (static) (eV/Ang**3):
siesta:    -0.010257    0.016355   -0.000000
siesta:     0.016355   -0.023189    0.000000
siesta:    -0.000000    0.000000   -0.000065

siesta: Cell volume =       4083.933861 Ang**3

siesta: Pressure (static):
siesta:                Solid            Molecule  Units
siesta:           0.00012166         -0.00000706  Ry/Bohr**3
siesta:           0.01117044         -0.00064845  eV/Ang**3
siesta:          17.89721931         -1.03894251  kBar
(Free)E+ p_basis*V_orbitals  =       -4107.207363
(Free)Eharris+ p_basis*V_orbitals  =       -4107.207363
     spin moment: S , {S} =    0.00000  -0.00000  -0.00000  -0.00000

siesta: Electric dipole (a.u.)  =   -0.118802    1.471515    0.000000
siesta: Electric dipole (Debye) =   -0.301964    3.740219    0.000000

cite: Please see "GC.bib" for an exhaustive BiBTeX file.
cite: Please clearly indicate Siesta version in published work: v4.1.5-1-g384057250
cite: This calculation has made use of the following articles
cite: which are encouraged to be cited in a published work.
        Primary SIESTA paper
          DOI: www.doi.org/10.1088/0953-8984/14/11/302
        Spin-orbit coupling (on-site approximation)
          DOI: www.doi.org/10.1088/0953-8984/19/19/489001


WARNING: alloc-realloc-dealloc name mismatch
         Name: atomlist isa
         Size:              -116. Bytes
         Node:     0
         Subsequent mismatches will not be reported
>> End of run:  16-OCT-2023  18:06:25
Job completed
