Executable      : siesta-5
Version         : 5.1-MaX-41-g6ad11e234
Architecture    : x86_64
Compiler version: GNU-11.4.0
Compiler flags  : -DSIESTA__METIS -fallow-argument-mismatch -O3 -march=native
Parallelisations: MPI, OpenMP
* OpenMP version: 201511
NetCDF support
NetCDF-4 support
NetCDF-4 MPI-IO support
METIS ordering support
Lua support
Native ELPA support
DFT-D3 support
Wannier90 wrapper support

Runtime information:
* Directory : /home/wind/Documents/Si_DNA2/C/Bases/Thymine_VDW_OP
* Running on 8 nodes in parallel.
* Running 1 OpenMP threads.
* Running 8 processes.
* OpenMP NOT bound (please bind threads!)
* OpenMP runtime schedule DYNAMIC, chunks 1
** Changing chunk size:
** OpenMP runtime schedule DYNAMIC, chunks 32
** OpenMP (trying to FORCE nesting)
* OpenMP allows 255 nested levels.
>> Start of run:   2-SEP-2024  11:57:41

                           *********************** 
                           *  WELCOME TO SIESTA  * 
                           *********************** 

 NOTE: Siesta V5 introduces some new defaults for basis-set generation
 NOTE: which might lead to slightly different numerical results.
 NOTE: Please see the manual for full details and compatibility measures.


reinit: Reading from standard input
reinit: Dumping input in INPUT_TMP.20921
************************** Dump of input data file ****************************
# mpirun -np 8 siesta-5 < Thymine.fdf > Thymine.out
SystemLabel      Thymine
NumberOfAtoms    15
NumberOfSpecies  4
%block ChemicalSpeciesLabel
    1    1  H   ../../../Pseudos/VW/H/H.psf
    2    6  C   ../../../Pseudos/VW/C/C.psf
    3    7  N   ../../../Pseudos/VW/N/N.psf
    4    8  O   ../../../Pseudos/VW/O/O.psf
%endblock ChemicalSpeciesLabel
############################################
# This overrides Defaults.fdf configuration
############################################
XC.Functional               VDW
XC.Authors                  DRSLL
MD.Steps                1000
%block Geometry.Constraints
    atom all 0.0 0.0 1.0 # constrain along z Cartesian vector
    atom [4]
    clear-prev [13, 14, 15]
%endblock
AtomicCoordinatesFormat NotScaledCartesianAng
%block AtomicCoordinatesAndAtomicSpecies
   -1.54987459    1.91092563    0.00000000   4       1  O
    2.92523104    0.31921641    0.00000000   4       2  O
    0.67306595    1.12214136    0.00000000   3       3  N
    1.11480000   -1.23160000    0.00000000   3       4  N
   -1.23965168   -0.47943666    0.00000000   2       5  C
   -0.81051817    0.92652017    0.00000000   2       6  C
   -0.30357468   -1.46528293    0.00000000   2       7  C
   -2.69917722   -0.82316223    0.00000000   2       8  C
    1.72000902    0.10539900    0.00000000   2       9  C
   -0.56623916   -2.52616431    0.00000000   1      10  H
    0.99786929    2.11232907    0.00000000   1      11  H
    1.75804903   -2.04476313    0.00000000   1      12  H
   -3.20617833   -0.42216488   -0.88890000   1      13  H
   -3.20718682   -0.42218389    0.88870000   1      14  H
   -2.85549408   -1.91774032    0.00000000   1      15  H
%endblock AtomicCoordinatesAndAtomicSpecies
#############
# Unit Cell
#############
LatticeConstant 1.0 Ang
%block LatticeVectors
    12.649619   0.000000    0.000000
    0.000000    11.754064   0.000000
    0.000000    0.000000    8.675604
%endblock LatticeVectors
%include ../../../Defaults.fdf
************************** End of input data file *****************************

reinit: -----------------------------------------------------------------------
reinit: System Name: 
reinit: -----------------------------------------------------------------------
reinit: System Label: Thymine
reinit: -----------------------------------------------------------------------

NOTE on units for spin output: 
{S} is the spin magnetic moment, in units of the Bohr magneton,
assuming a g-factor for the electron spin of exactly 2.
The spin magnetic moment is then numerically equal to the charge inbalance,
in units of electrons, between the spin-up and -down channels.


initatom: Reading input for the pseudopotentials and atomic orbitals ----------
Species number:   1 Atomic number:    1 Label: H
Species number:   2 Atomic number:    6 Label: C
Species number:   3 Atomic number:    7 Label: N
Species number:   4 Atomic number:    8 Label: O

Ground state valence configuration (from tables):   1s01  2p00  3d00  4f00
Ground state valence configuration (from tables):   2s02  2p02  3d00  4f00
Ground state valence configuration (from tables):   2s02  2p03  3d00  4f00
Ground state valence configuration (from tables):   2s02  2p04  3d00  4f00

---- Processing specs for species: H
Reading pseudopotential information in formatted form from:
  ../../../Pseudos/VW/H/H.psf

---- Processing specs for species: C
Reading pseudopotential information in formatted form from:
  ../../../Pseudos/VW/C/C.psf

---- Processing specs for species: N
Reading pseudopotential information in formatted form from:
  ../../../Pseudos/VW/N/N.psf

---- Processing specs for species: O
Reading pseudopotential information in formatted form from:
  ../../../Pseudos/VW/O/O.psf

---- Pseudopotential check for H 

Pseudopotential generated from a fully relativistic atomic calculation
There are spin-orbit semi-local pseudopotentials available

Pseudized shells:
1s( 1.00) rc: 0.04
Valence configuration for ps generation: (assumed as above)

---- Pseudopotential check for C 

Pseudopotential generated from a fully relativistic atomic calculation
There are spin-orbit semi-local pseudopotentials available

Pseudized shells:
2s( 2.00) rc: 1.09
2p( 2.00) rc: 0.72
3d( 0.00) rc: 1.84
Valence configuration for ps generation: (assumed as above)

---- Pseudopotential check for N 

Pseudopotential generated from a fully relativistic atomic calculation
There are spin-orbit semi-local pseudopotentials available

Pseudized shells:
2s( 2.00) rc: 1.00
2p( 3.00) rc: 1.04
3d( 0.00) rc: 2.87
Valence configuration for ps generation: (assumed as above)

---- Pseudopotential check for O 

Pseudopotential generated from a fully relativistic atomic calculation
There are spin-orbit semi-local pseudopotentials available

Pseudized shells:
2s( 2.00) rc: 0.89
2p( 4.00) rc: 1.03
3d( 0.00) rc: 1.64
Valence configuration for ps generation: (assumed as above)
For H, standard SIESTA heuristics set lmxkb to 2
 (one more than the basis l, including polarization orbitals).
Use PS.lmax or PS.KBprojectors blocks to override.
For C, standard SIESTA heuristics set lmxkb to 3
 (one more than the basis l, including polarization orbitals).
Use PS.lmax or PS.KBprojectors blocks to override.
For N, standard SIESTA heuristics set lmxkb to 3
 (one more than the basis l, including polarization orbitals).
Use PS.lmax or PS.KBprojectors blocks to override.
For O, standard SIESTA heuristics set lmxkb to 3
 (one more than the basis l, including polarization orbitals).
Use PS.lmax or PS.KBprojectors blocks to override.
../../../Pseudos/VW/H/H.psf pseudopotential only contains V_ls up to l=0 -- lmxkb reset.
../../../Pseudos/VW/C/C.psf pseudopotential only contains V_ls up to l=2 -- lmxkb reset.
../../../Pseudos/VW/N/N.psf pseudopotential only contains V_ls up to l=2 -- lmxkb reset.
../../../Pseudos/VW/O/O.psf pseudopotential only contains V_ls up to l=2 -- lmxkb reset.

<basis_specs>
===============================================================================
H                    Z=   1    Mass=  1.0080        Charge= 0.17977+309
Lmxo=1 Lmxkb= 0    BasisType=split      Semic=F
L=0  Nsemic=0  Cnfigmx=1
          i=1  nzeta=2  polorb=1  (1s)  (to be polarized perturbatively)
            splnorm:   0.62000    
               vcte:    40.000    
               rinn:  -0.90000    
               qcoe:    0.0000    
               qyuk:    0.0000    
               qwid:   0.10000E-01
                rcs:    0.0000      0.0000    
            lambdas:    1.0000      1.0000    
L=1  Nsemic=0  Cnfigmx=2
          i=1  nzeta=0  polorb=0  (2p)  (perturbative polarization orbital) (from 1s)
===============================================================================
</basis_specs>

Filter: Requested cutoff:  290.000000 Ry
Using PAO.SplitTailNorm
atom: Called for H                     (Z =   1)
NOTE: H pseudopotential has channels up to l= 0
NOTE: PAOs with higher l will be generated with V_local
Maximum radius (at nrval) set to   50.00000 8518

read_vps: Pseudopotential generation method:
read_vps: ATM4.2.7  Troullier-Martins                       
Valence charge in pseudo generation:    1.00000

xc_check: Exchange-correlation functional:
xc_check: VDW Dion-Rydberg-Schroeder-Langreth-Lundqvist
V l=0 = -2*Zval/r beyond r=  0.0399
All V_l potentials equal beyond r=  0.0399
This should be close to max(r_c) in ps generation
All pots = -2*Zval/r beyond r=  0.0399
Using small-core scheme (local charge) for Vlocal

VLOCAL_FROM_CHLOCAL: 99.0% of the norm of Vloc inside  27227.515 Ry
VLOCAL_FROM_CHLOCAL: 99.9% of the norm of Vloc inside  62052.012 Ry
atom: Maximum radius for chlocal:    0.04942
atom: Maximum radius for r*vlocal+2*Zval:    0.04228

KBgen: Kleinman-Bylander projectors: 
GHOST: No ghost state for L =  0
KBproj: WARNING: Rc(0)=      0.3608
KBproj: WARNING: Cut off radius for the KB projector too small
   l= 0   rc=  0.360771   el= -0.503243   Ekb=-43.540856   kbcos= -0.003669

KBgen: Total number of Kleinman-Bylander projectors:   1
atom: -------------------------------------------------------------------------

atom: SANKEY-TYPE ORBITALS:
atom: Selected multiple-zeta basis: split     

SPLIT: Orbitals with angular momentum L= 0

SPLIT: Basis orbitals for state 1s

SPLIT: PAO cut-off radius determined from an
SPLIT: energy shift=  0.005000 Ry
Split based on tail norm

   izeta = 1
                 lambda =    1.000000
                     rc =    5.772464
                 energy =   -0.497573
                kinetic =    0.983085
    potential(screened) =   -1.480658
       potential(ionic) =   -1.978266
PAO Filter: Cutoff used:  142.10 Ry
PAO Filter: diagnostic kin energy tol:    0.003000 Ry
PAO Filter: Nominal cutoff (before filtering):  117.93 Ry
Filter:    Number of eigenfunctions  of the
           filtering kernel (total, used)= 55 20

   izeta = 2
                 rmatch =    1.631860
              splitnorm =    0.620000
                 energy =    1.774382
                kinetic =    6.071357
    potential(screened) =   -4.296974
       potential(ionic) =   -4.727849
PAO Filter: Cutoff used:  142.10 Ry
PAO Filter: diagnostic kin energy tol:    0.003000 Ry
PAO Filter: Nominal cutoff (before filtering):  901.83 Ry
Filter:    Number of eigenfunctions  of the
           filtering kernel (total, used)= 23  5
*Note: V_local used for l= 1

** Using vlocal for PAOs with L= 1

POLgen: Perturbative polarization orbital with L=  1

POLgen: Polarization orbital for state 1s
*Note: V_local used for lpol= 1

** Using vlocal for PAOs with L= 1
Split based on tail norm

   izeta = 1
                     rc =    5.772464
                 energy =    0.609532
                kinetic =    1.250628
    potential(screened) =   -0.641096
       potential(ionic) =   -1.109550
PAO Filter: diagnostic kin energy tol:    0.003000 Ry
PAO Filter: Nominal cutoff (before filtering):   54.19 Ry
Filter:    Number of eigenfunctions  of the
           filtering kernel (total, used)= 55 20
atom: Total number of Sankey-type orbitals:  5

atm_pop: Valence configuration (for local Pseudopot. screening):
 1s( 1.00)                                                            
 2p( 0.00)                                                            
Vna: chval, zval:    1.00000   1.00000

Vna:  Cut-off radius for the neutral-atom potential:   5.772464
VNA Filter: diagnostic kinetic energy tol:    0.003000 Ry
VNA Filter: Nominal cutoff (before filtering):31865.46 Ry
VNA Filter: Cutoff used:   290.00 Ry
Filter:    Number of eigenfunctions  of the
           filtering kernel (total, used)= 74 30

atom: _________________________________________________________________________

<basis_specs>
===============================================================================
C                    Z=   6    Mass=  12.011        Charge= 0.17977+309
Lmxo=2 Lmxkb= 2    BasisType=split      Semic=F
L=0  Nsemic=0  Cnfigmx=2
          i=1  nzeta=2  polorb=0  (2s)
            splnorm:   0.28000    
               vcte:    40.000    
               rinn:  -0.90000    
               qcoe:    0.0000    
               qyuk:    0.0000    
               qwid:   0.10000E-01
                rcs:    0.0000      0.0000    
            lambdas:    1.0000      1.0000    
L=1  Nsemic=0  Cnfigmx=2
          i=1  nzeta=2  polorb=1  (2p)  (to be polarized perturbatively)
            splnorm:   0.28000    
               vcte:    40.000    
               rinn:  -0.90000    
               qcoe:    0.0000    
               qyuk:    0.0000    
               qwid:   0.10000E-01
                rcs:    0.0000      0.0000    
            lambdas:    1.0000      1.0000    
L=2  Nsemic=0  Cnfigmx=3
          i=1  nzeta=0  polorb=0  (3d)  (perturbative polarization orbital) (from 2p)
-------------------------------------------------------------------------------
L=0  Nkbl=1  erefs: 0.17977+309
L=1  Nkbl=1  erefs: 0.17977+309
L=2  Nkbl=1  erefs: 0.17977+309
===============================================================================
</basis_specs>

Filter: Requested cutoff:  290.000000 Ry
Using PAO.SplitTailNorm
atom: Called for C                     (Z =   6)
Maximum radius (at nrval) set to   50.00000 8518

read_vps: Pseudopotential generation method:
read_vps: ATM4.2.7  Troullier-Martins                       
Valence charge in pseudo generation:    4.00000

xc_check: Exchange-correlation functional:
xc_check: VDW Dion-Rydberg-Schroeder-Langreth-Lundqvist
V l=0 = -2*Zval/r beyond r=  1.9934
V l=1 = -2*Zval/r beyond r=  1.9934
V l=2 = -2*Zval/r beyond r=  2.0034
All V_l potentials equal beyond r=  1.8100
This should be close to max(r_c) in ps generation
All pots = -2*Zval/r beyond r=  2.0034
Using small-core scheme (local charge) for Vlocal

VLOCAL_FROM_CHLOCAL: 99.0% of the norm of Vloc inside     13.250 Ry
VLOCAL_FROM_CHLOCAL: 99.9% of the norm of Vloc inside     30.197 Ry
atom: Maximum radius for chlocal:    2.15589
atom: Maximum radius for r*vlocal+2*Zval:    1.98138

KBgen: Kleinman-Bylander projectors: 
GHOST: No ghost state for L =  0
   l= 0   rc=  2.121508   el= -1.023920   Ekb= 10.038813   kbcos=  0.152890
GHOST: No ghost state for L =  1
j- l= 1   rc=  2.096083   el= -0.402300   Ekb=-10.262579   kbcos= -0.289480
GHOST: No ghost state for L =  1
j+ l= 1   rc=  2.096083   el= -0.401748   Ekb=-10.222488   kbcos= -0.289553
GHOST: No ghost state for L =  2
j- l= 2   rc=  3.176203   el=  0.013239   Ekb= -0.822453   kbcos= -0.016490
GHOST: No ghost state for L =  2
j+ l= 2   rc=  3.176203   el=  0.013239   Ekb= -0.814183   kbcos= -0.016551

KBgen: Total number of Kleinman-Bylander projectors:  17
atom: -------------------------------------------------------------------------

atom: SANKEY-TYPE ORBITALS:
atom: Selected multiple-zeta basis: split     

SPLIT: Orbitals with angular momentum L= 0

SPLIT: Basis orbitals for state 2s

SPLIT: PAO cut-off radius determined from an
SPLIT: energy shift=  0.005000 Ry
Split based on tail norm

   izeta = 1
                 lambda =    1.000000
                     rc =    4.858714
                 energy =   -1.018167
                kinetic =    0.913396
    potential(screened) =   -1.931562
       potential(ionic) =   -5.489494
PAO Filter: Cutoff used:  142.10 Ry
PAO Filter: diagnostic kin energy tol:    0.003000 Ry
PAO Filter: Nominal cutoff (before filtering):   37.67 Ry
Filter:    Number of eigenfunctions  of the
           filtering kernel (total, used)= 48 17

   izeta = 2
                 rmatch =    2.559804
              splitnorm =    0.280000
                 energy =   -0.353711
                kinetic =    2.349616
    potential(screened) =   -2.703327
       potential(ionic) =   -6.655149
PAO Filter: Cutoff used:  142.10 Ry
PAO Filter: diagnostic kin energy tol:    0.003000 Ry
PAO Filter: Nominal cutoff (before filtering):   92.93 Ry
Filter:    Number of eigenfunctions  of the
           filtering kernel (total, used)= 30  8

SPLIT: Orbitals with angular momentum L= 1

SPLIT: Basis orbitals for state 2p

SPLIT: PAO cut-off radius determined from an
SPLIT: energy shift=  0.005000 Ry
Split based on tail norm

   izeta = 1
                 lambda =    1.000000
                     rc =    6.081107
                 energy =   -0.396227
                kinetic =    2.544259
    potential(screened) =   -2.940486
       potential(ionic) =   -6.367627
PAO Filter: Cutoff used:  142.10 Ry
PAO Filter: diagnostic kin energy tol:    0.003000 Ry
PAO Filter: Nominal cutoff (before filtering):  112.97 Ry
Filter:    Number of eigenfunctions  of the
           filtering kernel (total, used)= 57 21

   izeta = 2
                 rmatch =    3.125629
              splitnorm =    0.280000
                 energy =   -0.123054
                kinetic =    4.553527
    potential(screened) =   -4.676580
       potential(ionic) =   -8.623266
PAO Filter: Cutoff used:  142.10 Ry
PAO Filter: diagnostic kin energy tol:    0.003000 Ry
PAO Filter: Nominal cutoff (before filtering):  128.46 Ry
Filter:    Number of eigenfunctions  of the
           filtering kernel (total, used)= 34 10

POLgen: Perturbative polarization orbital with L=  2

POLgen: Polarization orbital for state 2p
Split based on tail norm

   izeta = 1
                     rc =    6.081107
                 energy =    1.044183
                kinetic =    2.125190
    potential(screened) =   -1.081007
       potential(ionic) =   -3.836752
PAO Filter: diagnostic kin energy tol:    0.003000 Ry
PAO Filter: Nominal cutoff (before filtering):   45.79 Ry
Filter:    Number of eigenfunctions  of the
           filtering kernel (total, used)= 57 20
atom: Total number of Sankey-type orbitals: 13

atm_pop: Valence configuration (for local Pseudopot. screening):
 2s( 2.00)                                                            
 2p( 2.00)                                                            
 3d( 0.00)                                                            
Vna: chval, zval:    4.00000   4.00000

Vna:  Cut-off radius for the neutral-atom potential:   6.081107
VNA Filter: diagnostic kinetic energy tol:    0.003000 Ry
VNA Filter: Nominal cutoff (before filtering):   16.67 Ry
VNA Filter: Cutoff used:   290.00 Ry
Filter:    Number of eigenfunctions  of the
           filtering kernel (total, used)= 77 31

atom: _________________________________________________________________________

<basis_specs>
===============================================================================
N                    Z=   7    Mass=  14.007        Charge= 0.17977+309
Lmxo=2 Lmxkb= 2    BasisType=split      Semic=F
L=0  Nsemic=0  Cnfigmx=2
          i=1  nzeta=2  polorb=0  (2s)
            splnorm:   0.28000    
               vcte:    40.000    
               rinn:  -0.90000    
               qcoe:    0.0000    
               qyuk:    0.0000    
               qwid:   0.10000E-01
                rcs:    0.0000      0.0000    
            lambdas:    1.0000      1.0000    
L=1  Nsemic=0  Cnfigmx=2
          i=1  nzeta=2  polorb=1  (2p)  (to be polarized perturbatively)
            splnorm:   0.28000    
               vcte:    40.000    
               rinn:  -0.90000    
               qcoe:    0.0000    
               qyuk:    0.0000    
               qwid:   0.10000E-01
                rcs:    0.0000      0.0000    
            lambdas:    1.0000      1.0000    
L=2  Nsemic=0  Cnfigmx=3
          i=1  nzeta=0  polorb=0  (3d)  (perturbative polarization orbital) (from 2p)
-------------------------------------------------------------------------------
L=0  Nkbl=1  erefs: 0.17977+309
L=1  Nkbl=1  erefs: 0.17977+309
L=2  Nkbl=1  erefs: 0.17977+309
===============================================================================
</basis_specs>

Filter: Requested cutoff:  290.000000 Ry
Using PAO.SplitTailNorm
atom: Called for N                     (Z =   7)
Maximum radius (at nrval) set to   50.00000 8518

read_vps: Pseudopotential generation method:
read_vps: ATM4.2.7  Troullier-Martins                       
Valence charge in pseudo generation:    5.00000

xc_check: Exchange-correlation functional:
xc_check: VDW Dion-Rydberg-Schroeder-Langreth-Lundqvist
V l=0 = -2*Zval/r beyond r=  1.6351
V l=1 = -2*Zval/r beyond r=  1.6351
V l=2 = -2*Zval/r beyond r=  3.0728
All V_l potentials equal beyond r=  2.8817
This should be close to max(r_c) in ps generation
All pots = -2*Zval/r beyond r=  3.0728
Using small-core scheme (local charge) for Vlocal

VLOCAL_FROM_CHLOCAL: 99.0% of the norm of Vloc inside      5.227 Ry
VLOCAL_FROM_CHLOCAL: 99.9% of the norm of Vloc inside     11.913 Ry
atom: Maximum radius for chlocal:    3.41750
atom: Maximum radius for r*vlocal+2*Zval:    3.16984

KBgen: Kleinman-Bylander projectors: 
GHOST: No ghost state for L =  0
   l= 0   rc=  2.978674   el= -1.380579   Ekb= -3.918497   kbcos= -0.639583
GHOST: No ghost state for L =  1
j- l= 1   rc=  2.945979   el= -0.537631   Ekb=-10.726195   kbcos= -0.541225
GHOST: No ghost state for L =  1
j+ l= 1   rc=  2.945979   el= -0.536259   Ekb=-10.704119   kbcos= -0.540979
GHOST: No ghost state for L =  2
j- l= 2   rc=  3.869979   el=  0.013287   Ekb= -0.791795   kbcos= -0.046021
GHOST: No ghost state for L =  2
j+ l= 2   rc=  3.869979   el=  0.013287   Ekb= -0.790042   kbcos= -0.046052

KBgen: Total number of Kleinman-Bylander projectors:  17
atom: -------------------------------------------------------------------------

atom: SANKEY-TYPE ORBITALS:
atom: Selected multiple-zeta basis: split     

SPLIT: Orbitals with angular momentum L= 0

SPLIT: Basis orbitals for state 2s

SPLIT: PAO cut-off radius determined from an
SPLIT: energy shift=  0.005000 Ry
Split based on tail norm

   izeta = 1
                 lambda =    1.000000
                     rc =    4.265195
                 energy =   -1.374896
                kinetic =    1.265116
    potential(screened) =   -2.640012
       potential(ionic) =   -8.160676
PAO Filter: Cutoff used:  142.10 Ry
PAO Filter: diagnostic kin energy tol:    0.003000 Ry
PAO Filter: Nominal cutoff (before filtering):   71.53 Ry
Filter:    Number of eigenfunctions  of the
           filtering kernel (total, used)= 43 15

   izeta = 2
                 rmatch =    2.173283
              splitnorm =    0.280000
                 energy =   -0.503777
                kinetic =    3.173825
    potential(screened) =   -3.677602
       potential(ionic) =   -9.854287
PAO Filter: Cutoff used:  142.10 Ry
PAO Filter: diagnostic kin energy tol:    0.003000 Ry
PAO Filter: Nominal cutoff (before filtering):  129.00 Ry
Filter:    Number of eigenfunctions  of the
           filtering kernel (total, used)= 27  7

SPLIT: Orbitals with angular momentum L= 1

SPLIT: Basis orbitals for state 2p

SPLIT: PAO cut-off radius determined from an
SPLIT: energy shift=  0.005000 Ry
Split based on tail norm

   izeta = 1
                 lambda =    1.000000
                     rc =    5.317222
                 energy =   -0.531068
                kinetic =    3.641750
    potential(screened) =   -4.172818
       potential(ionic) =   -9.515546
PAO Filter: Cutoff used:  142.10 Ry
PAO Filter: diagnostic kin energy tol:    0.003000 Ry
PAO Filter: Nominal cutoff (before filtering):   83.42 Ry
Filter:    Number of eigenfunctions  of the
           filtering kernel (total, used)= 51 18

   izeta = 2
                 rmatch =    2.624859
              splitnorm =    0.280000
                 energy =   -0.159696
                kinetic =    6.395910
    potential(screened) =   -6.555607
       potential(ionic) =  -12.720241
PAO Filter: Cutoff used:  142.10 Ry
PAO Filter: diagnostic kin energy tol:    0.003000 Ry
PAO Filter: Nominal cutoff (before filtering):   94.45 Ry
Filter:    Number of eigenfunctions  of the
           filtering kernel (total, used)= 30  8

POLgen: Perturbative polarization orbital with L=  2

POLgen: Polarization orbital for state 2p
Split based on tail norm

   izeta = 1
                     rc =    5.317222
                 energy =    1.517402
                kinetic =    2.627978
    potential(screened) =   -1.110576
       potential(ionic) =   -5.200503
PAO Filter: diagnostic kin energy tol:    0.003000 Ry
PAO Filter: Nominal cutoff (before filtering):   71.63 Ry
Filter:    Number of eigenfunctions  of the
           filtering kernel (total, used)= 51 17
atom: Total number of Sankey-type orbitals: 13

atm_pop: Valence configuration (for local Pseudopot. screening):
 2s( 2.00)                                                            
 2p( 3.00)                                                            
 3d( 0.00)                                                            
Vna: chval, zval:    5.00000   5.00000

Vna:  Cut-off radius for the neutral-atom potential:   5.317222
VNA Filter: diagnostic kinetic energy tol:    0.003000 Ry
VNA Filter: Nominal cutoff (before filtering):   72.95 Ry
VNA Filter: Cutoff used:   290.00 Ry
Filter:    Number of eigenfunctions  of the
           filtering kernel (total, used)= 69 27

atom: _________________________________________________________________________

<basis_specs>
===============================================================================
O                    Z=   8    Mass=  15.999        Charge= 0.17977+309
Lmxo=2 Lmxkb= 2    BasisType=split      Semic=F
L=0  Nsemic=0  Cnfigmx=2
          i=1  nzeta=2  polorb=0  (2s)
            splnorm:   0.28000    
               vcte:    40.000    
               rinn:  -0.90000    
               qcoe:    0.0000    
               qyuk:    0.0000    
               qwid:   0.10000E-01
                rcs:    0.0000      0.0000    
            lambdas:    1.0000      1.0000    
L=1  Nsemic=0  Cnfigmx=2
          i=1  nzeta=2  polorb=1  (2p)  (to be polarized perturbatively)
            splnorm:   0.28000    
               vcte:    40.000    
               rinn:  -0.90000    
               qcoe:    0.0000    
               qyuk:    0.0000    
               qwid:   0.10000E-01
                rcs:    0.0000      0.0000    
            lambdas:    1.0000      1.0000    
L=2  Nsemic=0  Cnfigmx=3
          i=1  nzeta=0  polorb=0  (3d)  (perturbative polarization orbital) (from 2p)
-------------------------------------------------------------------------------
L=0  Nkbl=1  erefs: 0.17977+309
L=1  Nkbl=1  erefs: 0.17977+309
L=2  Nkbl=1  erefs: 0.17977+309
===============================================================================
</basis_specs>

Filter: Requested cutoff:  290.000000 Ry
Using PAO.SplitTailNorm
atom: Called for O                     (Z =   8)
Maximum radius (at nrval) set to   50.00000 8518

read_vps: Pseudopotential generation method:
read_vps: ATM4.2.7  Troullier-Martins                       
Valence charge in pseudo generation:    6.00000

xc_check: Exchange-correlation functional:
xc_check: VDW Dion-Rydberg-Schroeder-Langreth-Lundqvist
V l=0 = -2*Zval/r beyond r=  1.3024
V l=1 = -2*Zval/r beyond r=  1.3024
V l=2 = -2*Zval/r beyond r=  1.7668
All V_l potentials equal beyond r=  1.6269
This should be close to max(r_c) in ps generation
All pots = -2*Zval/r beyond r=  1.7668
Using small-core scheme (local charge) for Vlocal

VLOCAL_FROM_CHLOCAL: 99.0% of the norm of Vloc inside     16.399 Ry
VLOCAL_FROM_CHLOCAL: 99.9% of the norm of Vloc inside     37.374 Ry
atom: Maximum radius for chlocal:    1.95370
atom: Maximum radius for r*vlocal+2*Zval:    1.79729

KBgen: Kleinman-Bylander projectors: 
GHOST: No ghost state for L =  0
   l= 0   rc=  1.770385   el= -1.777146   Ekb=-20.483406   kbcos= -0.111991
GHOST: No ghost state for L =  1
j- l= 1   rc=  1.745634   el= -0.683129   Ekb=-12.195034   kbcos= -0.452315
GHOST: No ghost state for L =  1
j+ l= 1   rc=  1.745634   el= -0.680470   Ekb=-12.162909   kbcos= -0.451770
GHOST: No ghost state for L =  2
j- l= 2   rc=  2.784994   el=  0.013305   Ekb= -1.481537   kbcos= -0.010110
GHOST: No ghost state for L =  2
j+ l= 2   rc=  2.784994   el=  0.013305   Ekb= -1.467492   kbcos= -0.010143

KBgen: Total number of Kleinman-Bylander projectors:  17
atom: -------------------------------------------------------------------------

atom: SANKEY-TYPE ORBITALS:
atom: Selected multiple-zeta basis: split     

SPLIT: Orbitals with angular momentum L= 0

SPLIT: Basis orbitals for state 2s

SPLIT: PAO cut-off radius determined from an
SPLIT: energy shift=  0.005000 Ry
Split based on tail norm

   izeta = 1
                 lambda =    1.000000
                     rc =    3.812214
                 energy =   -1.771504
                kinetic =    1.675963
    potential(screened) =   -3.447467
       potential(ionic) =  -11.343845
PAO Filter: Cutoff used:  142.10 Ry
PAO Filter: diagnostic kin energy tol:    0.003000 Ry
PAO Filter: Nominal cutoff (before filtering):  117.95 Ry
Filter:    Number of eigenfunctions  of the
           filtering kernel (total, used)= 40 13

   izeta = 2
                 rmatch =    1.891855
              splitnorm =    0.280000
                 energy =   -0.658411
                kinetic =    4.147017
    potential(screened) =   -4.805428
       potential(ionic) =  -13.682672
PAO Filter: Cutoff used:  142.10 Ry
PAO Filter: diagnostic kin energy tol:    0.003000 Ry
PAO Filter: Nominal cutoff (before filtering):  173.72 Ry
Filter:    Number of eigenfunctions  of the
           filtering kernel (total, used)= 25  6

SPLIT: Orbitals with angular momentum L= 1

SPLIT: Basis orbitals for state 2p

SPLIT: PAO cut-off radius determined from an
SPLIT: energy shift=  0.005000 Ry
Split based on tail norm

   izeta = 1
                 lambda =    1.000000
                     rc =    4.762307
                 energy =   -0.675736
                kinetic =    4.938110
    potential(screened) =   -5.613846
       potential(ionic) =  -13.284802
PAO Filter: Cutoff used:  142.10 Ry
PAO Filter: diagnostic kin energy tol:    0.003000 Ry
PAO Filter: Nominal cutoff (before filtering):   95.70 Ry
Filter:    Number of eigenfunctions  of the
           filtering kernel (total, used)= 47 16

   izeta = 2
                 rmatch =    2.271492
              splitnorm =    0.280000
                 energy =   -0.195975
                kinetic =    8.556899
    potential(screened) =   -8.752874
       potential(ionic) =  -17.616199
PAO Filter: Cutoff used:  142.10 Ry
PAO Filter: diagnostic kin energy tol:    0.003000 Ry
PAO Filter: Nominal cutoff (before filtering):  102.30 Ry
Filter:    Number of eigenfunctions  of the
           filtering kernel (total, used)= 28  7

POLgen: Perturbative polarization orbital with L=  2

POLgen: Polarization orbital for state 2p
Split based on tail norm

   izeta = 1
                     rc =    4.762307
                 energy =    2.062551
                kinetic =    3.839367
    potential(screened) =   -1.776815
       potential(ionic) =   -7.691384
PAO Filter: diagnostic kin energy tol:    0.003000 Ry
PAO Filter: Nominal cutoff (before filtering):   97.50 Ry
Filter:    Number of eigenfunctions  of the
           filtering kernel (total, used)= 47 15
atom: Total number of Sankey-type orbitals: 13

atm_pop: Valence configuration (for local Pseudopot. screening):
 2s( 2.00)                                                            
 2p( 4.00)                                                            
 3d( 0.00)                                                            
Vna: chval, zval:    6.00000   6.00000

Vna:  Cut-off radius for the neutral-atom potential:   4.762307
VNA Filter: diagnostic kinetic energy tol:    0.003000 Ry
VNA Filter: Nominal cutoff (before filtering):   68.40 Ry
VNA Filter: Cutoff used:   290.00 Ry
Filter:    Number of eigenfunctions  of the
           filtering kernel (total, used)= 63 24

atom: _________________________________________________________________________

prinput: Basis input 

PAO.BasisType split     

%block ChemicalSpeciesLabel
    1    1 H                       # Species index, atomic number, species label
    2    6 C                       # Species index, atomic number, species label
    3    7 N                       # Species index, atomic number, species label
    4    8 O                       # Species index, atomic number, species label
%endblock ChemicalSpeciesLabel

%block PAO.Basis                 # Define Basis set
# WARNING: This information might be incomplete!
H                     1                    # Species label, number of l-shells
 n=1   0   2 P   1                   # n, l, Nzeta, Polarization, NzetaPol
   5.772      1.632   
   1.000      1.000   
C                     2                    # Species label, number of l-shells
 n=2   0   2                         # n, l, Nzeta 
   4.859      2.560   
   1.000      1.000   
 n=2   1   2 P   1                   # n, l, Nzeta, Polarization, NzetaPol
   6.081      3.126   
   1.000      1.000   
N                     2                    # Species label, number of l-shells
 n=2   0   2                         # n, l, Nzeta 
   4.265      2.173   
   1.000      1.000   
 n=2   1   2 P   1                   # n, l, Nzeta, Polarization, NzetaPol
   5.317      2.625   
   1.000      1.000   
O                     2                    # Species label, number of l-shells
 n=2   0   2                         # n, l, Nzeta 
   3.812      1.892   
   1.000      1.000   
 n=2   1   2 P   1                   # n, l, Nzeta, Polarization, NzetaPol
   4.762      2.271   
   1.000      1.000   
%endblock PAO.Basis

prinput: ----------------------------------------------------------------------

Dumping basis to NetCDF file H.ion.nc
Dumping basis to NetCDF file C.ion.nc
Dumping basis to NetCDF file N.ion.nc
Dumping basis to NetCDF file O.ion.nc
coor:   Atomic-coordinates input format  =     Cartesian coordinates
coor:                                          (in Angstroms)

siesta: Atomic coordinates (Bohr) and species
siesta:     -2.92884   3.61113   0.00000  4        1
siesta:      5.52789   0.60323   0.00000  4        2
siesta:      1.27191   2.12054   0.00000  3        3
siesta:      2.10667  -2.32739   0.00000  3        4
siesta:     -2.34260  -0.90600   0.00000  2        5
siesta:     -1.53166   1.75087   0.00000  2        6
siesta:     -0.57367  -2.76898   0.00000  2        7
siesta:     -5.10071  -1.55555   0.00000  2        8
siesta:      3.25035   0.19918   0.00000  2        9
siesta:     -1.07004  -4.77376   0.00000  1       10
siesta:      1.88570   3.99172   0.00000  1       11
siesta:      3.32223  -3.86404   0.00000  1       12
siesta:     -6.05880  -0.79778  -1.67978  1       13
siesta:     -6.06070  -0.79781   1.67940  1       14
siesta:     -5.39610  -3.62400   0.00000  1       15

siesta: System type = molecule  

initatomlists: Number of atoms, orbitals, and projectors:     15   147   159

siesta: ******************** Simulation parameters ****************************
siesta:
siesta: The following are some of the parameters of the simulation.
siesta: A complete list of the parameters used, including default values,
siesta: can be found in file out.fdf
siesta:
redata: Spin configuration                          = spin-orbit+offsite
redata: Number of spin components                   = 8
redata: Time-Reversal Symmetry                      = F
redata: Spin spiral                                 = F
redata: Long output                                 =   F
redata: Number of Atomic Species                    =        4
redata: Charge density info will appear in .RHO file
redata: Write Mulliken Pop.                         = NO
redata: Matel table size (NRTAB)                    =     1024
redata: Mesh Cutoff                                 =   300.0000 Ry
redata: Net charge of the system                    =     0.0000 |e|
redata: Min. number of SCF Iter                     =        1
redata: Max. number of SCF Iter                     =      200
redata: SCF convergence failure will abort job
redata: SCF mix quantity                            = Hamiltonian
redata: Mix DM or H after convergence               =   F
redata: Recompute H after scf cycle                 =   F
redata: Mix DM in first SCF step                    =   T
redata: Write Pulay info on disk                    =   F
redata: New DM Occupancy tolerance                  = 0.000000000001
redata: No kicks to SCF
redata: DM Mixing Weight for Kicks                  =     0.5000
redata: Require Harris convergence for SCF          =   F
redata: Harris energy tolerance for SCF             =     0.000100 eV
redata: Require DM convergence for SCF              =   T
redata: DM tolerance for SCF                        =     0.000008
redata: Require EDM convergence for SCF             =   F
redata: EDM tolerance for SCF                       =     0.001000 eV
redata: Require H convergence for SCF               =   T
redata: Hamiltonian tolerance for SCF               =     0.000001 eV
redata: Require (free) Energy convergence for SCF   =   F
redata: (free) Energy tolerance for SCF             =     0.000100 eV
redata: Using DFT-D3 dispersion                     =   F
redata: Using Saved Data (generic)                  =   F
redata: Use continuation files for DM               =   T
redata: Neglect nonoverlap interactions             =   F
redata: Method of Calculation                       = Diagonalization
redata: Electronic Temperature                      =     0.0000 K
redata: Fix the spin of the system                  =   F
redata: Split SR and SO contributions               =   F
redata: Max. number of TDED Iter                    =        1
redata: Number of TDED substeps                     =        3
redata: Dynamics option                             = Broyden coord. optimization
redata: Variable cell                               =   F
redata: Maximum number of optimization moves        =     1000
redata: Force tolerance                             =     0.0080 eV/Ang
mix.SCF: Pulay mixing                            = Pulay
mix.SCF:    Variant                              = stable
mix.SCF:    History steps                        = 6
mix.SCF:    Linear mixing weight                 =     0.250000
mix.SCF:    Mixing weight                        =     0.250000
mix.SCF:    SVD condition                        = 0.1000E-07
mix.SCF:    Restart steps                        = 24
mix.SCF:    Restart save steps                   = 3
mix.SCF: Spin-component mixing                   all
redata: Save all siesta data in one NC              =   F
redata: ***********************************************************************

%block SCF.Mixers
  Pulay
%endblock SCF.Mixers

%block SCF.Mixer.Pulay
  # Mixing method
  method pulay
  variant stable

  # Mixing options
  weight 0.2500
  weight.linear 0.2500
  history 6
  restart 24
  restart.save 3
%endblock SCF.Mixer.Pulay

DM_history_depth set to one: no extrapolation allowed by default for geometry relaxation
Size of DM history Fstack: 1
Total number of electrons:    48.000000
Total ionic charge:    48.000000

* ProcessorY, Blocksize:    4  19


* Orbital distribution balance (max,min):    19    14


siesta: k-grid: Number of k-points = 1
siesta: k-point is Gamma-only

diag: Algorithm                                     = ELPA-2stage
diag: ELPA GPU string key                           = nvidia-gpu
diag: Parallel over k                               =   F
diag: Use parallel 2D distribution                  =   T
diag: Parallel block-size                           = 19
diag: Parallel distribution                         =     2 x     4
diag: Used triangular part                          = Lower
diag: Absolute tolerance                            =  0.100E-15
diag: Orthogonalization factor                      =  0.100E-05
diag: Memory factor                                 =  1.0000

siesta: Constraints applied in the following order:
siesta: Constraint v=[  0.00000,  0.00000,  1.00000] (15): pos-dir
  [ 1 -- 15 ]
siesta: Constraint (1): pos
  [ 4 ]


ts: **************************************************************
ts: Save H and S matrices                           =    F
ts: Save DM and EDM matrices                        =    F
ts: Only save the overlap matrix S                  =    F
ts: **************************************************************

************************ Begin: TS CHECKS AND WARNINGS ************************
************************ End: TS CHECKS AND WARNINGS **************************


                     ====================================
                        Begin Broyden opt. move =      0
                     ====================================

outcell: Unit cell vectors (Ang):
       12.649619    0.000000    0.000000
        0.000000   11.754064    0.000000
        0.000000    0.000000    8.675604

outcell: Cell vector modules (Ang)   :   12.649619   11.754064    8.675604
outcell: Cell angles (23,13,12) (deg):     90.0000     90.0000     90.0000
outcell: Cell volume (Ang**3)        :   1289.9272
<dSpData1D:S at geom step 0
  <sparsity:sparsity for geom step 0
    nrows_g=147 nrows=19 sparsity=.1279 nnzs=2763, refcount: 8>
  <dData1D:(new from dSpData1D) n=2763, refcount: 1>
refcount: 1>
new_DM -- step:     1
Initializing Density Matrix...

Attempting to read DM from file... Failed...
DM filled with atomic data:
<dSpData2D:DM initialized from atoms
  <sparsity:sparsity for geom step 0
    nrows_g=147 nrows=19 sparsity=.1279 nnzs=2763, refcount: 9>
  <dData2D:DM n=2763 m=8, refcount: 1>
refcount: 1>
     spin moment: {S} , |S| = {    0.00000    0.00000   26.00000 }    26.00000

InitMesh: MESH = 144 x 128 x 96 = 1769472
InitMesh: Mesh cutoff (required, used) =   300.000   327.752 Ry
New grid distribution [1]: sub = 2
New grid distribution [2]: sub = 2
New grid distribution [3]: sub = 2
Setting up quadratic distribution...

stepf: Fermi-Dirac step function

siesta: Program's energy decomposition (eV):
siesta: Ebs     =      -564.639432
siesta: Eions   =      6228.847481
siesta: Ena     =       979.679135
siesta: Ekin    =      1824.902055
siesta: Enl(+so)=      -958.073350
siesta: Eso(nil)=         0.000000
siesta: Edftu   =         0.000000
siesta: DEna    =       -52.810080
siesta: DUscf   =        16.179660
siesta: DUext   =         0.000000
siesta: Ex      =      -591.641577
siesta: Ec      =       -63.275047
siesta: Exc     =      -654.916624
siesta: EbV     =         0.000000
siesta: eta*DQ  =         0.000000
siesta: Emadel  =         0.000000
siesta: Emeta   =         0.000000
siesta: Emolmec =         0.000000
siesta: Ekinion =         0.000000
siesta: Eharris =     -5069.357671
siesta: Etot    =     -5073.886684
siesta: FreeEng =     -5073.886684

        iscf     Eharris(eV)        E_KS(eV)     FreeEng(eV)     dDmax    Ef(eV) dHmax(eV)
   scf:    1    -5069.357671    -5073.886684    -5073.886684  0.904295 -5.740129 12.243533
     spin moment: {S} , |S| = {   -0.00182   -0.00182    0.00019 }     0.00258
timer: Routine,Calls,Time,% = IterSCF        1      13.146  25.49
   scf:    2    -5083.900026    -5080.183610    -5080.183610  0.080889 -4.520897  5.203334
     spin moment: {S} , |S| = {   -0.00074   -0.00074    0.00005 }     0.00105
   scf:    3    -5081.832980    -5081.156155    -5081.156155  0.031514 -4.771699  3.351674
     spin moment: {S} , |S| = {   -0.00034   -0.00034    0.00002 }     0.00048
   scf:    4    -5081.526877    -5081.352551    -5081.352551  0.017565 -4.176323  1.754533
     spin moment: {S} , |S| = {   -0.00014   -0.00014    0.00001 }     0.00019
   scf:    5    -5081.531697    -5081.442811    -5081.442811  0.019411 -3.789189  0.384113
     spin moment: {S} , |S| = {   -0.00002   -0.00002    0.00000 }     0.00003
   scf:    6    -5081.463092    -5081.452876    -5081.452876  0.005336 -3.764866  0.132637
     spin moment: {S} , |S| = {   -0.00001   -0.00001    0.00000 }     0.00001
   scf:    7    -5081.457513    -5081.455184    -5081.455184  0.001973 -3.783620  0.067963
     spin moment: {S} , |S| = {   -0.00000   -0.00000    0.00000 }     0.00001
   scf:    8    -5081.456896    -5081.456014    -5081.456014  0.001357 -3.784005  0.037477
     spin moment: {S} , |S| = {   -0.00000   -0.00000    0.00000 }     0.00000
   scf:    9    -5081.456802    -5081.456383    -5081.456383  0.000977 -3.783800  0.019859
     spin moment: {S} , |S| = {   -0.00000   -0.00000    0.00000 }     0.00000
   scf:   10    -5081.456616    -5081.456488    -5081.456488  0.000497 -3.783571  0.008047
     spin moment: {S} , |S| = {   -0.00000   -0.00000   -0.00000 }     0.00000
   scf:   11    -5081.456528    -5081.456507    -5081.456507  0.000212 -3.783598  0.005243
     spin moment: {S} , |S| = {   -0.00000   -0.00000   -0.00000 }     0.00000
   scf:   12    -5081.456516    -5081.456511    -5081.456511  0.000123 -3.783526  0.002783
     spin moment: {S} , |S| = {   -0.00000   -0.00000   -0.00000 }     0.00000
   scf:   13    -5081.456514    -5081.456512    -5081.456512  0.000112 -3.783438  0.001262
     spin moment: {S} , |S| = {   -0.00000   -0.00000   -0.00000 }     0.00000
   scf:   14    -5081.456513    -5081.456512    -5081.456512  0.000061 -3.783448  0.000858
     spin moment: {S} , |S| = {   -0.00000   -0.00000   -0.00000 }     0.00000
   scf:   15    -5081.456513    -5081.456512    -5081.456512  0.000045 -3.783478  0.000476
     spin moment: {S} , |S| = {   -0.00000   -0.00000   -0.00000 }     0.00000
   scf:   16    -5081.456512    -5081.456512    -5081.456512  0.000015 -3.783478  0.000333
     spin moment: {S} , |S| = {   -0.00000   -0.00000   -0.00000 }     0.00000
   scf:   17    -5081.456512    -5081.456512    -5081.456512  0.000018 -3.783466  0.000169
     spin moment: {S} , |S| = {   -0.00000   -0.00000   -0.00000 }     0.00000
   scf:   18    -5081.456512    -5081.456512    -5081.456512  0.000009 -3.783464  0.000068
     spin moment: {S} , |S| = {   -0.00000   -0.00000   -0.00000 }     0.00000
   scf:   19    -5081.456512    -5081.456512    -5081.456512  0.000003 -3.783466  0.000046
     spin moment: {S} , |S| = {   -0.00000   -0.00000   -0.00000 }     0.00000
   scf:   20    -5081.456512    -5081.456512    -5081.456512  0.000003 -3.783468  0.000020
     spin moment: {S} , |S| = {   -0.00000   -0.00000   -0.00000 }     0.00000
   scf:   21    -5081.456512    -5081.456512    -5081.456512  0.000000 -3.783468  0.000008
     spin moment: {S} , |S| = {   -0.00000   -0.00000   -0.00000 }     0.00000
   scf:   22    -5081.456512    -5081.456512    -5081.456512  0.000000 -3.783467  0.000004
     spin moment: {S} , |S| = {   -0.00000   -0.00000   -0.00000 }     0.00000
   scf:   23    -5081.456512    -5081.456512    -5081.456512  0.000000 -3.783468  0.000002
     spin moment: {S} , |S| = {   -0.00000   -0.00000   -0.00000 }     0.00000
   scf:   24    -5081.456512    -5081.456512    -5081.456512  0.000000 -3.783467  0.000001
     spin moment: {S} , |S| = {   -0.00000   -0.00000   -0.00000 }     0.00000
mix: Pulay -- resetting history
   scf:   25    -5081.456512    -5081.456512    -5081.456512  0.000000 -3.783467  0.000001
     spin moment: {S} , |S| = {   -0.00000   -0.00000   -0.00000 }     0.00000

SCF Convergence by DM+H criterion
max |DM_out - DM_in|         :     0.0000000816
max |H_out - H_in|      (eV) :     0.0000006872
SCF cycle converged after 25 iterations

Using DM_out to compute the final energy and forces

siesta: E_KS(eV) =            -5081.4565

siesta: E_KS - E_eggbox =     -5081.4565
     spin moment: {S} , |S| = {   -0.00000   -0.00000   -0.00000 }     0.00000

siesta: Atomic forces (eV/Ang):
     1   -0.544592    0.666746    0.000057
     2    0.763955    0.135612    0.000011
     3    0.015133   -0.224741   -0.000044
     4   -0.049379    0.138367   -0.000156
     5    0.070233   -0.000826    0.002355
     6    0.770227   -0.358680    0.000037
     7    0.888842   -0.355734    0.000186
     8   -0.371234   -0.242725    0.006568
     9   -1.305512   -0.207144    0.000007
    10    0.009343    0.148901   -0.003325
    11    0.012120   -0.279307    0.000432
    12   -0.266073    0.305894   -0.000323
    13    0.002962    0.101663    0.189049
    14    0.004216    0.101081   -0.199351
    15    0.007958    0.086460    0.004285
----------------------------------------
   Tot    0.008199    0.015566   -0.000212
----------------------------------------
   Max    1.305512
   Res    0.345490    sqrt( Sum f_i^2 / 3N )
----------------------------------------
   Max    1.305512    constrained

Stress tensor Voigt[x,y,z,yz,xz,xy] (kbar):       -0.28        0.93        0.58        0.00       -0.00        0.89
(Free)E + p*V (eV/cell)    -5081.7878
Target enthalpy (eV/cell)    -5081.4565

Broyden_optim: max_history for broyden:   5
Broyden_optim: cycle on maxit: T
Broyden_optim: initial inverse jacobian:   1.0000

Broyden_optim: No of elements:     45

                     ====================================
                        Begin Broyden opt. move =      1
                     ====================================

outcell: Unit cell vectors (Ang):
       12.649619    0.000000    0.000000
        0.000000   11.754064    0.000000
        0.000000    0.000000    8.675604

outcell: Cell vector modules (Ang)   :   12.649619   11.754064    8.675604
outcell: Cell angles (23,13,12) (deg):     90.0000     90.0000     90.0000
outcell: Cell volume (Ang**3)        :   1289.9272
<dSpData1D:S at geom step 1
  <sparsity:sparsity for geom step 1
    nrows_g=147 nrows=19 sparsity=.1279 nnzs=2763, refcount: 8>
  <dData1D:(new from dSpData1D) n=2763, refcount: 1>
refcount: 1>
new_DM -- step:     2
Re-using DM from previous geometries...
Number of DMs in history: 1
 DM extrapolation coefficients: 
1   1.00000
New DM after history re-use:
<dSpData2D:SpM extrapolated using coords
  <sparsity:sparsity for geom step 1
    nrows_g=147 nrows=19 sparsity=.1279 nnzs=2763, refcount: 10>
  <dData2D:(temp array for extrapolation) n=2763 m=8, refcount: 1>
refcount: 1>
     spin moment: {S} , |S| = {   -0.00004   -0.00004   -0.00000 }     0.00006
Note: For starting DM, Qtot, Tr[D*S] =         48.00000000         47.93814961

InitMesh: MESH = 144 x 128 x 96 = 1769472
InitMesh: Mesh cutoff (required, used) =   300.000   327.752 Ry
New grid distribution [1]: sub = 2
New grid distribution [2]: sub = 2
New grid distribution [3]: sub = 2
Setting up quadratic distribution...

        iscf     Eharris(eV)        E_KS(eV)     FreeEng(eV)     dDmax    Ef(eV) dHmax(eV)
   scf:    1    -5080.738039    -5081.149834    -5081.149834  0.060350 -3.919926  2.327662
     spin moment: {S} , |S| = {   -0.00000   -0.00000   -0.00000 }     0.00000
   scf:    2    -5069.964279    -5077.838747    -5077.838747  0.156391 -3.773069  7.537768
     spin moment: {S} , |S| = {   -0.00000   -0.00000    0.00000 }     0.00000
   scf:    3    -5082.111832    -5081.435164    -5081.435164  0.125262 -3.723379  0.207624
     spin moment: {S} , |S| = {   -0.00000   -0.00000   -0.00000 }     0.00000
   scf:    4    -5081.438253    -5081.437348    -5081.437348  0.004226 -3.691684  0.046218
     spin moment: {S} , |S| = {   -0.00000   -0.00000   -0.00000 }     0.00000
   scf:    5    -5081.437970    -5081.437688    -5081.437688  0.001248 -3.679541  0.018891
     spin moment: {S} , |S| = {   -0.00000   -0.00000   -0.00000 }     0.00000
   scf:    6    -5081.437785    -5081.437742    -5081.437742  0.000740 -3.675102  0.011029
     spin moment: {S} , |S| = {   -0.00000   -0.00000   -0.00000 }     0.00000
   scf:    7    -5081.437752    -5081.437747    -5081.437747  0.000344 -3.674309  0.003522
     spin moment: {S} , |S| = {   -0.00000   -0.00000   -0.00000 }     0.00000
   scf:    8    -5081.437749    -5081.437748    -5081.437748  0.000132 -3.674096  0.000609
     spin moment: {S} , |S| = {   -0.00000   -0.00000   -0.00000 }     0.00000
   scf:    9    -5081.437748    -5081.437748    -5081.437748  0.000024 -3.674035  0.000304
     spin moment: {S} , |S| = {   -0.00000   -0.00000   -0.00000 }     0.00000
   scf:   10    -5081.437748    -5081.437748    -5081.437748  0.000009 -3.673983  0.000123
     spin moment: {S} , |S| = {   -0.00000   -0.00000   -0.00000 }     0.00000
   scf:   11    -5081.437748    -5081.437748    -5081.437748  0.000008 -3.673952  0.000030
     spin moment: {S} , |S| = {   -0.00000   -0.00000   -0.00000 }     0.00000
   scf:   12    -5081.437748    -5081.437748    -5081.437748  0.000002 -3.673946  0.000016
     spin moment: {S} , |S| = {   -0.00000   -0.00000   -0.00000 }     0.00000
   scf:   13    -5081.437748    -5081.437748    -5081.437748  0.000001 -3.673946  0.000005
     spin moment: {S} , |S| = {   -0.00000   -0.00000   -0.00000 }     0.00000
   scf:   14    -5081.437748    -5081.437748    -5081.437748  0.000000 -3.673945  0.000002
     spin moment: {S} , |S| = {   -0.00000   -0.00000   -0.00000 }     0.00000
   scf:   15    -5081.437748    -5081.437748    -5081.437748  0.000000 -3.673946  0.000001
     spin moment: {S} , |S| = {   -0.00000   -0.00000   -0.00000 }     0.00000

SCF Convergence by DM+H criterion
max |DM_out - DM_in|         :     0.0000000805
max |H_out - H_in|      (eV) :     0.0000008213
SCF cycle converged after 15 iterations

Using DM_out to compute the final energy and forces

siesta: E_KS(eV) =            -5081.4377
     spin moment: {S} , |S| = {   -0.00000   -0.00000   -0.00000 }     0.00000

siesta: Atomic forces (eV/Ang):
     1    0.868381   -0.944746    0.000055
     2   -1.918207   -0.344021    0.000009
     3   -0.220382   -0.063494   -0.000046
     4    0.036369    0.108352   -0.000155
     5    0.482425   -0.492402    0.002285
     6   -0.846026    1.185007    0.000042
     7   -0.355460    0.189571    0.000183
     8    0.083686    0.167553    0.005449
     9    1.976033    0.259581    0.000011
    10   -0.286652   -0.040519   -0.003181
    11    0.061449   -0.220454    0.000431
    12    0.335208    0.271863   -0.000336
    13   -0.007133    0.045367    0.192418
    14   -0.005888    0.046263   -0.200935
    15   -0.114606   -0.154874    0.003403
----------------------------------------
   Tot    0.089197    0.013048   -0.000366
----------------------------------------
   Max    1.976033
   Res    0.531583    sqrt( Sum f_i^2 / 3N )
----------------------------------------
   Max    1.976033    constrained

Stress tensor Voigt[x,y,z,yz,xz,xy] (kbar):        3.16        2.58        0.59       -0.00       -0.00       -0.69
(Free)E + p*V (eV/cell)    -5083.1374
Target enthalpy (eV/cell)    -5081.4377

                     ====================================
                        Begin Broyden opt. move =      2
                     ====================================

outcell: Unit cell vectors (Ang):
       12.649619    0.000000    0.000000
        0.000000   11.754064    0.000000
        0.000000    0.000000    8.675604

outcell: Cell vector modules (Ang)   :   12.649619   11.754064    8.675604
outcell: Cell angles (23,13,12) (deg):     90.0000     90.0000     90.0000
outcell: Cell volume (Ang**3)        :   1289.9272
<dSpData1D:S at geom step 2
  <sparsity:sparsity for geom step 2
    nrows_g=147 nrows=19 sparsity=.1279 nnzs=2763, refcount: 8>
  <dData1D:(new from dSpData1D) n=2763, refcount: 1>
refcount: 1>
new_DM -- step:     3
Re-using DM from previous geometries...
Number of DMs in history: 1
 DM extrapolation coefficients: 
1   1.00000
New DM after history re-use:
<dSpData2D:SpM extrapolated using coords
  <sparsity:sparsity for geom step 2
    nrows_g=147 nrows=19 sparsity=.1279 nnzs=2763, refcount: 10>
  <dData2D:(temp array for extrapolation) n=2763 m=8, refcount: 1>
refcount: 1>
     spin moment: {S} , |S| = {    0.00003    0.00003   -0.00000 }     0.00005
Note: For starting DM, Qtot, Tr[D*S] =         48.00000000         48.04804488

InitMesh: MESH = 144 x 128 x 96 = 1769472
InitMesh: Mesh cutoff (required, used) =   300.000   327.752 Ry
New grid distribution [1]: sub = 2
New grid distribution [2]: sub = 2
New grid distribution [3]: sub = 2
Setting up quadratic distribution...

        iscf     Eharris(eV)        E_KS(eV)     FreeEng(eV)     dDmax    Ef(eV) dHmax(eV)
   scf:    1    -5080.930908    -5081.384589    -5081.384589  0.040829 -3.516982  1.593702
     spin moment: {S} , |S| = {   -0.00000   -0.00000   -0.00000 }     0.00000
   scf:    2    -5078.386319    -5080.523314    -5080.523314  0.081831 -4.164563  4.546355
     spin moment: {S} , |S| = {   -0.00000   -0.00000   -0.00000 }     0.00000
   scf:    3    -5081.721246    -5081.486237    -5081.486237  0.059027 -3.671892  0.086446
     spin moment: {S} , |S| = {   -0.00000   -0.00000   -0.00000 }     0.00000
   scf:    4    -5081.487142    -5081.486845    -5081.486845  0.000872 -3.692993  0.039987
     spin moment: {S} , |S| = {   -0.00000   -0.00000   -0.00000 }     0.00000
   scf:    5    -5081.487004    -5081.486935    -5081.486935  0.000876 -3.701097  0.016420
     spin moment: {S} , |S| = {   -0.00000   -0.00000   -0.00000 }     0.00000
   scf:    6    -5081.486991    -5081.486966    -5081.486966  0.000709 -3.706567  0.005152
     spin moment: {S} , |S| = {   -0.00000   -0.00000   -0.00000 }     0.00000
   scf:    7    -5081.486968    -5081.486967    -5081.486967  0.000114 -3.706915  0.002332
     spin moment: {S} , |S| = {   -0.00000   -0.00000   -0.00000 }     0.00000
   scf:    8    -5081.486968    -5081.486968    -5081.486968  0.000086 -3.707047  0.000386
     spin moment: {S} , |S| = {   -0.00000   -0.00000   -0.00000 }     0.00000
   scf:    9    -5081.486968    -5081.486968    -5081.486968  0.000009 -3.707047  0.000159
     spin moment: {S} , |S| = {   -0.00000   -0.00000   -0.00000 }     0.00000
   scf:   10    -5081.486968    -5081.486968    -5081.486968  0.000006 -3.707061  0.000079
     spin moment: {S} , |S| = {   -0.00000   -0.00000   -0.00000 }     0.00000
   scf:   11    -5081.486968    -5081.486968    -5081.486968  0.000005 -3.707077  0.000020
     spin moment: {S} , |S| = {   -0.00000   -0.00000   -0.00000 }     0.00000
   scf:   12    -5081.486968    -5081.486968    -5081.486968  0.000001 -3.707078  0.000010
     spin moment: {S} , |S| = {   -0.00000   -0.00000   -0.00000 }     0.00000
   scf:   13    -5081.486968    -5081.486968    -5081.486968  0.000000 -3.707077  0.000004
     spin moment: {S} , |S| = {   -0.00000   -0.00000   -0.00000 }     0.00000
   scf:   14    -5081.486968    -5081.486968    -5081.486968  0.000000 -3.707077  0.000001
     spin moment: {S} , |S| = {   -0.00000   -0.00000   -0.00000 }     0.00000

SCF Convergence by DM+H criterion
max |DM_out - DM_in|         :     0.0000000838
max |H_out - H_in|      (eV) :     0.0000009716
SCF cycle converged after 14 iterations

Using DM_out to compute the final energy and forces

siesta: E_KS(eV) =            -5081.4870
     spin moment: {S} , |S| = {   -0.00000   -0.00000   -0.00000 }     0.00000

siesta: Atomic forces (eV/Ang):
     1    0.026699    0.065561    0.000054
     2   -0.051433    0.006140    0.000009
     3   -0.015252   -0.021825   -0.000044
     4    0.157829    0.149376   -0.000153
     5    0.117723   -0.043037    0.002250
     6   -0.012245   -0.095294    0.000040
     7   -0.020000   -0.017358    0.000181
     8    0.108152    0.026305    0.005397
     9   -0.241105   -0.100527    0.000010
    10    0.221191    0.075773   -0.003098
    11    0.054479   -0.156214    0.000424
    12   -0.134795    0.109209   -0.000327
    13    0.038804   -0.077444    0.257487
    14    0.040277   -0.077071   -0.266144
    15   -0.273211    0.193847    0.003608
----------------------------------------
   Tot    0.017114    0.037441   -0.000306
----------------------------------------
   Max    0.273211
   Res    0.109393    sqrt( Sum f_i^2 / 3N )
----------------------------------------
   Max    0.273211    constrained

Stress tensor Voigt[x,y,z,yz,xz,xy] (kbar):        0.77        1.75        0.73       -0.00       -0.00        0.17
(Free)E + p*V (eV/cell)    -5082.3601
Target enthalpy (eV/cell)    -5081.4870

                     ====================================
                        Begin Broyden opt. move =      3
                     ====================================

outcell: Unit cell vectors (Ang):
       12.649619    0.000000    0.000000
        0.000000   11.754064    0.000000
        0.000000    0.000000    8.675604

outcell: Cell vector modules (Ang)   :   12.649619   11.754064    8.675604
outcell: Cell angles (23,13,12) (deg):     90.0000     90.0000     90.0000
outcell: Cell volume (Ang**3)        :   1289.9272
<dSpData1D:S at geom step 3
  <sparsity:sparsity for geom step 3
    nrows_g=147 nrows=19 sparsity=.1279 nnzs=2763, refcount: 8>
  <dData1D:(new from dSpData1D) n=2763, refcount: 1>
refcount: 1>
new_DM -- step:     4
Re-using DM from previous geometries...
Number of DMs in history: 1
 DM extrapolation coefficients: 
1   1.00000
New DM after history re-use:
<dSpData2D:SpM extrapolated using coords
  <sparsity:sparsity for geom step 3
    nrows_g=147 nrows=19 sparsity=.1279 nnzs=2763, refcount: 10>
  <dData2D:(temp array for extrapolation) n=2763 m=8, refcount: 1>
refcount: 1>
     spin moment: {S} , |S| = {    0.00000   -0.00000   -0.00000 }     0.00000

InitMesh: MESH = 144 x 128 x 96 = 1769472
InitMesh: Mesh cutoff (required, used) =   300.000   327.752 Ry
New grid distribution [1]: sub = 2
New grid distribution [2]: sub = 2
New grid distribution [3]: sub = 2
Setting up quadratic distribution...

        iscf     Eharris(eV)        E_KS(eV)     FreeEng(eV)     dDmax    Ef(eV) dHmax(eV)
   scf:    1    -5081.448474    -5081.485361    -5081.485361  0.003014 -3.702666  0.160620
     spin moment: {S} , |S| = {   -0.00000   -0.00000   -0.00000 }     0.00000
   scf:    2    -5081.465069    -5081.479543    -5081.479543  0.007259 -3.641359  0.437676
     spin moment: {S} , |S| = {   -0.00000   -0.00000   -0.00000 }     0.00000
   scf:    3    -5081.487589    -5081.486085    -5081.486085  0.005460 -3.683290  0.007632
     spin moment: {S} , |S| = {   -0.00000   -0.00000   -0.00000 }     0.00000
   scf:    4    -5081.486092    -5081.486089    -5081.486089  0.000105 -3.681006  0.003372
     spin moment: {S} , |S| = {   -0.00000   -0.00000   -0.00000 }     0.00000
   scf:    5    -5081.486091    -5081.486090    -5081.486090  0.000060 -3.680185  0.001275
     spin moment: {S} , |S| = {   -0.00000   -0.00000   -0.00000 }     0.00000
   scf:    6    -5081.486090    -5081.486090    -5081.486090  0.000038 -3.679953  0.000467
     spin moment: {S} , |S| = {   -0.00000   -0.00000   -0.00000 }     0.00000
   scf:    7    -5081.486090    -5081.486090    -5081.486090  0.000019 -3.679871  0.000073
     spin moment: {S} , |S| = {   -0.00000   -0.00000   -0.00000 }     0.00000
   scf:    8    -5081.486090    -5081.486090    -5081.486090  0.000002 -3.679864  0.000032
     spin moment: {S} , |S| = {   -0.00000   -0.00000   -0.00000 }     0.00000
   scf:    9    -5081.486090    -5081.486090    -5081.486090  0.000001 -3.679861  0.000015
     spin moment: {S} , |S| = {   -0.00000   -0.00000   -0.00000 }     0.00000
   scf:   10    -5081.486090    -5081.486090    -5081.486090  0.000001 -3.679857  0.000006
     spin moment: {S} , |S| = {   -0.00000   -0.00000   -0.00000 }     0.00000
   scf:   11    -5081.486090    -5081.486090    -5081.486090  0.000000 -3.679856  0.000003
     spin moment: {S} , |S| = {   -0.00000   -0.00000   -0.00000 }     0.00000
   scf:   12    -5081.486090    -5081.486090    -5081.486090  0.000000 -3.679856  0.000001
     spin moment: {S} , |S| = {   -0.00000   -0.00000   -0.00000 }     0.00000

SCF Convergence by DM+H criterion
max |DM_out - DM_in|         :     0.0000001407
max |H_out - H_in|      (eV) :     0.0000008851
SCF cycle converged after 12 iterations

Using DM_out to compute the final energy and forces

siesta: E_KS(eV) =            -5081.4861
     spin moment: {S} , |S| = {   -0.00000   -0.00000   -0.00000 }     0.00000

siesta: Atomic forces (eV/Ang):
     1    0.020957    0.025425    0.000053
     2   -0.115387   -0.011071    0.000009
     3   -0.063233   -0.084763   -0.000043
     4    0.061132    0.189380   -0.000150
     5   -0.007073    0.002082    0.002194
     6    0.023025   -0.026097    0.000038
     7    0.087763   -0.047550    0.000175
     8    0.076744    0.061073    0.005169
     9   -0.097328   -0.045842    0.000009
    10   -0.729801    0.109185   -0.003069
    11    0.060468   -0.092083    0.000412
    12    0.289079    0.090830   -0.000330
    13   -0.051477    0.343664    0.016630
    14   -0.050272    0.344120   -0.025216
    15    0.510654   -0.819171    0.003561
----------------------------------------
   Tot    0.015251    0.039182   -0.000558
----------------------------------------
   Max    0.819171
   Res    0.206596    sqrt( Sum f_i^2 / 3N )
----------------------------------------
   Max    0.819171    constrained

Stress tensor Voigt[x,y,z,yz,xz,xy] (kbar):        1.13       -0.16        0.20       -0.00       -0.00       -0.00
(Free)E + p*V (eV/cell)    -5081.8005
Target enthalpy (eV/cell)    -5081.4861

                     ====================================
                        Begin Broyden opt. move =      4
                     ====================================

outcell: Unit cell vectors (Ang):
       12.649619    0.000000    0.000000
        0.000000   11.754064    0.000000
        0.000000    0.000000    8.675604

outcell: Cell vector modules (Ang)   :   12.649619   11.754064    8.675604
outcell: Cell angles (23,13,12) (deg):     90.0000     90.0000     90.0000
outcell: Cell volume (Ang**3)        :   1289.9272
<dSpData1D:S at geom step 4
  <sparsity:sparsity for geom step 4
    nrows_g=147 nrows=19 sparsity=.1279 nnzs=2763, refcount: 8>
  <dData1D:(new from dSpData1D) n=2763, refcount: 1>
refcount: 1>
new_DM -- step:     5
Re-using DM from previous geometries...
Number of DMs in history: 1
 DM extrapolation coefficients: 
1   1.00000
New DM after history re-use:
<dSpData2D:SpM extrapolated using coords
  <sparsity:sparsity for geom step 4
    nrows_g=147 nrows=19 sparsity=.1279 nnzs=2763, refcount: 10>
  <dData2D:(temp array for extrapolation) n=2763 m=8, refcount: 1>
refcount: 1>
     spin moment: {S} , |S| = {   -0.00000   -0.00000   -0.00000 }     0.00000

InitMesh: MESH = 144 x 128 x 96 = 1769472
InitMesh: Mesh cutoff (required, used) =   300.000   327.752 Ry
New grid distribution [1]: sub = 2
New grid distribution [2]: sub = 2
New grid distribution [3]: sub = 2
Setting up quadratic distribution...

        iscf     Eharris(eV)        E_KS(eV)     FreeEng(eV)     dDmax    Ef(eV) dHmax(eV)
   scf:    1    -5081.483344    -5081.489439    -5081.489439  0.002318 -3.662555  0.057908
     spin moment: {S} , |S| = {   -0.00000   -0.00000   -0.00000 }     0.00000
   scf:    2    -5081.484554    -5081.488023    -5081.488023  0.003129 -3.665452  0.156043
     spin moment: {S} , |S| = {   -0.00000   -0.00000   -0.00000 }     0.00000
   scf:    3    -5081.489941    -5081.489595    -5081.489595  0.002369 -3.664500  0.010134
     spin moment: {S} , |S| = {   -0.00000   -0.00000   -0.00000 }     0.00000
   scf:    4    -5081.489597    -5081.489596    -5081.489596  0.000054 -3.665598  0.002300
     spin moment: {S} , |S| = {   -0.00000   -0.00000   -0.00000 }     0.00000
   scf:    5    -5081.489596    -5081.489596    -5081.489596  0.000013 -3.665648  0.000770
     spin moment: {S} , |S| = {   -0.00000   -0.00000   -0.00000 }     0.00000
   scf:    6    -5081.489596    -5081.489596    -5081.489596  0.000011 -3.665612  0.000087
     spin moment: {S} , |S| = {   -0.00000   -0.00000   -0.00000 }     0.00000
   scf:    7    -5081.489596    -5081.489596    -5081.489596  0.000003 -3.665611  0.000038
     spin moment: {S} , |S| = {   -0.00000   -0.00000   -0.00000 }     0.00000
   scf:    8    -5081.489596    -5081.489596    -5081.489596  0.000003 -3.665613  0.000016
     spin moment: {S} , |S| = {   -0.00000   -0.00000   -0.00000 }     0.00000
   scf:    9    -5081.489596    -5081.489596    -5081.489596  0.000001 -3.665614  0.000014
     spin moment: {S} , |S| = {   -0.00000   -0.00000   -0.00000 }     0.00000
   scf:   10    -5081.489596    -5081.489596    -5081.489596  0.000001 -3.665614  0.000004
     spin moment: {S} , |S| = {   -0.00000   -0.00000   -0.00000 }     0.00000
   scf:   11    -5081.489596    -5081.489596    -5081.489596  0.000000 -3.665614  0.000002
     spin moment: {S} , |S| = {   -0.00000   -0.00000   -0.00000 }     0.00000
   scf:   12    -5081.489596    -5081.489596    -5081.489596  0.000000 -3.665614  0.000001
     spin moment: {S} , |S| = {   -0.00000   -0.00000   -0.00000 }     0.00000

SCF Convergence by DM+H criterion
max |DM_out - DM_in|         :     0.0000001307
max |H_out - H_in|      (eV) :     0.0000005127
SCF cycle converged after 12 iterations

Using DM_out to compute the final energy and forces

siesta: E_KS(eV) =            -5081.4896
     spin moment: {S} , |S| = {   -0.00000   -0.00000   -0.00000 }     0.00000

siesta: Atomic forces (eV/Ang):
     1    0.029424    0.001649    0.000051
     2   -0.134861   -0.016649    0.000009
     3   -0.067704   -0.086642   -0.000042
     4    0.052015    0.165896   -0.000148
     5   -0.009624    0.012170    0.002162
     6    0.014857    0.010367    0.000037
     7    0.067199   -0.040950    0.000173
     8    0.022061   -0.064163    0.005566
     9   -0.045770   -0.022813    0.000009
    10   -0.063487    0.091478   -0.002949
    11    0.057835   -0.071931    0.000405
    12    0.007684    0.009368   -0.000322
    13    0.080980   -0.109577    0.288519
    14    0.082914   -0.109812   -0.297485
    15   -0.080538    0.269859    0.003631
----------------------------------------
   Tot    0.012986    0.038249   -0.000382
----------------------------------------
   Max    0.297485
   Res    0.092533    sqrt( Sum f_i^2 / 3N )
----------------------------------------
   Max    0.269859    constrained

Stress tensor Voigt[x,y,z,yz,xz,xy] (kbar):        0.97        1.52        0.80        0.00       -0.00       -0.00
(Free)E + p*V (eV/cell)    -5082.3750
Target enthalpy (eV/cell)    -5081.4896

                     ====================================
                        Begin Broyden opt. move =      5
                     ====================================

outcell: Unit cell vectors (Ang):
       12.649619    0.000000    0.000000
        0.000000   11.754064    0.000000
        0.000000    0.000000    8.675604

outcell: Cell vector modules (Ang)   :   12.649619   11.754064    8.675604
outcell: Cell angles (23,13,12) (deg):     90.0000     90.0000     90.0000
outcell: Cell volume (Ang**3)        :   1289.9272
<dSpData1D:S at geom step 5
  <sparsity:sparsity for geom step 5
    nrows_g=147 nrows=19 sparsity=.1279 nnzs=2763, refcount: 8>
  <dData1D:(new from dSpData1D) n=2763, refcount: 1>
refcount: 1>
new_DM -- step:     6
Re-using DM from previous geometries...
Number of DMs in history: 1
 DM extrapolation coefficients: 
1   1.00000
New DM after history re-use:
<dSpData2D:SpM extrapolated using coords
  <sparsity:sparsity for geom step 5
    nrows_g=147 nrows=19 sparsity=.1279 nnzs=2763, refcount: 10>
  <dData2D:(temp array for extrapolation) n=2763 m=8, refcount: 1>
refcount: 1>
     spin moment: {S} , |S| = {    0.00000    0.00000   -0.00000 }     0.00000

InitMesh: MESH = 144 x 128 x 96 = 1769472
InitMesh: Mesh cutoff (required, used) =   300.000   327.752 Ry
New grid distribution [1]: sub = 2
New grid distribution [2]: sub = 2
New grid distribution [3]: sub = 2
Setting up quadratic distribution...

        iscf     Eharris(eV)        E_KS(eV)     FreeEng(eV)     dDmax    Ef(eV) dHmax(eV)
   scf:    1    -5081.457676    -5081.490358    -5081.490358  0.001305 -3.644947  0.053948
     spin moment: {S} , |S| = {   -0.00000   -0.00000   -0.00000 }     0.00000
   scf:    2    -5081.487486    -5081.489540    -5081.489540  0.002591 -3.662920  0.167845
     spin moment: {S} , |S| = {   -0.00000   -0.00000   -0.00000 }     0.00000
   scf:    3    -5081.490685    -5081.490468    -5081.490468  0.001996 -3.650051  0.004163
     spin moment: {S} , |S| = {   -0.00000   -0.00000   -0.00000 }     0.00000
   scf:    4    -5081.490469    -5081.490468    -5081.490468  0.000024 -3.650252  0.002242
     spin moment: {S} , |S| = {   -0.00000   -0.00000   -0.00000 }     0.00000
   scf:    5    -5081.490469    -5081.490468    -5081.490468  0.000017 -3.650253  0.000561
     spin moment: {S} , |S| = {   -0.00000   -0.00000   -0.00000 }     0.00000
   scf:    6    -5081.490468    -5081.490468    -5081.490468  0.000006 -3.650249  0.000177
     spin moment: {S} , |S| = {   -0.00000   -0.00000   -0.00000 }     0.00000
   scf:    7    -5081.490468    -5081.490468    -5081.490468  0.000003 -3.650272  0.000029
     spin moment: {S} , |S| = {   -0.00000   -0.00000   -0.00000 }     0.00000
   scf:    8    -5081.490468    -5081.490468    -5081.490468  0.000001 -3.650274  0.000013
     spin moment: {S} , |S| = {   -0.00000   -0.00000   -0.00000 }     0.00000
   scf:    9    -5081.490468    -5081.490468    -5081.490468  0.000001 -3.650274  0.000011
     spin moment: {S} , |S| = {   -0.00000   -0.00000   -0.00000 }     0.00000
   scf:   10    -5081.490468    -5081.490468    -5081.490468  0.000000 -3.650273  0.000004
     spin moment: {S} , |S| = {   -0.00000   -0.00000   -0.00000 }     0.00000
   scf:   11    -5081.490468    -5081.490468    -5081.490468  0.000000 -3.650273  0.000001
     spin moment: {S} , |S| = {   -0.00000   -0.00000   -0.00000 }     0.00000
   scf:   12    -5081.490468    -5081.490468    -5081.490468  0.000000 -3.650273  0.000000
     spin moment: {S} , |S| = {   -0.00000   -0.00000   -0.00000 }     0.00000

SCF Convergence by DM+H criterion
max |DM_out - DM_in|         :     0.0000000488
max |H_out - H_in|      (eV) :     0.0000004730
SCF cycle converged after 12 iterations

Using DM_out to compute the final energy and forces

siesta: E_KS(eV) =            -5081.4905
     spin moment: {S} , |S| = {   -0.00000   -0.00000   -0.00000 }     0.00000

siesta: Atomic forces (eV/Ang):
     1    0.025023    0.005231    0.000050
     2   -0.079641   -0.003630    0.000009
     3   -0.042773   -0.050277   -0.000041
     4    0.059107    0.136344   -0.000144
     5    0.030823   -0.022661    0.002111
     6   -0.007709    0.004145    0.000037
     7    0.002409    0.019257    0.000169
     8    0.029178    0.015464    0.005171
     9   -0.075681   -0.028720    0.000009
    10    0.108204    0.135829   -0.002714
    11    0.045530   -0.076576    0.000394
    12   -0.140829   -0.032187   -0.000316
    13    0.067670    0.066766    0.177390
    14    0.069560    0.066608   -0.185795
    15   -0.084837   -0.196847    0.003301
----------------------------------------
   Tot    0.006034    0.038748   -0.000370
----------------------------------------
   Max    0.196847
   Res    0.071844    sqrt( Sum f_i^2 / 3N )
----------------------------------------
   Max    0.196847    constrained

Stress tensor Voigt[x,y,z,yz,xz,xy] (kbar):        1.19        0.71        0.56        0.00       -0.00        0.08
(Free)E + p*V (eV/cell)    -5082.1508
Target enthalpy (eV/cell)    -5081.4905

                     ====================================
                        Begin Broyden opt. move =      6
                     ====================================

outcell: Unit cell vectors (Ang):
       12.649619    0.000000    0.000000
        0.000000   11.754064    0.000000
        0.000000    0.000000    8.675604

outcell: Cell vector modules (Ang)   :   12.649619   11.754064    8.675604
outcell: Cell angles (23,13,12) (deg):     90.0000     90.0000     90.0000
outcell: Cell volume (Ang**3)        :   1289.9272
<dSpData1D:S at geom step 6
  <sparsity:sparsity for geom step 6
    nrows_g=147 nrows=19 sparsity=.1279 nnzs=2763, refcount: 8>
  <dData1D:(new from dSpData1D) n=2763, refcount: 1>
refcount: 1>
new_DM -- step:     7
Re-using DM from previous geometries...
Number of DMs in history: 1
 DM extrapolation coefficients: 
1   1.00000
New DM after history re-use:
<dSpData2D:SpM extrapolated using coords
  <sparsity:sparsity for geom step 6
    nrows_g=147 nrows=19 sparsity=.1279 nnzs=2763, refcount: 10>
  <dData2D:(temp array for extrapolation) n=2763 m=8, refcount: 1>
refcount: 1>
     spin moment: {S} , |S| = {    0.00000   -0.00000   -0.00000 }     0.00000

InitMesh: MESH = 144 x 128 x 96 = 1769472
InitMesh: Mesh cutoff (required, used) =   300.000   327.752 Ry
New grid distribution [1]: sub = 2
New grid distribution [2]: sub = 2
New grid distribution [3]: sub = 2
Setting up quadratic distribution...

        iscf     Eharris(eV)        E_KS(eV)     FreeEng(eV)     dDmax    Ef(eV) dHmax(eV)
   scf:    1    -5081.464426    -5081.491472    -5081.491472  0.000967 -3.632408  0.027966
     spin moment: {S} , |S| = {   -0.00000   -0.00000   -0.00000 }     0.00000
   scf:    2    -5081.489859    -5081.491009    -5081.491009  0.001663 -3.638648  0.098014
     spin moment: {S} , |S| = {   -0.00000   -0.00000   -0.00000 }     0.00000
   scf:    3    -5081.491648    -5081.491529    -5081.491529  0.001301 -3.634439  0.004306
     spin moment: {S} , |S| = {   -0.00000   -0.00000   -0.00000 }     0.00000
   scf:    4    -5081.491530    -5081.491530    -5081.491530  0.000030 -3.634709  0.001713
     spin moment: {S} , |S| = {   -0.00000   -0.00000   -0.00000 }     0.00000
   scf:    5    -5081.491530    -5081.491530    -5081.491530  0.000018 -3.634754  0.000411
     spin moment: {S} , |S| = {   -0.00000   -0.00000   -0.00000 }     0.00000
   scf:    6    -5081.491530    -5081.491530    -5081.491530  0.000007 -3.634754  0.000089
     spin moment: {S} , |S| = {   -0.00000   -0.00000   -0.00000 }     0.00000
   scf:    7    -5081.491530    -5081.491530    -5081.491530  0.000003 -3.634763  0.000018
     spin moment: {S} , |S| = {   -0.00000   -0.00000   -0.00000 }     0.00000
   scf:    8    -5081.491530    -5081.491530    -5081.491530  0.000001 -3.634763  0.000009
     spin moment: {S} , |S| = {   -0.00000   -0.00000   -0.00000 }     0.00000
   scf:    9    -5081.491530    -5081.491530    -5081.491530  0.000000 -3.634763  0.000006
     spin moment: {S} , |S| = {   -0.00000   -0.00000   -0.00000 }     0.00000
   scf:   10    -5081.491530    -5081.491530    -5081.491530  0.000000 -3.634764  0.000002
     spin moment: {S} , |S| = {   -0.00000   -0.00000   -0.00000 }     0.00000
   scf:   11    -5081.491530    -5081.491530    -5081.491530  0.000000 -3.634764  0.000001
     spin moment: {S} , |S| = {   -0.00000   -0.00000   -0.00000 }     0.00000

SCF Convergence by DM+H criterion
max |DM_out - DM_in|         :     0.0000000390
max |H_out - H_in|      (eV) :     0.0000008224
SCF cycle converged after 11 iterations

Using DM_out to compute the final energy and forces

siesta: E_KS(eV) =            -5081.4915
     spin moment: {S} , |S| = {   -0.00000   -0.00000   -0.00000 }     0.00000

siesta: Atomic forces (eV/Ang):
     1    0.011535    0.017387    0.000048
     2   -0.046780    0.005886    0.000008
     3   -0.025558   -0.019181   -0.000040
     4    0.037168    0.133245   -0.000140
     5    0.031732   -0.022503    0.002052
     6   -0.011833   -0.014431    0.000036
     7   -0.006499    0.065547    0.000164
     8    0.019514   -0.027123    0.004784
     9   -0.076219   -0.035324    0.000009
    10   -0.100242    0.100278   -0.002546
    11    0.035456   -0.080582    0.000381
    12    0.009365   -0.028886   -0.000312
    13    0.099258   -0.021127    0.223423
    14    0.100505   -0.020703   -0.231179
    15   -0.077978   -0.022381    0.002836
----------------------------------------
   Tot   -0.000575    0.030103   -0.000476
----------------------------------------
   Max    0.231179
[...]
     spin moment: {S} , |S| = {   -0.00000   -0.00000   -0.00000 }     0.00000
   scf:    2    -5081.491338    -5081.491338    -5081.491338  0.000042 -3.573495  0.002488
     spin moment: {S} , |S| = {   -0.00000   -0.00000   -0.00000 }     0.00000
   scf:    3    -5081.491339    -5081.491338    -5081.491338  0.000032 -3.573375  0.000098
     spin moment: {S} , |S| = {   -0.00000   -0.00000   -0.00000 }     0.00000
   scf:    4    -5081.491338    -5081.491338    -5081.491338  0.000001 -3.573382  0.000042
     spin moment: {S} , |S| = {   -0.00000   -0.00000   -0.00000 }     0.00000
   scf:    5    -5081.491338    -5081.491338    -5081.491338  0.000000 -3.573384  0.000007
     spin moment: {S} , |S| = {   -0.00000   -0.00000   -0.00000 }     0.00000
   scf:    6    -5081.491338    -5081.491338    -5081.491338  0.000000 -3.573384  0.000001
     spin moment: {S} , |S| = {   -0.00000   -0.00000   -0.00000 }     0.00000
   scf:    7    -5081.491338    -5081.491338    -5081.491338  0.000000 -3.573384  0.000000
     spin moment: {S} , |S| = {   -0.00000   -0.00000   -0.00000 }     0.00000

SCF Convergence by DM+H criterion
max |DM_out - DM_in|         :     0.0000000605
max |H_out - H_in|      (eV) :     0.0000004086
SCF cycle converged after 7 iterations

Using DM_out to compute the final energy and forces

siesta: E_KS(eV) =            -5081.4913
     spin moment: {S} , |S| = {   -0.00000   -0.00000   -0.00000 }     0.00000

siesta: Atomic forces (eV/Ang):
     1   -0.000712    0.002987    0.000033
     2   -0.000858    0.002197    0.000007
     3   -0.000060    0.000829   -0.000031
     4    0.020592   -0.015628   -0.000112
     5   -0.000939    0.003373    0.001599
     6   -0.000876    0.003178    0.000027
     7   -0.000651    0.004273    0.000130
     8    0.000192    0.004878    0.003491
     9   -0.001926   -0.001041    0.000006
    10   -0.010500    0.007578   -0.002345
    11    0.007158   -0.003165    0.000286
    12   -0.001808   -0.003504   -0.000232
    13    0.004329    0.005310    0.239132
    14    0.004441    0.005407   -0.245252
    15   -0.008102    0.005190    0.003266
----------------------------------------
   Tot    0.010279    0.021862    0.000006
----------------------------------------
   Max    0.245252
   Res    0.051327    sqrt( Sum f_i^2 / 3N )
----------------------------------------
   Max    0.010500    constrained

Stress tensor Voigt[x,y,z,yz,xz,xy] (kbar):       -0.01        0.28        0.69        0.00       -0.00        0.12
(Free)E + p*V (eV/cell)    -5081.7493
Target enthalpy (eV/cell)    -5081.4913

                     ====================================
                        Begin Broyden opt. move =     31
                     ====================================

outcell: Unit cell vectors (Ang):
       12.649619    0.000000    0.000000
        0.000000   11.754064    0.000000
        0.000000    0.000000    8.675604

outcell: Cell vector modules (Ang)   :   12.649619   11.754064    8.675604
outcell: Cell angles (23,13,12) (deg):     90.0000     90.0000     90.0000
outcell: Cell volume (Ang**3)        :   1289.9272
<dSpData1D:S at geom step 31
  <sparsity:sparsity for geom step 31
    nrows_g=147 nrows=19 sparsity=.1279 nnzs=2763, refcount: 8>
  <dData1D:(new from dSpData1D) n=2763, refcount: 1>
refcount: 1>
new_DM -- step:    32
Re-using DM from previous geometries...
Number of DMs in history: 1
 DM extrapolation coefficients: 
1   1.00000
New DM after history re-use:
<dSpData2D:SpM extrapolated using coords
  <sparsity:sparsity for geom step 31
    nrows_g=147 nrows=19 sparsity=.1279 nnzs=2763, refcount: 10>
  <dData2D:(temp array for extrapolation) n=2763 m=8, refcount: 1>
refcount: 1>
     spin moment: {S} , |S| = {   -0.00000   -0.00000   -0.00000 }     0.00000

InitMesh: MESH = 144 x 128 x 96 = 1769472
InitMesh: Mesh cutoff (required, used) =   300.000   327.752 Ry
New grid distribution [1]: sub = 2
New grid distribution [2]: sub = 2
New grid distribution [3]: sub = 2
Setting up quadratic distribution...

        iscf     Eharris(eV)        E_KS(eV)     FreeEng(eV)     dDmax    Ef(eV) dHmax(eV)
   scf:    1    -5081.491400    -5081.491340    -5081.491340  0.000007 -3.573404  0.000299
     spin moment: {S} , |S| = {   -0.00000   -0.00000   -0.00000 }     0.00000
   scf:    2    -5081.491340    -5081.491340    -5081.491340  0.000017 -3.573358  0.000916
     spin moment: {S} , |S| = {   -0.00000   -0.00000   -0.00000 }     0.00000
   scf:    3    -5081.491340    -5081.491340    -5081.491340  0.000013 -3.573388  0.000017
     spin moment: {S} , |S| = {   -0.00000   -0.00000   -0.00000 }     0.00000
   scf:    4    -5081.491340    -5081.491340    -5081.491340  0.000000 -3.573384  0.000007
     spin moment: {S} , |S| = {   -0.00000   -0.00000   -0.00000 }     0.00000
   scf:    5    -5081.491340    -5081.491340    -5081.491340  0.000000 -3.573383  0.000001
     spin moment: {S} , |S| = {   -0.00000   -0.00000   -0.00000 }     0.00000
   scf:    6    -5081.491340    -5081.491340    -5081.491340  0.000000 -3.573383  0.000001
     spin moment: {S} , |S| = {   -0.00000   -0.00000   -0.00000 }     0.00000

SCF Convergence by DM+H criterion
max |DM_out - DM_in|         :     0.0000000482
max |H_out - H_in|      (eV) :     0.0000006443
SCF cycle converged after 6 iterations

Using DM_out to compute the final energy and forces

siesta: E_KS(eV) =            -5081.4913
     spin moment: {S} , |S| = {   -0.00000   -0.00000   -0.00000 }     0.00000

siesta: Atomic forces (eV/Ang):
     1   -0.000389    0.002604    0.000033
     2   -0.001047    0.002116    0.000007
     3   -0.000078    0.000762   -0.000031
     4    0.020627   -0.015694   -0.000112
     5   -0.001039    0.003494    0.001595
     6   -0.001075    0.003604    0.000027
     7   -0.000565    0.004044    0.000130
     8    0.000258    0.004912    0.003485
     9   -0.001705   -0.000993    0.000006
    10   -0.009505    0.007922   -0.002343
    11    0.007118   -0.003108    0.000285
    12   -0.002763   -0.003600   -0.000232
    13    0.004366    0.005662    0.238857
    14    0.004399    0.005722   -0.244993
    15   -0.008246    0.004300    0.003310
----------------------------------------
   Tot    0.010356    0.021747    0.000025
----------------------------------------
   Max    0.244993
   Res    0.051270    sqrt( Sum f_i^2 / 3N )
----------------------------------------
   Max    0.009505    constrained

Stress tensor Voigt[x,y,z,yz,xz,xy] (kbar):       -0.00        0.28        0.69        0.00       -0.00        0.12
(Free)E + p*V (eV/cell)    -5081.7496
Target enthalpy (eV/cell)    -5081.4913

                     ====================================
                        Begin Broyden opt. move =     32
                     ====================================

outcell: Unit cell vectors (Ang):
       12.649619    0.000000    0.000000
        0.000000   11.754064    0.000000
        0.000000    0.000000    8.675604

outcell: Cell vector modules (Ang)   :   12.649619   11.754064    8.675604
outcell: Cell angles (23,13,12) (deg):     90.0000     90.0000     90.0000
outcell: Cell volume (Ang**3)        :   1289.9272
<dSpData1D:S at geom step 32
  <sparsity:sparsity for geom step 32
    nrows_g=147 nrows=19 sparsity=.1279 nnzs=2763, refcount: 8>
  <dData1D:(new from dSpData1D) n=2763, refcount: 1>
refcount: 1>
new_DM -- step:    33
Re-using DM from previous geometries...
Number of DMs in history: 1
 DM extrapolation coefficients: 
1   1.00000
New DM after history re-use:
<dSpData2D:SpM extrapolated using coords
  <sparsity:sparsity for geom step 32
    nrows_g=147 nrows=19 sparsity=.1279 nnzs=2763, refcount: 10>
  <dData2D:(temp array for extrapolation) n=2763 m=8, refcount: 1>
refcount: 1>
     spin moment: {S} , |S| = {   -0.00000   -0.00000   -0.00000 }     0.00000

InitMesh: MESH = 144 x 128 x 96 = 1769472
InitMesh: Mesh cutoff (required, used) =   300.000   327.752 Ry
New grid distribution [1]: sub = 2
New grid distribution [2]: sub = 2
New grid distribution [3]: sub = 2
Setting up quadratic distribution...

        iscf     Eharris(eV)        E_KS(eV)     FreeEng(eV)     dDmax    Ef(eV) dHmax(eV)
   scf:    1    -5081.491496    -5081.491339    -5081.491339  0.000022 -3.573300  0.000948
     spin moment: {S} , |S| = {   -0.00000   -0.00000   -0.00000 }     0.00000
   scf:    2    -5081.491339    -5081.491339    -5081.491339  0.000049 -3.573565  0.002915
     spin moment: {S} , |S| = {   -0.00000   -0.00000   -0.00000 }     0.00000
   scf:    3    -5081.491339    -5081.491339    -5081.491339  0.000037 -3.573379  0.000036
     spin moment: {S} , |S| = {   -0.00000   -0.00000   -0.00000 }     0.00000
   scf:    4    -5081.491339    -5081.491339    -5081.491339  0.000001 -3.573385  0.000014
     spin moment: {S} , |S| = {   -0.00000   -0.00000   -0.00000 }     0.00000
   scf:    5    -5081.491339    -5081.491339    -5081.491339  0.000000 -3.573386  0.000006
     spin moment: {S} , |S| = {   -0.00000   -0.00000   -0.00000 }     0.00000
   scf:    6    -5081.491339    -5081.491339    -5081.491339  0.000000 -3.573387  0.000001
     spin moment: {S} , |S| = {   -0.00000   -0.00000   -0.00000 }     0.00000
   scf:    7    -5081.491339    -5081.491339    -5081.491339  0.000000 -3.573387  0.000000
     spin moment: {S} , |S| = {   -0.00000   -0.00000   -0.00000 }     0.00000

SCF Convergence by DM+H criterion
max |DM_out - DM_in|         :     0.0000000521
max |H_out - H_in|      (eV) :     0.0000003780
SCF cycle converged after 7 iterations

Using DM_out to compute the final energy and forces

siesta: E_KS(eV) =            -5081.4913
     spin moment: {S} , |S| = {   -0.00000   -0.00000   -0.00000 }     0.00000

siesta: Atomic forces (eV/Ang):
     1    0.000308    0.001671    0.000032
     2   -0.000935    0.002101    0.000007
     3   -0.000012    0.000661   -0.000030
     4    0.020602   -0.015827   -0.000111
     5   -0.001222    0.003495    0.001580
     6   -0.001633    0.004694    0.000027
     7   -0.000436    0.003800    0.000129
     8    0.000228    0.005067    0.003401
     9   -0.001821   -0.000963    0.000006
    10   -0.009001    0.007668   -0.002317
    11    0.006996   -0.002998    0.000282
    12   -0.002869   -0.003616   -0.000229
    13    0.004053    0.005820    0.238973
    14    0.004121    0.005956   -0.244959
    15   -0.007974    0.004282    0.003219
----------------------------------------
   Tot    0.010406    0.021811    0.000010
----------------------------------------
   Max    0.244959
   Res    0.051276    sqrt( Sum f_i^2 / 3N )
----------------------------------------
   Max    0.009001    constrained

Stress tensor Voigt[x,y,z,yz,xz,xy] (kbar):       -0.01        0.28        0.69        0.00       -0.00        0.12
(Free)E + p*V (eV/cell)    -5081.7495
Target enthalpy (eV/cell)    -5081.4913

                     ====================================
                        Begin Broyden opt. move =     33
                     ====================================

outcell: Unit cell vectors (Ang):
       12.649619    0.000000    0.000000
        0.000000   11.754064    0.000000
        0.000000    0.000000    8.675604

outcell: Cell vector modules (Ang)   :   12.649619   11.754064    8.675604
outcell: Cell angles (23,13,12) (deg):     90.0000     90.0000     90.0000
outcell: Cell volume (Ang**3)        :   1289.9272
<dSpData1D:S at geom step 33
  <sparsity:sparsity for geom step 33
    nrows_g=147 nrows=19 sparsity=.1279 nnzs=2763, refcount: 8>
  <dData1D:(new from dSpData1D) n=2763, refcount: 1>
refcount: 1>
new_DM -- step:    34
Re-using DM from previous geometries...
Number of DMs in history: 1
 DM extrapolation coefficients: 
1   1.00000
New DM after history re-use:
<dSpData2D:SpM extrapolated using coords
  <sparsity:sparsity for geom step 33
    nrows_g=147 nrows=19 sparsity=.1279 nnzs=2763, refcount: 10>
  <dData2D:(temp array for extrapolation) n=2763 m=8, refcount: 1>
refcount: 1>
     spin moment: {S} , |S| = {   -0.00000   -0.00000   -0.00000 }     0.00000

InitMesh: MESH = 144 x 128 x 96 = 1769472
InitMesh: Mesh cutoff (required, used) =   300.000   327.752 Ry
New grid distribution [1]: sub = 2
New grid distribution [2]: sub = 2
New grid distribution [3]: sub = 2
Setting up quadratic distribution...

        iscf     Eharris(eV)        E_KS(eV)     FreeEng(eV)     dDmax    Ef(eV) dHmax(eV)
   scf:    1    -5081.491455    -5081.491338    -5081.491338  0.000109 -3.573177  0.005641
     spin moment: {S} , |S| = {   -0.00000   -0.00000   -0.00000 }     0.00000
   scf:    2    -5081.491320    -5081.491332    -5081.491332  0.000259 -3.572778  0.016428
     spin moment: {S} , |S| = {   -0.00000   -0.00000   -0.00000 }     0.00000
   scf:    3    -5081.491339    -5081.491338    -5081.491338  0.000196 -3.573122  0.000268
     spin moment: {S} , |S| = {   -0.00000   -0.00000   -0.00000 }     0.00000
   scf:    4    -5081.491338    -5081.491338    -5081.491338  0.000004 -3.573157  0.000080
     spin moment: {S} , |S| = {   -0.00000   -0.00000   -0.00000 }     0.00000
   scf:    5    -5081.491338    -5081.491338    -5081.491338  0.000002 -3.573166  0.000030
     spin moment: {S} , |S| = {   -0.00000   -0.00000   -0.00000 }     0.00000
   scf:    6    -5081.491338    -5081.491338    -5081.491338  0.000001 -3.573167  0.000010
     spin moment: {S} , |S| = {   -0.00000   -0.00000   -0.00000 }     0.00000
   scf:    7    -5081.491338    -5081.491338    -5081.491338  0.000001 -3.573167  0.000003
     spin moment: {S} , |S| = {   -0.00000   -0.00000   -0.00000 }     0.00000
   scf:    8    -5081.491338    -5081.491338    -5081.491338  0.000000 -3.573167  0.000001
     spin moment: {S} , |S| = {   -0.00000   -0.00000   -0.00000 }     0.00000

SCF Convergence by DM+H criterion
max |DM_out - DM_in|         :     0.0000001038
max |H_out - H_in|      (eV) :     0.0000009668
SCF cycle converged after 8 iterations

Using DM_out to compute the final energy and forces

siesta: E_KS(eV) =            -5081.4913
     spin moment: {S} , |S| = {   -0.00000   -0.00000   -0.00000 }     0.00000

siesta: Atomic forces (eV/Ang):
     1   -0.002736    0.005437    0.000030
     2   -0.001315    0.002028    0.000007
     3   -0.000462    0.000711   -0.000029
     4    0.021232   -0.016835   -0.000107
     5   -0.001571    0.005155    0.001510
     6    0.001281   -0.000069    0.000026
     7   -0.000265    0.001670    0.000124
     8   -0.000758    0.004210    0.003109
     9   -0.001169   -0.000633    0.000006
    10   -0.005710    0.005579   -0.002225
    11    0.007046   -0.002567    0.000268
    12   -0.005108   -0.003353   -0.000219
    13    0.000982    0.007794    0.239277
    14    0.001408    0.007409   -0.245118
    15   -0.002720    0.005748    0.003159
----------------------------------------
   Tot    0.010135    0.022283   -0.000183
----------------------------------------
   Max    0.245118
   Res    0.051318    sqrt( Sum f_i^2 / 3N )
----------------------------------------
   Max    0.007794    constrained

Stress tensor Voigt[x,y,z,yz,xz,xy] (kbar):       -0.01        0.27        0.69        0.00       -0.00        0.14
(Free)E + p*V (eV/cell)    -5081.7460
Target enthalpy (eV/cell)    -5081.4913

outcoor: Relaxed atomic coordinates (Ang):                  
   -1.55250715    1.91912527    0.00000000   4       1  O
    2.91416460    0.32016207    0.00000000   4       2  O
    0.66626574    1.11157637    0.00000000   3       3  N
    1.11480000   -1.23160000    0.00000000   3       4  N
   -1.23165271   -0.48493732    0.00000000   2       5  C
   -0.80286857    0.92700978    0.00000000   2       6  C
   -0.28754326   -1.47335967    0.00000000   2       7  C
   -2.70325486   -0.82217389    0.00000000   2       8  C
    1.69740052    0.09816109    0.00000000   2       9  C
   -0.56612241   -2.52304087    0.00000000   1      10  H
    1.00655105    2.09282464    0.00000000   1      11  H
    1.75603669   -2.03419096    0.00000000   1      12  H
   -3.20642385   -0.41515734   -0.88890000   1      13  H
   -3.20708468   -0.41512323    0.88870000   1      14  H
   -2.85622400   -1.91194147    0.00000000   1      15  H

siesta: Program's energy decomposition (eV):
siesta: Ebs     =      -658.673282
siesta: Eions   =      6228.847481
siesta: Ena     =       980.455906
siesta: Ekin    =      1725.776495
siesta: Enl(+so)=      -890.522094
siesta: Eso(nil)=         0.000000
siesta: Edftu   =         0.000000
siesta: DEna    =       -36.047902
siesta: DUscf   =         5.238928
siesta: DUext   =         0.000000
siesta: Ex      =      -574.791967
siesta: Ec      =       -62.753224
siesta: Exc     =      -637.545191
siesta: EbV     =         0.000000
siesta: eta*DQ  =         0.000000
siesta: Emadel  =         0.000000
siesta: Emeta   =         0.000000
siesta: Emolmec =         0.000000
siesta: Ekinion =         0.000000
siesta: Eharris =     -5081.491338
siesta: Etot    =     -5081.491338
siesta: FreeEng =     -5081.491338

siesta: Final energy (eV):
siesta:  Band Struct. =    -658.673282
siesta:       Kinetic =    1725.776495
siesta:       Hartree =    3914.727632
siesta:         Edftu =       0.000000
siesta:      Eso(nil) =       0.000000
siesta:    Ext. field =       0.000000
siesta:         Exch. =    -574.791967
siesta:         Corr. =     -62.753224
siesta:     Bulk bias =       0.000000
siesta:   Exch.-corr. =    -637.545191
siesta:  Ion-electron =   -9393.840865
siesta:       Ion-ion =    -690.609409
siesta:       Ekinion =       0.000000
siesta: D3 dispersion =       0.000000
siesta:         Total =   -5081.491338
siesta:         Fermi =      -3.573167

siesta: Atomic forces (eV/Ang):
siesta:      1   -0.002736    0.005437    0.000030
siesta:      2   -0.001315    0.002028    0.000007
siesta:      3   -0.000462    0.000711   -0.000029
siesta:      4    0.021232   -0.016835   -0.000107
siesta:      5   -0.001571    0.005155    0.001510
siesta:      6    0.001281   -0.000069    0.000026
siesta:      7   -0.000265    0.001670    0.000124
siesta:      8   -0.000758    0.004210    0.003109
siesta:      9   -0.001169   -0.000633    0.000006
siesta:     10   -0.005710    0.005579   -0.002225
siesta:     11    0.007046   -0.002567    0.000268
siesta:     12   -0.005108   -0.003353   -0.000219
siesta:     13    0.000982    0.007794    0.239277
siesta:     14    0.001408    0.007409   -0.245118
siesta:     15   -0.002720    0.005748    0.003159
siesta: ----------------------------------------
siesta:    Tot    0.010135    0.022283   -0.000183

siesta: Stress tensor (static) (eV/Ang**3):
siesta:    -0.000005    0.000085   -0.000000
siesta:     0.000085    0.000166    0.000000
siesta:    -0.000000    0.000000    0.000431

siesta: Cell volume =       1289.927247 Ang**3

siesta: Pressure (static):
siesta:                Solid            Molecule  Units
siesta:          -0.00000215         -0.00000103  Ry/Bohr**3
siesta:          -0.00019742         -0.00009457  eV/Ang**3
siesta:          -0.31630299         -0.15151423  kBar
(Free)E+ p_basis*V_orbitals  =       -5076.233208
(Free)Eharris+ p_basis*V_orbitals  =       -5076.233208
     spin moment: {S} , |S| = {   -0.00000   -0.00000   -0.00000 }     0.00000

siesta: Electric dipole (a.u.)  =   -0.235936   -1.482357   -0.000029
siesta: Electric dipole (Debye) =   -0.599689   -3.767776   -0.000074

cite: Please see "Thymine.bib" for an exhaustive BiBTeX file.
cite: Please clearly indicate Siesta version in published work: 5.1-MaX-41-g6ad11e234
cite: This calculation has made use of the following articles
cite: which are encouraged to be cited in a published work.
        Primary SIESTA paper
          DOI: www.doi.org/10.1088/0953-8984/14/11/302
        Spin-orbit coupling (off-site approximation)
          DOI: www.doi.org/10.1088/0953-8984/24/8/086005
        ELPA library
          DOI: www.doi.org/10.1088/0953-8984/26/21/213201


>> End of run:   2-SEP-2024  13:33:37
Job completed
