Siesta Version  : v4.1.5-1-g384057250
Architecture    : gcc
Compiler version: GNU Fortran (Ubuntu 11.3.0-1ubuntu1~22.04) 11.3.0
Compiler flags  : mpifort -O2 -fPIC -ftree-vectorize -fallow-argument-mismatch
PP flags        : -DFC_HAVE_ABORT -DMPI -DSIESTA__FLOOK -DSIESTA__METIS -DSIESTA__MUMPS -DCDF -DNCDF -DNCDF_4 -DNCDF_PARALLEL -DSIESTA__MRRR -DSIESTA__ELPA
Libraries       : libncdf.a libfdict.a  -lflookall -ldl -lnetcdff -lnetcdf -lhdf5_hl -lhdf5 -lhdf5_fortran -lz -lscalapack-openmpi -lopenblas -lmetis -lzmumps -lcmumps -ldmumps -lmumps_common -lpord -lsmumps -lesmumps -lscotch -lscotcherr -fopenmp -lelpa
PARALLEL version
NetCDF support
NetCDF-4 support
NetCDF-4 MPI-IO support
METIS ordering support
Lua support

* Running on 4 nodes in parallel
>> Start of run:  28-JUN-2023  18:50:59

                           ***********************       
                           *  WELCOME TO SIESTA  *       
                           ***********************       

reinit: Reading from standard input
reinit: Dumped input in INPUT_TMP.16752
************************** Dump of input data file ****************************
SystemLabel      GC
NumberOfAtoms    29
NumberOfSpecies  4
%block ChemicalSpeciesLabel
    1    8  O
    2    7  N
    3   14  Si
    4    1  H
%endblock ChemicalSpeciesLabel
# Single point calculation
MD.TypeOfRun                CG
MD.Steps                    0
SCF.MustConverge            F # In case it does not. There can be 2 very close atoms
AtomicCoordinatesFormat NotScaledCartesianAng
%block AtomicCoordinatesAndAtomicSpecies
1.043624880    3.939228610    0.000000000       1
-3.040641290   1.071078170    0.000000000       2
2.054601450    1.213582070    0.000000000       2
0.999014100    -1.732643800   0.000000000       2
-2.132351640   -1.812968220   0.000000000       2
3.860190550    -1.112298180   0.000000000       2
-1.236183220   1.152964460    0.000000000       3
-0.532924260   -0.939006270   0.000000000       3
0.635660470    2.374516770    0.000000000       3
2.245170240    -0.549967100   0.000000000       3
-3.449816660   -0.583665030   0.000000000       3
2.963714090    1.790992630    0.000000000       4
-4.845591350   -1.123549660   0.000000000       4
4.007020910    -2.152308560   0.000000000       4
4.772194380    -0.502318160   0.000000000       4
-2.265399090   -2.864605110   0.000000000       4
5.352217295    5.182030731    0.000000000       3
7.257101265    6.388669671    0.000000000       3
6.761347125    2.415695761    0.000000000       3
8.838817415    4.884912921    0.000000000       3
5.411839965    3.464603161    0.000000000       2
3.813082235    5.935708041    0.000000000       2
8.413642385    3.145532981    0.000000000       2
7.448446065    7.880823421    0.000000000       4
10.323185395   5.103643741    0.000000000       4
3.701736955    6.984903151    0.000000000       4
2.880524525    5.310793861    0.000000000       4
6.751120295    0.807584641    0.000000000       1
9.189068265    2.418841421    0.000000000       4
%endblock AtomicCoordinatesAndAtomicSpecies
%include ../../../Defaults.fdf
************************** End of input data file *****************************

reinit: -----------------------------------------------------------------------
reinit: System Name: 
reinit: -----------------------------------------------------------------------
reinit: System Label: GC
reinit: -----------------------------------------------------------------------

initatom: Reading input for the pseudopotentials and atomic orbitals ----------
Species number:   1 Atomic number:    8 Label: O
Species number:   2 Atomic number:    7 Label: N
Species number:   3 Atomic number:   14 Label: Si
Species number:   4 Atomic number:    1 Label: H

Ground state valence configuration:   2s02  2p04
Reading pseudopotential information in formatted form from O.psf

Pseudopotential generated from a relativistic atomic calculation

Valence configuration for pseudopotential generation:
2s( 2.00) rc: 0.45
2p( 4.00) rc: 0.92
3d( 0.00) rc: 2.24
4f( 0.00) rc: 0.25
Ground state valence configuration:   2s02  2p03
Reading pseudopotential information in formatted form from N.psf

Pseudopotential generated from a relativistic atomic calculation

Valence configuration for pseudopotential generation:
2s( 2.00) rc: 0.94
2p( 3.00) rc: 0.59
3d( 0.00) rc: 3.46
4f( 0.00) rc: 2.47
Ground state valence configuration:   3s02  3p02
Reading pseudopotential information in formatted form from Si.psf

Pseudopotential generated from a relativistic atomic calculation

Valence configuration for pseudopotential generation:
3s( 2.00) rc: 1.67
3p( 2.00) rc: 2.04
3d( 0.00) rc: 2.89
4f( 0.00) rc: 2.49
Ground state valence configuration:   1s01
Reading pseudopotential information in formatted form from H.psf

Pseudopotential generated from a relativistic atomic calculation

Valence configuration for pseudopotential generation:
1s( 1.00) rc: 0.01
2p( 0.00) rc: 0.60
3d( 0.00) rc: 1.99
4f( 0.00) rc: 2.49
For O, standard SIESTA heuristics set lmxkb to 3
 (one more than the basis l, including polarization orbitals).
Use PS.lmax or PS.KBprojectors blocks to override.
For N, standard SIESTA heuristics set lmxkb to 3
 (one more than the basis l, including polarization orbitals).
Use PS.lmax or PS.KBprojectors blocks to override.
For Si, standard SIESTA heuristics set lmxkb to 3
 (one more than the basis l, including polarization orbitals).
Use PS.lmax or PS.KBprojectors blocks to override.
For H, standard SIESTA heuristics set lmxkb to 2
 (one more than the basis l, including polarization orbitals).
Use PS.lmax or PS.KBprojectors blocks to override.

<basis_specs>
===============================================================================
O                    Z=   8    Mass=  16.000        Charge= 0.17977+309
Lmxo=1 Lmxkb= 3    BasisType=split      Semic=F
L=0  Nsemic=0  Cnfigmx=2
          i=1  nzeta=2  polorb=0  (2s)
            splnorm:   0.28000    
               vcte:    0.0000    
               rinn:    0.0000    
               qcoe:    0.0000    
               qyuk:    0.0000    
               qwid:   0.10000E-01
                rcs:    0.0000      0.0000    
            lambdas:    1.0000      1.0000    
L=1  Nsemic=0  Cnfigmx=2
          i=1  nzeta=2  polorb=1  (2p)
            splnorm:   0.28000    
               vcte:    0.0000    
               rinn:    0.0000    
               qcoe:    0.0000    
               qyuk:    0.0000    
               qwid:   0.10000E-01
                rcs:    0.0000      0.0000    
            lambdas:    1.0000      1.0000    
-------------------------------------------------------------------------------
L=0  Nkbl=1  erefs: 0.17977+309
L=1  Nkbl=1  erefs: 0.17977+309
L=2  Nkbl=1  erefs: 0.17977+309
L=3  Nkbl=1  erefs: 0.17977+309
===============================================================================
</basis_specs>

atom: Called for O                     (Z =   8)

read_vps: Pseudopotential generation method:
read_vps: ATM4.2.7  Troullier-Martins                       
Valence charge for ps generation:    6.00000

xc_check: Exchange-correlation functional:
xc_check: GGA Perdew, Burke & Ernzerhof 1996
V l=0 = -2*Zval/r beyond r=  1.1000
V l=1 = -2*Zval/r beyond r=  1.1000
V l=2 = -2*Zval/r beyond r=  2.2154
V l=3 = -2*Zval/r beyond r=  1.1000
All V_l potentials equal beyond r=  2.2154
This should be close to max(r_c) in ps generation
All pots = -2*Zval/r beyond r=  2.2154

VLOCAL1: 99.0% of the norm of Vloc inside      8.845 Ry
VLOCAL1: 99.9% of the norm of Vloc inside     20.157 Ry
atom: Maximum radius for 4*pi*r*r*local-pseudopot. charge    2.67231
atom: Maximum radius for r*vlocal+2*Zval:    2.32897
GHOST: No ghost state for L =  0
GHOST: No ghost state for L =  1
GHOST: No ghost state for L =  2
GHOST: No ghost state for L =  3

KBgen: Kleinman-Bylander projectors: 
   l= 0   rc=  2.243238   el= -1.759686   Ekb=**********   kbcos= -0.171774
   l= 1   rc=  2.328968   el= -0.663873   Ekb=-14.506792   kbcos= -0.519897
   l= 2   rc=  2.573941   el=  0.002031   Ekb= -1.137373   kbcos= -0.019581
   l= 3   rc=  2.606321   el=  0.003153   Ekb= -1.013546   kbcos= -0.003122

KBgen: Total number of Kleinman-Bylander projectors:   16
atom: -------------------------------------------------------------------------

atom: SANKEY-TYPE ORBITALS:
atom: Selected multiple-zeta basis: split     

SPLIT: Orbitals with angular momentum L= 0

SPLIT: Basis orbitals for state 2s

SPLIT: PAO cut-off radius determined from an
SPLIT: energy shift=  0.002000 Ry

   izeta = 1
                 lambda =    1.000000
                     rc =    4.243912
                 energy =   -1.758270
                kinetic =    3.286084
    potential(screened) =   -5.044353
       potential(ionic) =  -12.921184

   izeta = 2
                 rmatch =    2.187845
              splitnorm =    0.280000
                 energy =   -0.885018
                kinetic =    8.134434
    potential(screened) =   -9.019452
       potential(ionic) =  -17.710645

SPLIT: Orbitals with angular momentum L= 1

SPLIT: Basis orbitals for state 2p

SPLIT: PAO cut-off radius determined from an
SPLIT: energy shift=  0.002000 Ry

   izeta = 1
                 lambda =    1.000000
                     rc =    5.314825
                 energy =   -0.661986
                kinetic =    4.917472
    potential(screened) =   -5.579458
       potential(ionic) =  -13.236259

   izeta = 2
                 rmatch =    2.160663
              splitnorm =    0.280000
                 energy =   -0.068760
                kinetic =    9.183374
    potential(screened) =   -9.252135
       potential(ionic) =  -18.274251

POLgen: Perturbative polarization orbital with L=  2

POLgen: Polarization orbital for state 2p

   izeta = 1
                     rc =    5.314825
                 energy =    1.970580
                kinetic =    3.886128
    potential(screened) =   -1.915547
       potential(ionic) =   -7.749584
atom: Total number of Sankey-type orbitals: 13

atm_pop: Valence configuration (for local Pseudopot. screening):
 2s( 2.00)                                                            
 2p( 4.00)                                                            
Vna: chval, zval:    6.00000   6.00000

Vna:  Cut-off radius for the neutral-atom potential:   5.314825

atom: _________________________________________________________________________

<basis_specs>
===============================================================================
N                    Z=   7    Mass=  14.010        Charge= 0.17977+309
Lmxo=1 Lmxkb= 3    BasisType=split      Semic=F
L=0  Nsemic=0  Cnfigmx=2
          i=1  nzeta=2  polorb=0  (2s)
            splnorm:   0.28000    
               vcte:    0.0000    
               rinn:    0.0000    
               qcoe:    0.0000    
               qyuk:    0.0000    
               qwid:   0.10000E-01
                rcs:    0.0000      0.0000    
            lambdas:    1.0000      1.0000    
L=1  Nsemic=0  Cnfigmx=2
          i=1  nzeta=2  polorb=1  (2p)
            splnorm:   0.28000    
               vcte:    0.0000    
               rinn:    0.0000    
               qcoe:    0.0000    
               qyuk:    0.0000    
               qwid:   0.10000E-01
                rcs:    0.0000      0.0000    
            lambdas:    1.0000      1.0000    
-------------------------------------------------------------------------------
L=0  Nkbl=1  erefs: 0.17977+309
L=1  Nkbl=1  erefs: 0.17977+309
L=2  Nkbl=1  erefs: 0.17977+309
L=3  Nkbl=1  erefs: 0.17977+309
===============================================================================
</basis_specs>

atom: Called for N                     (Z =   7)

read_vps: Pseudopotential generation method:
read_vps: ATM4.2.7  Troullier-Martins                       
Valence charge for ps generation:    5.00000

xc_check: Exchange-correlation functional:
xc_check: GGA Perdew, Burke & Ernzerhof 1996
V l=0 = -2*Zval/r beyond r=  1.2889
V l=1 = -2*Zval/r beyond r=  1.2889
V l=2 = -2*Zval/r beyond r=  3.4178
V l=3 = -2*Zval/r beyond r=  2.4084
All V_l potentials equal beyond r=  3.3753
This should be close to max(r_c) in ps generation
All pots = -2*Zval/r beyond r=  3.4178

VLOCAL1: 99.0% of the norm of Vloc inside      3.810 Ry
VLOCAL1: 99.9% of the norm of Vloc inside      8.683 Ry
atom: Maximum radius for 4*pi*r*r*local-pseudopot. charge    4.02088
atom: Maximum radius for r*vlocal+2*Zval:    3.54838
GHOST: No ghost state for L =  0
GHOST: No ghost state for L =  1
GHOST: No ghost state for L =  2
GHOST: No ghost state for L =  3

KBgen: Kleinman-Bylander projectors: 
   l= 0   rc=  3.417763   el= -1.365098   Ekb= -4.433130   kbcos= -0.707855
   l= 1   rc=  3.375302   el= -0.521201   Ekb=-13.264039   kbcos= -0.535594
   l= 2   rc=  3.872880   el=  0.001991   Ekb= -0.641094   kbcos= -0.062456
   l= 3   rc=  3.970931   el=  0.003093   Ekb= -0.474517   kbcos= -0.018236

KBgen: Total number of Kleinman-Bylander projectors:   16
atom: -------------------------------------------------------------------------

atom: SANKEY-TYPE ORBITALS:
atom: Selected multiple-zeta basis: split     

SPLIT: Orbitals with angular momentum L= 0

SPLIT: Basis orbitals for state 2s

SPLIT: PAO cut-off radius determined from an
SPLIT: energy shift=  0.002000 Ry

   izeta = 1
                 lambda =    1.000000
                     rc =    4.730425
                 energy =   -1.363399
                kinetic =    1.245246
    potential(screened) =   -2.608645
       potential(ionic) =   -8.121105

   izeta = 2
                 rmatch =    2.531849
              splitnorm =    0.280000
                 energy =   -0.959908
                kinetic =    2.409435
    potential(screened) =   -3.369343
       potential(ionic) =   -9.427975

SPLIT: Orbitals with angular momentum L= 1

SPLIT: Basis orbitals for state 2p

SPLIT: PAO cut-off radius determined from an
SPLIT: energy shift=  0.002000 Ry

   izeta = 1
                 lambda =    1.000000
                     rc =    5.924108
                 energy =   -0.519262
                kinetic =    3.672940
    potential(screened) =   -4.192202
       potential(ionic) =   -9.518354

   izeta = 2
                 rmatch =    2.531849
              splitnorm =    0.280000
                 energy =   -0.104258
                kinetic =    6.807538
    potential(screened) =   -6.911796
       potential(ionic) =  -13.149920

POLgen: Perturbative polarization orbital with L=  2

POLgen: Polarization orbital for state 2p

   izeta = 1
                     rc =    5.924108
                 energy =    1.427508
                kinetic =    2.872379
    potential(screened) =   -1.444871
       potential(ionic) =   -5.563644
atom: Total number of Sankey-type orbitals: 13

atm_pop: Valence configuration (for local Pseudopot. screening):
 2s( 2.00)                                                            
 2p( 3.00)                                                            
Vna: chval, zval:    5.00000   5.00000

Vna:  Cut-off radius for the neutral-atom potential:   5.924108

atom: _________________________________________________________________________

<basis_specs>
===============================================================================
Si                   Z=  14    Mass=  28.090        Charge= 0.17977+309
Lmxo=1 Lmxkb= 3    BasisType=split      Semic=F
L=0  Nsemic=0  Cnfigmx=3
          i=1  nzeta=2  polorb=0  (3s)
            splnorm:   0.28000    
               vcte:    0.0000    
               rinn:    0.0000    
               qcoe:    0.0000    
               qyuk:    0.0000    
               qwid:   0.10000E-01
                rcs:    0.0000      0.0000    
            lambdas:    1.0000      1.0000    
L=1  Nsemic=0  Cnfigmx=3
          i=1  nzeta=2  polorb=1  (3p)
            splnorm:   0.28000    
               vcte:    0.0000    
               rinn:    0.0000    
               qcoe:    0.0000    
               qyuk:    0.0000    
               qwid:   0.10000E-01
                rcs:    0.0000      0.0000    
            lambdas:    1.0000      1.0000    
-------------------------------------------------------------------------------
L=0  Nkbl=1  erefs: 0.17977+309
L=1  Nkbl=1  erefs: 0.17977+309
L=2  Nkbl=1  erefs: 0.17977+309
L=3  Nkbl=1  erefs: 0.17977+309
===============================================================================
</basis_specs>

atom: Called for Si                    (Z =  14)

read_vps: Pseudopotential generation method:
read_vps: ATM4.2.7  Troullier-Martins                       
Valence charge for ps generation:    4.00000

xc_check: Exchange-correlation functional:
xc_check: GGA Perdew, Burke & Ernzerhof 1996
V l=0 = -2*Zval/r beyond r=  2.7826
V l=1 = -2*Zval/r beyond r=  2.7826
V l=2 = -2*Zval/r beyond r=  2.9253
V l=3 = -2*Zval/r beyond r=  2.7826
All V_l potentials equal beyond r=  2.8530
This should be close to max(r_c) in ps generation
All pots = -2*Zval/r beyond r=  2.9253

VLOCAL1: 99.0% of the norm of Vloc inside      5.333 Ry
VLOCAL1: 99.9% of the norm of Vloc inside     12.154 Ry
atom: Maximum radius for 4*pi*r*r*local-pseudopot. charge    3.39869
atom: Maximum radius for r*vlocal+2*Zval:    2.96205
GHOST: No ghost state for L =  0
GHOST: No ghost state for L =  1
GHOST: No ghost state for L =  2
GHOST: No ghost state for L =  3

KBgen: Kleinman-Bylander projectors: 
   l= 0   rc=  3.075247   el= -0.794092   Ekb=  5.879390   kbcos=  0.167461
   l= 1   rc=  3.153101   el= -0.300068   Ekb=  2.642817   kbcos=  0.058301
   l= 2   rc=  3.273594   el=  0.001958   Ekb= -1.185135   kbcos= -0.104411
   l= 3   rc=  3.232927   el=  0.003046   Ekb= -0.497174   kbcos= -0.015889

KBgen: Total number of Kleinman-Bylander projectors:   16
atom: -------------------------------------------------------------------------

atom: SANKEY-TYPE ORBITALS:
atom: Selected multiple-zeta basis: split     

SPLIT: Orbitals with angular momentum L= 0

SPLIT: Basis orbitals for state 3s

SPLIT: PAO cut-off radius determined from an
SPLIT: energy shift=  0.002000 Ry

   izeta = 1
                 lambda =    1.000000
                     rc =    6.429618
                 energy =   -0.792283
                kinetic =    0.525293
    potential(screened) =   -1.317576
       potential(ionic) =   -3.744923

   izeta = 2
                 rmatch =    3.998416
              splitnorm =    0.280000
                 energy =   -0.583081
                kinetic =    1.069570
    potential(screened) =   -1.652651
       potential(ionic) =   -4.235185

SPLIT: Orbitals with angular momentum L= 1

SPLIT: Basis orbitals for state 3p

SPLIT: PAO cut-off radius determined from an
SPLIT: energy shift=  0.002000 Ry

   izeta = 1
                 lambda =    1.000000
                     rc =    8.464845
                 energy =   -0.298236
                kinetic =    0.785360
    potential(screened) =   -1.083596
       potential(ionic) =   -3.273779

   izeta = 2
                 rmatch =    4.587816
              splitnorm =    0.280000
                 energy =   -0.131871
                kinetic =    1.403687
    potential(screened) =   -1.535557
       potential(ionic) =   -4.015310

POLgen: Perturbative polarization orbital with L=  2

POLgen: Polarization orbital for state 3p

   izeta = 1
                     rc =    8.464845
                 energy =    0.321949
                kinetic =    1.055677
    potential(screened) =   -0.733728
       potential(ionic) =   -2.672950
atom: Total number of Sankey-type orbitals: 13

atm_pop: Valence configuration (for local Pseudopot. screening):
 3s( 2.00)                                                            
 3p( 2.00)                                                            
Vna: chval, zval:    4.00000   4.00000

Vna:  Cut-off radius for the neutral-atom potential:   8.464845

atom: _________________________________________________________________________

<basis_specs>
===============================================================================
H                    Z=   1    Mass=  1.0100        Charge= 0.17977+309
Lmxo=0 Lmxkb= 2    BasisType=split      Semic=F
L=0  Nsemic=0  Cnfigmx=1
          i=1  nzeta=2  polorb=1  (1s)
            splnorm:   0.62000    
               vcte:    0.0000    
               rinn:    0.0000    
               qcoe:    0.0000    
               qyuk:    0.0000    
               qwid:   0.10000E-01
                rcs:    0.0000      0.0000    
            lambdas:    1.0000      1.0000    
-------------------------------------------------------------------------------
L=0  Nkbl=1  erefs: 0.17977+309
L=1  Nkbl=1  erefs: 0.17977+309
L=2  Nkbl=1  erefs: 0.17977+309
===============================================================================
</basis_specs>

atom: Called for H                     (Z =   1)

read_vps: Pseudopotential generation method:
read_vps: ATM4.2.7  Troullier-Martins                       
Valence charge for ps generation:    1.00000

xc_check: Exchange-correlation functional:
xc_check: GGA Perdew, Burke & Ernzerhof 1996
V l=0 = -2*Zval/r beyond r=  0.0098
V l=1 = -2*Zval/r beyond r=  0.5817
V l=2 = -2*Zval/r beyond r=  1.9372
All V_l potentials equal beyond r=  1.9372
This should be close to max(r_c) in ps generation
All pots = -2*Zval/r beyond r=  1.9372

VLOCAL1: 99.0% of the norm of Vloc inside     11.567 Ry
VLOCAL1: 99.9% of the norm of Vloc inside     26.362 Ry
atom: Maximum radius for 4*pi*r*r*local-pseudopot. charge    2.25106
atom: Maximum radius for r*vlocal+2*Zval:    1.91306
GHOST: No ghost state for L =  0
GHOST: No ghost state for L =  1
GHOST: No ghost state for L =  2

KBgen: Kleinman-Bylander projectors: 
   l= 0   rc=  2.036604   el= -0.477180   Ekb= -6.081590   kbcos= -0.277285
   l= 1   rc=  2.195416   el=  0.001076   Ekb= -0.926943   kbcos= -0.034643
   l= 2   rc=  2.251056   el=  0.002010   Ekb= -0.130941   kbcos= -0.009788

KBgen: Total number of Kleinman-Bylander projectors:    9
atom: -------------------------------------------------------------------------

atom: SANKEY-TYPE ORBITALS:
atom: Selected multiple-zeta basis: split     

SPLIT: Orbitals with angular momentum L= 0

SPLIT: Basis orbitals for state 1s

SPLIT: PAO cut-off radius determined from an
SPLIT: energy shift=  0.002000 Ry

   izeta = 1
                 lambda =    1.000000
                     rc =    6.518340
                 energy =   -0.475305
                kinetic =    0.912139
    potential(screened) =   -1.387444
       potential(ionic) =   -1.907295

   izeta = 2
                 rmatch =    2.141150
              splitnorm =    0.620000
                 energy =    0.566467
                kinetic =    3.772856
    potential(screened) =   -3.206389
       potential(ionic) =   -3.759093

POLgen: Perturbative polarization orbital with L=  1

POLgen: Polarization orbital for state 1s

   izeta = 1
                     rc =    6.518340
                 energy =    0.533861
                kinetic =    1.121086
    potential(screened) =   -0.587225
       potential(ionic) =   -1.053027
atom: Total number of Sankey-type orbitals:  5

atm_pop: Valence configuration (for local Pseudopot. screening):
 1s( 1.00)                                                            
Vna: chval, zval:    1.00000   1.00000

Vna:  Cut-off radius for the neutral-atom potential:   6.518340

atom: _________________________________________________________________________

prinput: Basis input ----------------------------------------------------------

PAO.BasisType split     

%block ChemicalSpeciesLabel
    1    8 O                       # Species index, atomic number, species label
    2    7 N                       # Species index, atomic number, species label
    3   14 Si                      # Species index, atomic number, species label
    4    1 H                       # Species index, atomic number, species label
%endblock ChemicalSpeciesLabel

%block PAO.Basis                 # Define Basis set
O                     2                    # Species label, number of l-shells
 n=2   0   2                         # n, l, Nzeta 
   4.244      2.188   
   1.000      1.000   
 n=2   1   2 P   1                   # n, l, Nzeta, Polarization, NzetaPol
   5.315      2.161   
   1.000      1.000   
N                     2                    # Species label, number of l-shells
 n=2   0   2                         # n, l, Nzeta 
   4.730      2.532   
   1.000      1.000   
 n=2   1   2 P   1                   # n, l, Nzeta, Polarization, NzetaPol
   5.924      2.532   
   1.000      1.000   
Si                    2                    # Species label, number of l-shells
 n=3   0   2                         # n, l, Nzeta 
   6.430      3.998   
   1.000      1.000   
 n=3   1   2 P   1                   # n, l, Nzeta, Polarization, NzetaPol
   8.465      4.588   
   1.000      1.000   
H                     1                    # Species label, number of l-shells
 n=1   0   2 P   1                   # n, l, Nzeta, Polarization, NzetaPol
   6.518      2.141   
   1.000      1.000   
%endblock PAO.Basis

prinput: ----------------------------------------------------------------------

Dumping basis to NetCDF file O.ion.nc
Dumping basis to NetCDF file N.ion.nc
Dumping basis to NetCDF file Si.ion.nc
Dumping basis to NetCDF file H.ion.nc
coor:   Atomic-coordinates input format  =     Cartesian coordinates
coor:                                          (in Angstroms)

siesta: Atomic coordinates (Bohr) and species
siesta:      1.97217   7.44407   0.00000  1        1
siesta:     -5.74598   2.02405   0.00000  2        2
siesta:      3.88264   2.29334   0.00000  2        3
siesta:      1.88786  -3.27422   0.00000  2        4
siesta:     -4.02956  -3.42601   0.00000  2        5
siesta:      7.29471  -2.10194   0.00000  2        6
siesta:     -2.33605   2.17879   0.00000  3        7
siesta:     -1.00708  -1.77447   0.00000  3        8
siesta:      1.20122   4.48719   0.00000  3        9
siesta:      4.24276  -1.03929   0.00000  3       10
siesta:     -6.51921  -1.10297   0.00000  3       11
siesta:      5.60061   3.38449   0.00000  4       12
siesta:     -9.15684  -2.12320   0.00000  4       13
siesta:      7.57218  -4.06728   0.00000  4       14
siesta:      9.01814  -0.94924   0.00000  4       15
siesta:     -4.28099  -5.41332   0.00000  4       16
siesta:     10.11423   9.79262   0.00000  3       17
siesta:     13.71394  12.07284   0.00000  3       18
siesta:     12.77710   4.56501   0.00000  3       19
siesta:     16.70295   9.23115   0.00000  3       20
siesta:     10.22690   6.54715   0.00000  2       21
siesta:      7.20568  11.21687   0.00000  2       22
siesta:     15.89949   5.94420   0.00000  2       23
siesta:     14.07553  14.89260   0.00000  4       24
siesta:     19.50800   9.64449   0.00000  4       25
siesta:      6.99527  13.19956   0.00000  4       26
siesta:      5.44340  10.03595   0.00000  4       27
siesta:     12.75777   1.52611   0.00000  1       28
siesta:     17.36483   4.57095   0.00000  4       29

siesta: Automatic unit cell vectors (Ang):
siesta:   24.274237    0.000000    0.000000
siesta:    0.000000   19.408554    0.000000
siesta:    0.000000    0.000000    9.854683

siesta: System type = molecule  

initatomlists: Number of atoms, orbitals, and projectors:     29   297   394

siesta: ******************** Simulation parameters ****************************
siesta:
siesta: The following are some of the parameters of the simulation.
siesta: A complete list of the parameters used, including default values,
siesta: can be found in file out.fdf
siesta:
redata: Spin configuration                          = spin-orbit
redata: Number of spin components                   = 8
redata: Time-Reversal Symmetry                      = F
redata: Spin spiral                                 = F
############################################################
This spin-orbit implementation uses a local approximation.
From 4.2 and onwards the full non-local approximation is implemented
You are strongly advised to use >=4.2 versions!
############################################################
redata: Long output                                 =   F
redata: Number of Atomic Species                    =        4
redata: Charge density info will appear in .RHO file
redata: Write Mulliken Pop.                         = Atomic and Orbital charges
redata: Matel table size (NRTAB)                    =     1024
redata: Mesh Cutoff                                 =   340.0000 Ry
redata: Net charge of the system                    =     0.0000 |e|
redata: Min. number of SCF Iter                     =        1
redata: Max. number of SCF Iter                     =      200
redata: SCF mix quantity                            = Hamiltonian
redata: Mix DM or H after convergence               =   F
redata: Recompute H after scf cycle                 =   F
redata: Mix DM in first SCF step                    =   T
redata: Write Pulay info on disk                    =   F
redata: New DM Occupancy tolerance                  = 0.000000000001
redata: No kicks to SCF
redata: DM Mixing Weight for Kicks                  =     0.5000
redata: Require Harris convergence for SCF          =   F
redata: Harris energy tolerance for SCF             =     0.000100 eV
redata: Require DM convergence for SCF              =   T
redata: DM tolerance for SCF                        =     0.000008
redata: Require EDM convergence for SCF             =   F
redata: EDM tolerance for SCF                       =     0.001000 eV
redata: Require H convergence for SCF               =   T
redata: Hamiltonian tolerance for SCF               =     0.000001 eV
redata: Require (free) Energy convergence for SCF   =   F
redata: (free) Energy tolerance for SCF             =     0.000100 eV
redata: Using Saved Data (generic)                  =   F
redata: Use continuation files for DM               =   F
redata: Neglect nonoverlap interactions             =   F
redata: Method of Calculation                       = Diagonalization
redata: Electronic Temperature                      =   299.9978 K
redata: Fix the spin of the system                  =   F
redata: Dynamics option                             = Single-point calculation
mix.SCF: Pulay mixing                            = Pulay
mix.SCF:    Variant                              = stable
mix.SCF:    History steps                        = 6
mix.SCF:    Linear mixing weight                 =     0.250000
mix.SCF:    Mixing weight                        =     0.250000
mix.SCF:    SVD condition                        = 0.1000E-07
mix.SCF:    Restart steps                        = 24
mix.SCF:    Restart save steps                   = 3
mix.SCF: Spin-component mixing                   all
redata: Save all siesta data in one NC              =   F
redata: ***********************************************************************

%block SCF.Mixers
  Pulay
%endblock SCF.Mixers

%block SCF.Mixer.Pulay
  # Mixing method
  method pulay
  variant stable

  # Mixing options
  weight 0.2500
  weight.linear 0.2500
  history 6
  restart 24
  restart.save 3
%endblock SCF.Mixer.Pulay

DM_history_depth set to one: no extrapolation allowed by default for geometry relaxation
Size of DM history Fstack: 1
Total number of electrons:    98.000000
Total ionic charge:    98.000000

* ProcessorY, Blocksize:    2  24


* Orbital distribution balance (max,min):    81    72


Time-reversal symmetry not used.

siesta: k-grid: Number of k-points =     1
siesta: k-grid: Cutoff (effective) =     4.927 Ang
siesta: k-grid: Supercell and displacements
siesta: k-grid:    1   0   0      0.000
siesta: k-grid:    0   1   0      0.000
siesta: k-grid:    0   0   1      0.000

diag: Algorithm                                     = ELPA-1stage
diag: Parallel over k                               =   F
diag: Use parallel 2D distribution                  =   T
diag: Parallel block-size                           = 24
diag: Parallel distribution                         =     2 x     2
diag: Used triangular part                          = Lower
diag: Absolute tolerance                            =  0.100E-15
diag: Orthogonalization factor                      =  0.100E-05
diag: Memory factor                                 =  1.0000


ts: **************************************************************
ts: Save H and S matrices                           =    F
ts: Save DM and EDM matrices                        =    F
ts: Only save the overlap matrix S                  =    F
ts: **************************************************************

************************ Begin: TS CHECKS AND WARNINGS ************************
************************ End: TS CHECKS AND WARNINGS **************************


                     ====================================
                        Single-point calculation
                     ====================================

outcoor: Atomic coordinates (Ang):                          
    1.04362488    3.93922861    0.00000000   1       1  O
   -3.04064129    1.07107817    0.00000000   2       2  N
    2.05460145    1.21358207    0.00000000   2       3  N
    0.99901410   -1.73264380    0.00000000   2       4  N
   -2.13235164   -1.81296822    0.00000000   2       5  N
    3.86019055   -1.11229818    0.00000000   2       6  N
   -1.23618322    1.15296446    0.00000000   3       7  Si
   -0.53292426   -0.93900627    0.00000000   3       8  Si
    0.63566047    2.37451677    0.00000000   3       9  Si
    2.24517024   -0.54996710    0.00000000   3      10  Si
   -3.44981666   -0.58366503    0.00000000   3      11  Si
    2.96371409    1.79099263    0.00000000   4      12  H
   -4.84559135   -1.12354966    0.00000000   4      13  H
    4.00702091   -2.15230856    0.00000000   4      14  H
    4.77219438   -0.50231816    0.00000000   4      15  H
   -2.26539909   -2.86460511    0.00000000   4      16  H
    5.35221729    5.18203073    0.00000000   3      17  Si
    7.25710127    6.38866967    0.00000000   3      18  Si
    6.76134713    2.41569576    0.00000000   3      19  Si
    8.83881741    4.88491292    0.00000000   3      20  Si
    5.41183997    3.46460316    0.00000000   2      21  N
    3.81308223    5.93570804    0.00000000   2      22  N
    8.41364238    3.14553298    0.00000000   2      23  N
    7.44844606    7.88082342    0.00000000   4      24  H
   10.32318539    5.10364374    0.00000000   4      25  H
    3.70173695    6.98490315    0.00000000   4      26  H
    2.88052452    5.31079386    0.00000000   4      27  H
    6.75112029    0.80758464    0.00000000   1      28  O
    9.18906826    2.41884142    0.00000000   4      29  H

outcell: Unit cell vectors (Ang):
       24.274237    0.000000    0.000000
        0.000000   19.408554    0.000000
        0.000000    0.000000    9.854683

outcell: Cell vector modules (Ang)   :   24.274237   19.408554    9.854683
outcell: Cell angles (23,13,12) (deg):     90.0000     90.0000     90.0000
outcell: Cell volume (Ang**3)        :   4642.8157
<dSpData1D:S at geom step 0
  <sparsity:sparsity for geom step 0
    nrows_g=297 nrows=81 sparsity=.2142 nnzs=18891, refcount: 8>
  <dData1D:(new from dSpData1D) n=18891, refcount: 1>
refcount: 1>
new_DM -- step:     1
Initializing Density Matrix...
DM filled with atomic data:
<dSpData2D:DM initialized from atoms
  <sparsity:sparsity for geom step 0
    nrows_g=297 nrows=81 sparsity=.2142 nnzs=18891, refcount: 9>
  <dData2D:DM n=18891 m=8, refcount: 1>
refcount: 1>
     spin moment: S , {S} =   56.00000   0.00000   0.00000  56.00000
No. of atoms with KB's overlaping orbs in proc 0. Max # of overlaps:      29     189

Initializing spin-orbit part of the Hamiltonian
  Adding spin-orbit effects for O 
  Adding spin-orbit effects for N 
  Adding spin-orbit effects for Si
  Adding spin-orbit effects for H 


New grid distribution:   1
           1       1:  135    1:   54    1:   30
           2       1:  135    1:   54   31:   60
           3       1:  135   55:  108    1:   30
           4       1:  135   55:  108   31:   60

InitMesh: MESH =   270 x   216 x   120 =     6998400
InitMesh: (bp) =   135 x   108 x    60 =      874800
InitMesh: Mesh cutoff (required, used) =   340.000   341.931 Ry
ExtMesh (bp) on 0 =   235 x   154 x   142 =     5138980
New grid distribution:   2
           1      36:  135    1:   26    1:   60
           2       1:   35    1:   24    1:   60
           3      36:  135   27:  108    1:   60
           4       1:   35   25:  108    1:   60
New grid distribution:   3
           1      45:  135    1:   32    1:   60
           2       1:   44    1:   36    1:   60
           3      45:  135   33:  108    1:   60
           4       1:   44   37:  108    1:   60
Setting up quadratic distribution...
ExtMesh (bp) on 0 =   200 x   126 x   172 =     4334400
PhiOnMesh: Number of (b)points on node 0 =               156000
PhiOnMesh: nlist on node 0 =              2470586

stepf: Fermi-Dirac step function

siesta: Program's energy decomposition (eV):
siesta: Ebs     =      -615.137969
siesta: Eions   =      3585.165840
siesta: Ena     =       381.912487
siesta: Ekin    =      3363.966864
siesta: Enl     =     -3293.313177
siesta: Eso     =        -0.003428
siesta: Edftu   =         0.000000
siesta: DEna    =       153.365224
siesta: DUscf   =        79.191081
siesta: DUext   =         0.000000
siesta: Exc     =     -1203.040626
siesta: eta*DQ  =         0.000000
siesta: Emadel  =         0.000000
siesta: Emeta   =         0.000000
siesta: Emolmec =         0.000000
siesta: Ekinion =         0.000000
siesta: Eharris =     -4027.645060
siesta: Etot    =     -4103.087415
siesta: FreeEng =     -4103.088804

        iscf     Eharris(eV)        E_KS(eV)     FreeEng(eV)     dDmax    Ef(eV) dHmax(eV)
   scf:    1    -4027.645060    -4103.087415    -4103.088804  0.960313 -4.905452 21.018285
     spin moment: S , {S} =    2.00715  -0.00000   0.00000   2.00715
timer: Routine,Calls,Time,% = IterSCF        1      13.445  18.15
   scf:    2    -4149.550884    -4137.906366    -4137.907995  0.459883 -4.206255 11.453001
     spin moment: S , {S} =    1.99033  -0.00000  -0.00000   1.99033
   scf:    3    -4111.079627    -4135.253978    -4135.270744  0.427524 -4.278758 11.455075
     spin moment: S , {S} =    2.00017   0.00000  -0.00000   2.00017
   scf:    4    -4150.807615    -4146.078404    -4146.078404  0.309102 -3.896247  6.330099
     spin moment: S , {S} =    0.00009   0.00000  -0.00000   0.00009
   scf:    5    -4147.243919    -4146.752949    -4146.752949  0.036421 -3.698066  4.394211
     spin moment: S , {S} =    0.00006   0.00000   0.00000   0.00006
   scf:    6    -4147.509169    -4147.136267    -4147.136267  0.024847 -3.608073  2.133222
     spin moment: S , {S} =    0.00003  -0.00000  -0.00000   0.00003
   scf:    7    -4147.482457    -4147.307104    -4147.307104  0.021256 -3.636302  0.877581
     spin moment: S , {S} =    0.00001  -0.00000  -0.00000   0.00001
   scf:    8    -4147.426025    -4147.364784    -4147.364784  0.012372 -3.739234  0.483131
     spin moment: S , {S} =    0.00000  -0.00000  -0.00000   0.00000
   scf:    9    -4147.403825    -4147.383659    -4147.383659  0.006759 -3.769388  0.339437
     spin moment: S , {S} =    0.00000  -0.00000  -0.00000   0.00000
   scf:   10    -4147.433637    -4147.404087    -4147.404087  0.018920 -3.800294  0.166026
     spin moment: S , {S} =    0.00000  -0.00000   0.00000  -0.00000
   scf:   11    -4147.407015    -4147.405505    -4147.405505  0.004892 -3.792060  0.047331
     spin moment: S , {S} =    0.00000   0.00000  -0.00000  -0.00000
   scf:   12    -4147.406244    -4147.405882    -4147.405882  0.001561 -3.787797  0.027338
     spin moment: S , {S} =    0.00000  -0.00000  -0.00000   0.00000
   scf:   13    -4147.406299    -4147.406082    -4147.406082  0.001624 -3.785937  0.020612
     spin moment: S , {S} =    0.00000  -0.00000  -0.00000   0.00000
   scf:   14    -4147.406373    -4147.406217    -4147.406217  0.001613 -3.785387  0.015808
     spin moment: S , {S} =    0.00000  -0.00000  -0.00000   0.00000
   scf:   15    -4147.406432    -4147.406312    -4147.406312  0.001708 -3.784568  0.010690
     spin moment: S , {S} =    0.00000  -0.00000  -0.00000   0.00000
   scf:   16    -4147.406451    -4147.406368    -4147.406368  0.001779 -3.785029  0.005277
     spin moment: S , {S} =    0.00000  -0.00000  -0.00000   0.00000
   scf:   17    -4147.406396    -4147.406379    -4147.406379  0.000811 -3.785109  0.002962
     spin moment: S , {S} =    0.00000  -0.00000  -0.00000   0.00000
   scf:   18    -4147.406386    -4147.406382    -4147.406382  0.000404 -3.785187  0.001260
     spin moment: S , {S} =    0.00000  -0.00000  -0.00000   0.00000
   scf:   19    -4147.406384    -4147.406383    -4147.406383  0.000163 -3.785201  0.000669
     spin moment: S , {S} =    0.00000  -0.00000  -0.00000   0.00000
   scf:   20    -4147.406383    -4147.406383    -4147.406383  0.000049 -3.785189  0.000395
     spin moment: S , {S} =    0.00000  -0.00000  -0.00000   0.00000
   scf:   21    -4147.406383    -4147.406383    -4147.406383  0.000055 -3.785181  0.000180
     spin moment: S , {S} =    0.00000   0.00000  -0.00000   0.00000
   scf:   22    -4147.406383    -4147.406383    -4147.406383  0.000011 -3.785169  0.000068
     spin moment: S , {S} =    0.00000   0.00000  -0.00000  -0.00000
   scf:   23    -4147.406383    -4147.406383    -4147.406383  0.000005 -3.785171  0.000058
     spin moment: S , {S} =    0.00000  -0.00000  -0.00000  -0.00000
   scf:   24    -4147.406383    -4147.406383    -4147.406383  0.000002 -3.785170  0.000054
     spin moment: S , {S} =    0.00000  -0.00000  -0.00000  -0.00000
mix: Pulay -- resetting history
   scf:   25    -4147.406383    -4147.406383    -4147.406383  0.000006 -3.785168  0.000030
     spin moment: S , {S} =    0.00000  -0.00000  -0.00000  -0.00000
   scf:   26    -4147.406383    -4147.406383    -4147.406383  0.000004 -3.785165  0.000012
     spin moment: S , {S} =    0.00000  -0.00000  -0.00000  -0.00000
   scf:   27    -4147.406383    -4147.406383    -4147.406383  0.000003 -3.785163  0.000005
     spin moment: S , {S} =    0.00000  -0.00000  -0.00000   0.00000
   scf:   28    -4147.406383    -4147.406383    -4147.406383  0.000000 -3.785163  0.000003
     spin moment: S , {S} =    0.00000  -0.00000  -0.00000   0.00000
   scf:   29    -4147.406383    -4147.406383    -4147.406383  0.000000 -3.785162  0.000002
     spin moment: S , {S} =    0.00000  -0.00000  -0.00000   0.00000
   scf:   30    -4147.406383    -4147.406383    -4147.406383  0.000000 -3.785162  0.000001
     spin moment: S , {S} =    0.00000  -0.00000  -0.00000   0.00000

SCF Convergence by DM+H criterion
max |DM_out - DM_in|         :     0.0000001312
max |H_out - H_in|      (eV) :     0.0000007994
SCF cycle converged after 30 iterations

Using DM_out to compute the final energy and forces
No. of atoms with KB's overlaping orbs in proc 0. Max # of overlaps:      29     189

siesta: E_KS(eV) =            -4147.4064

siesta: E_KS - E_eggbox =     -4147.4064
     spin moment: S , {S} =    0.00000  -0.00000  -0.00000   0.00000

siesta: Atomic forces (eV/Ang):
     1    2.171121    3.066872   -0.000000
     2   -0.007707    0.025002   -0.000000
     3    0.499561   -0.168930   -0.000000
     4    0.445065   -0.013418    0.000000
     5    0.031265   -0.053471    0.000000
     6    1.416224    0.625339    0.000000
     7    0.026256   -0.156884   -0.000000
     8   -0.237255    0.173287    0.000000
     9   -0.054945    0.780019    0.000000
    10   -0.557335    0.262502   -0.000000
    11   -0.014258   -0.013146   -0.000000
    12   -0.104513   -0.053682    0.000000
    13    0.001703    0.000681    0.000000
    14    0.178885   -0.089217   -0.000000
    15   -0.865997   -0.579884    0.000000
    16    0.045276    0.078506   -0.000000
    17    0.564112   -0.727086    0.000000
    18   -0.133609    0.125212   -0.000000
    19   -0.163364   -0.702627   -0.000000
    20   -0.020211   -0.252371    0.000000
    21   -0.183498    0.579643   -0.000000
    22   -1.771775   -0.882448    0.000000
    23    0.145922    0.289879    0.000000
    24    0.132183    0.009861    0.000000
    25    0.144681    0.058125   -0.000000
    26   -0.247160   -0.109806    0.000000
    27    1.052352    0.845428   -0.000000
    28   -2.103686    0.906969   -0.000000
    29   -0.142876    0.156374    0.000000
----------------------------------------
   Tot    0.246418    4.180727    0.000000
----------------------------------------
   Max    3.066872
   Res    0.609656    sqrt( Sum f_i^2 / 3N )
----------------------------------------
   Max    3.066872    constrained

Stress tensor Voigt[x,y,z,yz,xz,xy] (kbar):        0.72        1.59       -0.12       -0.00       -0.00        1.63
(Free)E + p*V (eV/cell)    -4149.5246
Target enthalpy (eV/cell)    -4147.4064

mulliken: Atomic and Orbital Populations:

Species: O                   

Atom      Orb        Charge      Spin       Svec
----------------------------------------------------------------
    1  1 2s         1.75162   0.00000     -0.000   0.000  -0.000
    1  2 2s         0.05911   0.00000      0.000  -0.000  -0.000
    1  3 2py        1.42521   0.00000     -0.000  -0.000  -0.000
    1  4 2pz        1.57809   0.00000     -0.000  -0.000  -0.000
    1  5 2px        1.63598   0.00000      0.000   0.000  -0.000
    1  6 2py        0.04390   0.00000      0.000   0.000   0.000
    1  7 2pz       -0.01259   0.00000      0.000   0.000  -0.000
    1  8 2px       -0.00025   0.00000      0.000  -0.000  -0.000
    1  9 3Pdxy      0.00639   0.00000      0.000  -0.000   0.000
    1 10 3Pdyz      0.00829   0.00000     -0.000  -0.000   0.000
    1 11 3Pdz2      0.00136   0.00000      0.000   0.000   0.000
    1 12 3Pdxz      0.00023   0.00000      0.000   0.000   0.000
    1 13 3Pdx2-y2   0.00639   0.00000     -0.000   0.000   0.000
    1     Total     6.50372   0.00000      0.000  -0.000  -0.000

   28  1 2s         1.74711   0.00000      0.000   0.000   0.000
   28  2 2s         0.06438   0.00000     -0.000  -0.000  -0.000
   28  3 2py        1.40638   0.00000     -0.000  -0.000  -0.000
   28  4 2pz        1.57267   0.00000      0.000  -0.000  -0.000
   28  5 2px        1.65134   0.00000      0.000  -0.000  -0.000
   28  6 2py        0.04716   0.00000      0.000   0.000   0.000
   28  7 2pz       -0.00908   0.00000     -0.000   0.000  -0.000
   28  8 2px        0.00289   0.00000      0.000  -0.000  -0.000
   28  9 3Pdxy      0.00620   0.00000      0.000  -0.000   0.000
   28 10 3Pdyz      0.00917   0.00000     -0.000   0.000   0.000
   28 11 3Pdz2      0.00109   0.00000      0.000  -0.000  -0.000
   28 12 3Pdxz     -0.00017   0.00000     -0.000  -0.000   0.000
   28 13 3Pdx2-y2   0.00741   0.00000      0.000   0.000  -0.000
   28     Total     6.50654   0.00000      0.000  -0.000  -0.000

----------------------------------------------------------------
Total              13.01026   0.00000      0.000  -0.000  -0.000


Species: N                   

Atom      Orb        Charge      Spin       Svec
----------------------------------------------------------------
    2  1 2s         1.54950   0.00000      0.000  -0.000  -0.000
    2  2 2s         0.08475   0.00000     -0.000   0.000  -0.000
    2  3 2py        1.04403   0.00000     -0.000   0.000  -0.000
    2  4 2pz        1.22463   0.00000     -0.000  -0.000  -0.000
    2  5 2px        0.99209   0.00000     -0.000  -0.000  -0.000
    2  6 2py        0.18812   0.00000      0.000  -0.000   0.000
    2  7 2pz        0.05525   0.00000      0.000   0.000   0.000
    2  8 2px        0.19548   0.00000      0.000  -0.000   0.000
    2  9 3Pdxy      0.00836   0.00000      0.000  -0.000   0.000
    2 10 3Pdyz      0.01096   0.00000      0.000  -0.000   0.000
    2 11 3Pdz2      0.00192   0.00000     -0.000   0.000   0.000
    2 12 3Pdxz      0.00759   0.00000      0.000  -0.000   0.000
    2 13 3Pdx2-y2   0.00906   0.00000      0.000  -0.000  -0.000
    2     Total     5.37174   0.00000     -0.000   0.000  -0.000

    3  1 2s         1.38991   0.00000      0.000  -0.000  -0.000
    3  2 2s         0.12123   0.00000     -0.000   0.000   0.000
    3  3 2py        0.93978   0.00000      0.000   0.000  -0.000
    3  4 2pz        1.54396   0.00000     -0.000  -0.000  -0.000
    3  5 2px        1.08325   0.00000     -0.000  -0.000  -0.000
    3  6 2py        0.25076   0.00000     -0.000  -0.000   0.000
    3  7 2pz        0.00566   0.00000      0.000  -0.000  -0.000
    3  8 2px        0.17989   0.00000      0.000   0.000   0.000
    3  9 3Pdxy      0.00388   0.00000     -0.000   0.000   0.000
    3 10 3Pdyz      0.00400   0.00000     -0.000  -0.000   0.000
    3 11 3Pdz2      0.00066   0.00000     -0.000  -0.000   0.000
    3 12 3Pdxz      0.00271   0.00000      0.000  -0.000  -0.000
    3 13 3Pdx2-y2   0.00259   0.00000     -0.000   0.000  -0.000
    3     Total     5.52830   0.00000      0.000  -0.000  -0.000

    4  1 2s         1.46099   0.00000     -0.000   0.000  -0.000
    4  2 2s         0.11877   0.00000     -0.000  -0.000   0.000
    4  3 2py        1.12860   0.00000     -0.000   0.000  -0.000
    4  4 2pz        1.29470   0.00000      0.000   0.000  -0.000
    4  5 2px        0.82637   0.00000     -0.000  -0.000  -0.000
    4  6 2py        0.15009   0.00000      0.000  -0.000   0.000
    4  7 2pz        0.05312   0.00000     -0.000   0.000   0.000
    4  8 2px        0.29256   0.00000      0.000   0.000   0.000
    4  9 3Pdxy      0.00872   0.00000      0.000  -0.000  -0.000
    4 10 3Pdyz      0.01045   0.00000     -0.000  -0.000  -0.000
    4 11 3Pdz2      0.00125   0.00000     -0.000  -0.000   0.000
    4 12 3Pdxz      0.00484   0.00000      0.000   0.000   0.000
    4 13 3Pdx2-y2   0.00799   0.00000      0.000  -0.000   0.000
    4     Total     5.35846   0.00000     -0.000   0.000  -0.000

    5  1 2s         1.37587   0.00000      0.000   0.000  -0.000
    5  2 2s         0.12818   0.00000     -0.000  -0.000   0.000
    5  3 2py        1.02602   0.00000     -0.000  -0.000  -0.000
    5  4 2pz        1.50106   0.00000      0.000   0.000  -0.000
    5  5 2px        1.05995   0.00000     -0.000  -0.000  -0.000
    5  6 2py        0.20379   0.00000      0.000   0.000   0.000
    5  7 2pz        0.01338   0.00000     -0.000  -0.000   0.000
    5  8 2px        0.20126   0.00000      0.000  -0.000   0.000
    5  9 3Pdxy      0.00390   0.00000      0.000  -0.000  -0.000
    5 10 3Pdyz      0.00243   0.00000     -0.000  -0.000   0.000
    5 11 3Pdz2      0.00143   0.00000      0.000   0.000   0.000
    5 12 3Pdxz      0.00672   0.00000     -0.000  -0.000   0.000
    5 13 3Pdx2-y2   0.00560   0.00000      0.000   0.000   0.000
    5     Total     5.52958   0.00000     -0.000   0.000  -0.000

    6  1 2s         1.26386   0.00000     -0.000  -0.000  -0.000
    6  2 2s         0.18202   0.00000      0.000   0.000   0.000
    6  3 2py        1.07616   0.00000     -0.000   0.000   0.000
    6  4 2pz        1.55237   0.00000      0.000  -0.000  -0.000
    6  5 2px        0.96987   0.00000     -0.000  -0.000  -0.000
    6  6 2py        0.19023   0.00000      0.000  -0.000   0.000
    6  7 2pz        0.03121   0.00000     -0.000   0.000  -0.000
    6  8 2px        0.25403   0.00000      0.000  -0.000   0.000
    6  9 3Pdxy      0.00223   0.00000     -0.000   0.000  -0.000
    6 10 3Pdyz      0.00009   0.00000      0.000   0.000  -0.000
    6 11 3Pdz2      0.00160   0.00000      0.000   0.000   0.000
    6 12 3Pdxz      0.00349   0.00000      0.000  -0.000  -0.000
    6 13 3Pdx2-y2   0.00410   0.00000      0.000  -0.000  -0.000
    6     Total     5.53126   0.00000     -0.000  -0.000  -0.000

   21  1 2s         1.41702   0.00000     -0.000  -0.000   0.000
   21  2 2s         0.13017   0.00000      0.000   0.000  -0.000
   21  3 2py        0.87586   0.00000     -0.000  -0.000  -0.000
   21  4 2pz        1.30689   0.00000     -0.000  -0.000   0.000
   21  5 2px        1.16635   0.00000      0.000  -0.000  -0.000
   21  6 2py        0.27484   0.00000     -0.000   0.000   0.000
   21  7 2pz        0.04660   0.00000      0.000  -0.000   0.000
   21  8 2px        0.15806   0.00000     -0.000  -0.000   0.000
   21  9 3Pdxy      0.00618   0.00000     -0.000  -0.000   0.000
   21 10 3Pdyz      0.00474   0.00000     -0.000   0.000  -0.000
   21 11 3Pdz2      0.00003   0.00000      0.000  -0.000  -0.000
   21 12 3Pdxz      0.00581   0.00000      0.000  -0.000  -0.000
   21 13 3Pdx2-y2   0.00575   0.00000     -0.000   0.000  -0.000
   21     Total     5.39830   0.00000     -0.000  -0.000   0.000

   22  1 2s         1.28651   0.00000      0.000  -0.000   0.000
   22  2 2s         0.17207   0.00000     -0.000   0.000  -0.000
   22  3 2py        1.06030   0.00000      0.000   0.000   0.000
   22  4 2pz        1.52752   0.00000      0.000   0.000  -0.000
   22  5 2px        1.00276   0.00000      0.000   0.000  -0.000
   22  6 2py        0.19733   0.00000      0.000  -0.000   0.000
   22  7 2pz        0.02994   0.00000     -0.000  -0.000  -0.000
   22  8 2px        0.23238   0.00000     -0.000  -0.000   0.000
   22  9 3Pdxy      0.00319   0.00000     -0.000  -0.000  -0.000
   22 10 3Pdyz      0.00027   0.00000      0.000  -0.000   0.000
   22 11 3Pdz2      0.00239   0.00000     -0.000   0.000   0.000
   22 12 3Pdxz      0.00352   0.00000     -0.000   0.000  -0.000
   22 13 3Pdx2-y2   0.00471   0.00000     -0.000   0.000  -0.000
   22     Total     5.52290   0.00000      0.000   0.000  -0.000

   23  1 2s         1.38557   0.00000     -0.000  -0.000   0.000
   23  2 2s         0.12358   0.00000      0.000   0.000  -0.000
   23  3 2py        1.00750   0.00000     -0.000   0.000  -0.000
   23  4 2pz        1.53151   0.00000      0.000  -0.000  -0.000
   23  5 2px        1.05953   0.00000     -0.000   0.000  -0.000
   23  6 2py        0.21273   0.00000     -0.000  -0.000   0.000
   23  7 2pz        0.00451   0.00000     -0.000   0.000  -0.000
   23  8 2px        0.19926   0.00000      0.000  -0.000   0.000
   23  9 3Pdxy      0.00532   0.00000      0.000   0.000   0.000
   23 10 3Pdyz      0.00448   0.00000     -0.000  -0.000  -0.000
   23 11 3Pdz2      0.00076   0.00000     -0.000   0.000  -0.000
   23 12 3Pdxz      0.00244   0.00000      0.000   0.000  -0.000
   23 13 3Pdx2-y2   0.00142   0.00000     -0.000   0.000  -0.000
   23     Total     5.53862   0.00000     -0.000  -0.000  -0.000

----------------------------------------------------------------
Total              56.78942   0.00000      0.000  -0.000  -0.000


Species: Si                  

Atom      Orb        Charge      Spin       Svec
----------------------------------------------------------------
    7  1 3s         0.66625   0.00000      0.000   0.000   0.000
    7  2 3s         0.36517   0.00000     -0.000  -0.000   0.000
    7  3 3py        0.47541   0.00000      0.000   0.000   0.000
    7  4 3pz        0.69720   0.00000     -0.000   0.000  -0.000
    7  5 3px        0.12159   0.00000     -0.000  -0.000   0.000
    7  6 3py        0.27267   0.00000     -0.000  -0.000  -0.000
    7  7 3pz        0.25999   0.00000      0.000   0.000   0.000
    7  8 3px        0.44002   0.00000     -0.000   0.000   0.000
    7  9 3Pdxy      0.24569   0.00000     -0.000  -0.000   0.000
    7 10 3Pdyz      0.02880   0.00000      0.000   0.000   0.000
    7 11 3Pdz2      0.01148   0.00000      0.000  -0.000   0.000
    7 12 3Pdxz      0.14591   0.00000     -0.000   0.000  -0.000
    7 13 3Pdx2-y2   0.11325   0.00000     -0.000  -0.000   0.000
    7     Total     3.84343   0.00000      0.000   0.000   0.000

    8  1 3s         0.65549   0.00000      0.000   0.000   0.000
    8  2 3s         0.36863   0.00000     -0.000  -0.000   0.000
    8  3 3py        0.39046   0.00000     -0.000  -0.000   0.000
    8  4 3pz        0.51408   0.00000     -0.000   0.000   0.000
    8  5 3px       -0.02703   0.00000      0.000   0.000   0.000
    8  6 3py        0.30759   0.00000      0.000   0.000   0.000
    8  7 3pz        0.20390   0.00000     -0.000  -0.000   0.000
    8  8 3px        0.51477   0.00000     -0.000  -0.000   0.000
    8  9 3Pdxy      0.24751   0.00000      0.000  -0.000   0.000
    8 10 3Pdyz      0.11231   0.00000      0.000   0.000  -0.000
    8 11 3Pdz2      0.01399   0.00000     -0.000   0.000   0.000
    8 12 3Pdxz      0.15523   0.00000     -0.000   0.000   0.000
    8 13 3Pdx2-y2   0.20141   0.00000     -0.000  -0.000   0.000
    8     Total     3.65831   0.00000      0.000   0.000   0.000

    9  1 3s         0.60099   0.00000      0.000   0.000   0.000
    9  2 3s         0.36938   0.00000     -0.000  -0.000   0.000
    9  3 3py        0.09245   0.00000     -0.000  -0.000   0.000
    9  4 3pz        0.48157   0.00000      0.000  -0.000  -0.000
    9  5 3px        0.36902   0.00000     -0.000  -0.000   0.000
    9  6 3py        0.42962   0.00000      0.000  -0.000   0.000
    9  7 3pz        0.18731   0.00000     -0.000  -0.000  -0.000
    9  8 3px        0.27924   0.00000      0.000   0.000   0.000
    9  9 3Pdxy      0.30029   0.00000      0.000   0.000   0.000
    9 10 3Pdyz      0.19100   0.00000      0.000   0.000  -0.000
    9 11 3Pdz2      0.01411   0.00000     -0.000  -0.000   0.000
    9 12 3Pdxz      0.10239   0.00000      0.000   0.000  -0.000
    9 13 3Pdx2-y2   0.17569   0.00000     -0.000  -0.000   0.000
    9     Total     3.59304   0.00000     -0.000  -0.000   0.000

   10  1 3s         0.47984   0.00000     -0.000  -0.000   0.000
   10  2 3s         0.37894   0.00000      0.000   0.000   0.000
   10  3 3py        0.23852   0.00000     -0.000   0.000   0.000
   10  4 3pz        0.40851   0.00000     -0.000   0.000   0.000
   10  5 3px        0.10051   0.00000     -0.000   0.000   0.000
   10  6 3py        0.32646   0.00000     -0.000  -0.000   0.000
   10  7 3pz        0.22199   0.00000      0.000  -0.000   0.000
   10  8 3px        0.43431   0.00000      0.000  -0.000   0.000
   10  9 3Pdxy      0.17105   0.00000     -0.000   0.000   0.000
   10 10 3Pdyz      0.13589   0.00000     -0.000   0.000   0.000
   10 11 3Pdz2      0.00990   0.00000     -0.000  -0.000   0.000
   10 12 3Pdxz      0.17765   0.00000      0.000  -0.000   0.000
   10 13 3Pdx2-y2   0.30894   0.00000      0.000   0.000   0.000
   10     Total     3.39251   0.00000     -0.000  -0.000   0.000

   11  1 3s         0.55323   0.00000      0.000   0.000   0.000
   11  2 3s         0.38507   0.00000     -0.000  -0.000  -0.000
   11  3 3py        0.32299   0.00000      0.000   0.000   0.000
   11  4 3pz        0.54136   0.00000      0.000   0.000   0.000
   11  5 3px        0.12588   0.00000      0.000   0.000   0.000
   11  6 3py        0.28641   0.00000     -0.000  -0.000   0.000
   11  7 3pz        0.17714   0.00000     -0.000  -0.000   0.000
   11  8 3px        0.44564   0.00000     -0.000  -0.000   0.000
   11  9 3Pdxy      0.22576   0.00000      0.000   0.000   0.000
   11 10 3Pdyz      0.12670   0.00000      0.000   0.000   0.000
   11 11 3Pdz2      0.00961   0.00000      0.000  -0.000   0.000
   11 12 3Pdxz      0.05306   0.00000     -0.000  -0.000   0.000
   11 13 3Pdx2-y2   0.20423   0.00000     -0.000   0.000   0.000
   11     Total     3.45708   0.00000      0.000   0.000   0.000

   17  1 3s         0.63528   0.00000      0.000   0.000   0.000
   17  2 3s         0.36175   0.00000     -0.000   0.000  -0.000
   17  3 3py        0.22107   0.00000      0.000   0.000   0.000
   17  4 3pz        0.41812   0.00000      0.000   0.000   0.000
   17  5 3px        0.24131   0.00000      0.000  -0.000   0.000
   17  6 3py        0.38407   0.00000     -0.000  -0.000  -0.000
   17  7 3pz        0.21366   0.00000     -0.000  -0.000   0.000
   17  8 3px        0.37641   0.00000     -0.000   0.000   0.000
   17  9 3Pdxy      0.29525   0.00000     -0.000   0.000   0.000
   17 10 3Pdyz      0.14065   0.00000      0.000  -0.000   0.000
   17 11 3Pdz2      0.00856   0.00000      0.000   0.000   0.000
   17 12 3Pdxz      0.14398   0.00000     -0.000   0.000   0.000
   17 13 3Pdx2-y2   0.16716   0.00000      0.000   0.000  -0.000
   17     Total     3.60726   0.00000      0.000   0.000   0.000

   18  1 3s         0.74234   0.00000     -0.000   0.000   0.000
   18  2 3s         0.34171   0.00000      0.000   0.000   0.000
   18  3 3py        0.07112   0.00000      0.000   0.000   0.000
   18  4 3pz        0.81008   0.00000     -0.000   0.000   0.000
   18  5 3px        0.55513   0.00000     -0.000  -0.000   0.000
   18  6 3py        0.52339   0.00000     -0.000  -0.000   0.000
   18  7 3pz        0.19846   0.00000     -0.000   0.000   0.000
   18  8 3px        0.25226   0.00000      0.000   0.000   0.000
   18  9 3Pdxy      0.10261   0.00000      0.000  -0.000  -0.000
   18 10 3Pdyz      0.02772   0.00000      0.000  -0.000  -0.000
   18 11 3Pdz2      0.00849   0.00000     -0.000   0.000  -0.000
   18 12 3Pdxz      0.03105   0.00000     -0.000   0.000  -0.000
   18 13 3Pdx2-y2   0.11070   0.00000     -0.000  -0.000  -0.000
   18     Total     3.77506   0.00000     -0.000   0.000   0.000

   19  1 3s         0.46114   0.00000      0.000   0.000   0.000
   19  2 3s         0.36449   0.00000     -0.000  -0.000  -0.000
   19  3 3py        0.08733   0.00000     -0.000   0.000   0.000
   19  4 3pz        0.42202   0.00000      0.000   0.000   0.000
   19  5 3px        0.33125   0.00000      0.000  -0.000   0.000
   19  6 3py        0.46150   0.00000      0.000   0.000   0.000
   19  7 3pz        0.18469   0.00000     -0.000   0.000   0.000
   19  8 3px        0.25662   0.00000     -0.000   0.000   0.000
   19  9 3Pdxy      0.33631   0.00000     -0.000   0.000   0.000
   19 10 3Pdyz      0.18915   0.00000     -0.000   0.000   0.000
   19 11 3Pdz2      0.01429   0.00000      0.000   0.000   0.000
   19 12 3Pdxz      0.09365   0.00000      0.000   0.000   0.000
   19 13 3Pdx2-y2   0.24389   0.00000      0.000   0.000   0.000
   19     Total     3.44632   0.00000     -0.000   0.000   0.000

   20  1 3s         0.67483   0.00000     -0.000   0.000   0.000
   20  2 3s         0.37728   0.00000      0.000  -0.000  -0.000
   20  3 3py        0.33108   0.00000     -0.000   0.000  -0.000
   20  4 3pz        0.59983   0.00000     -0.000  -0.000  -0.000
   20  5 3px        0.13963   0.00000      0.000   0.000   0.000
   20  6 3py        0.28953   0.00000     -0.000  -0.000   0.000
   20  7 3pz        0.16326   0.00000      0.000   0.000  -0.000
   20  8 3px        0.49958   0.00000     -0.000  -0.000   0.000
   20  9 3Pdxy      0.09960   0.00000     -0.000   0.000  -0.000
   20 10 3Pdyz      0.13193   0.00000     -0.000   0.000  -0.000
   20 11 3Pdz2      0.00746   0.00000     -0.000   0.000   0.000
   20 12 3Pdxz      0.02670   0.00000     -0.000   0.000   0.000
   20 13 3Pdx2-y2   0.17408   0.00000      0.000   0.000  -0.000
   20     Total     3.51476   0.00000     -0.000   0.000  -0.000

----------------------------------------------------------------
Total              89.07719   0.00000     -0.000   0.000   0.000


Species: H                   

Atom      Orb        Charge      Spin       Svec
----------------------------------------------------------------
   12  1 1s         0.48540   0.00000      0.000   0.000  -0.000
   12  2 1s         0.18311   0.00000     -0.000  -0.000   0.000
   12  3 2Ppy       0.02981   0.00000      0.000  -0.000   0.000
   12  4 2Ppz       0.03125   0.00000      0.000  -0.000  -0.000
   12  5 2Ppx       0.02699   0.00000     -0.000   0.000  -0.000
   12     Total     0.75655   0.00000      0.000   0.000  -0.000

   13  1 1s         1.01986   0.00000     -0.000  -0.000  -0.000
   13  2 1s         0.09534   0.00000      0.000   0.000   0.000
   13  3 2Ppy       0.01807   0.00000      0.000  -0.000  -0.000
   13  4 2Ppz       0.02013   0.00000      0.000  -0.000   0.000
   13  5 2Ppx       0.03504   0.00000     -0.000   0.000   0.000
   13     Total     1.18845   0.00000     -0.000  -0.000  -0.000

   14  1 1s         0.46981   0.00000      0.000  -0.000  -0.000
   14  2 1s         0.19871   0.00000     -0.000  -0.000  -0.000
   14  3 2Ppy       0.01886   0.00000      0.000  -0.000  -0.000
   14  4 2Ppz       0.04620   0.00000      0.000   0.000  -0.000
   14  5 2Ppx       0.01805   0.00000     -0.000  -0.000  -0.000
   14     Total     0.75163   0.00000      0.000   0.000  -0.000

   15  1 1s         0.47524   0.00000     -0.000   0.000  -0.000
   15  2 1s         0.17838   0.00000      0.000   0.000  -0.000
   15  3 2Ppy       0.01159   0.00000     -0.000  -0.000   0.000
   15  4 2Ppz       0.03728   0.00000     -0.000  -0.000  -0.000
   15  5 2Ppx       0.04610   0.00000     -0.000  -0.000  -0.000
   15     Total     0.74859   0.00000     -0.000   0.000  -0.000

   16  1 1s         0.50919   0.00000      0.000   0.000  -0.000
   16  2 1s         0.18747   0.00000     -0.000  -0.000  -0.000
   16  3 2Ppy       0.02976   0.00000     -0.000  -0.000  -0.000
   16  4 2Ppz       0.03963   0.00000     -0.000  -0.000  -0.000
   16  5 2Ppx       0.02352   0.00000     -0.000  -0.000  -0.000
   16     Total     0.78956   0.00000      0.000  -0.000  -0.000

   24  1 1s         1.06219   0.00000      0.000  -0.000  -0.000
   24  2 1s         0.07414   0.00000     -0.000  -0.000   0.000
   24  3 2Ppy       0.03232   0.00000      0.000   0.000   0.000
   24  4 2Ppz       0.03031   0.00000      0.000   0.000   0.000
   24  5 2Ppx       0.01738   0.00000      0.000  -0.000  -0.000
   24     Total     1.21634   0.00000      0.000  -0.000  -0.000

   25  1 1s         1.04235   0.00000     -0.000  -0.000  -0.000
   25  2 1s         0.08672   0.00000      0.000   0.000  -0.000
   25  3 2Ppy       0.01224   0.00000     -0.000  -0.000  -0.000
   25  4 2Ppz       0.01876   0.00000      0.000  -0.000  -0.000
   25  5 2Ppx       0.03565   0.00000      0.000   0.000   0.000
   25     Total     1.19572   0.00000     -0.000  -0.000  -0.000

   26  1 1s         0.48015   0.00000      0.000  -0.000  -0.000
   26  2 1s         0.19570   0.00000      0.000   0.000  -0.000
   26  3 2Ppy       0.02217   0.00000      0.000   0.000   0.000
   26  4 2Ppz       0.04812   0.00000     -0.000   0.000  -0.000
   26  5 2Ppx       0.01674   0.00000      0.000   0.000  -0.000
   26     Total     0.76288   0.00000      0.000  -0.000  -0.000

   27  1 1s         0.48474   0.00000      0.000  -0.000  -0.000
   27  2 1s         0.16986   0.00000     -0.000   0.000  -0.000
   27  3 2Ppy       0.01622   0.00000     -0.000   0.000  -0.000
   27  4 2Ppz       0.03313   0.00000     -0.000  -0.000  -0.000
   27  5 2Ppx       0.04821   0.00000      0.000   0.000  -0.000
   27     Total     0.75217   0.00000     -0.000  -0.000  -0.000

   29  1 1s         0.48825   0.00000      0.000  -0.000  -0.000
   29  2 1s         0.18740   0.00000      0.000   0.000  -0.000
   29  3 2Ppy       0.02507   0.00000      0.000  -0.000  -0.000
   29  4 2Ppz       0.03477   0.00000     -0.000  -0.000  -0.000
   29  5 2Ppx       0.02541   0.00000      0.000   0.000  -0.000
   29     Total     0.76090   0.00000      0.000  -0.000  -0.000

----------------------------------------------------------------
Total              98.00000   0.00000     -0.000  -0.000   0.000


siesta: Eigenvalues (eV):
ik =     1
  -22.2171  -22.2171  -21.8369  -21.8369  -21.3798  -21.3798  -21.2571  -21.2571  -21.2011  -21.2011
  -21.1971  -21.1971  -20.5935  -20.5935  -19.6682  -19.6682  -19.5119  -19.5119  -19.3527  -19.3527
  -14.7897  -14.7897  -13.8004  -13.8004  -13.3054  -13.3054  -13.0992  -13.0992  -12.9080  -12.9080
  -12.8218  -12.8218  -12.5696  -12.5696  -12.2159  -12.2159  -12.0625  -12.0625  -11.9510  -11.9510
  -11.2024  -11.2024  -10.8355  -10.8355  -10.6520  -10.6520  -10.5737  -10.5737  -10.1674  -10.1674
   -9.6112   -9.6112   -9.1114   -9.1114   -8.8603   -8.8603   -8.7677   -8.7677   -8.6411   -8.6411
   -8.5150   -8.5150   -8.4820   -8.4820   -8.0751   -8.0751   -8.0388   -8.0388   -7.7379   -7.7379
   -7.7124   -7.7124   -7.3685   -7.3685   -7.1696   -7.1696   -6.9142   -6.9142   -6.7035   -6.7035
   -6.6676   -6.6676   -6.4514   -6.4514   -6.2714   -6.2714   -6.2285   -6.2285   -6.1772   -6.1772
   -6.1290   -6.1290   -5.8614   -5.8614   -5.5575   -5.5575   -4.3002   -4.3002   -3.2700   -3.2700
   -2.3407   -2.3407   -2.3261   -2.3261   -2.1964   -2.1964   -1.8683   -1.8683   -1.8462   -1.8462
   -1.8309   -1.8309   -1.7345   -1.7345   -1.6103   -1.6103   -1.3293   -1.3293   -1.1496   -1.1496
   -0.9813   -0.9813   -0.6764   -0.6764   -0.3402   -0.3402   -0.3252   -0.3252    0.2228    0.2228
    0.4694    0.4694    0.4983    0.4983    0.6279    0.6279    0.8754    0.8754    1.1158    1.1158
    1.2527    1.2527    1.2990    1.2990    1.4014    1.4014    1.4312    1.4312    1.7965    1.7965
    1.9281    1.9281    1.9533    1.9533    2.4611    2.4611    2.5519    2.5519    2.7534    2.7534
    2.7591    2.7591    2.8320    2.8320    2.9231    2.9231    3.4090    3.4090    3.4385    3.4385
    3.7470    3.7470    3.9660    3.9660    4.0295    4.0295    4.1227    4.1227    4.2562    4.2562
    4.4954    4.4954    4.6474    4.6474    4.6867    4.6867    4.7024    4.7024    4.9489    4.9489
    5.0553    5.0553    5.1273    5.1273    5.2966    5.2966    5.5320    5.5320    5.6497    5.6497
    5.9200    5.9200    5.9298    5.9298    6.0020    6.0020    6.3193    6.3193    6.3840    6.3840
    6.4604    6.4604    6.5667    6.5667    6.6092    6.6092    6.7172    6.7172    7.0015    7.0015
    7.0905    7.0905    7.2637    7.2637    7.5543    7.5543    7.7562    7.7562    7.8699    7.8699
    8.0301    8.0301    8.0492    8.0492    8.1277    8.1277    8.3622    8.3622    8.6531    8.6531
    8.7915    8.7915    8.8467    8.8467    8.8565    8.8565    8.9934    8.9934    9.3235    9.3235
    9.3972    9.3972    9.7071    9.7071    9.8240    9.8240    9.8803    9.8803   10.0517   10.0517
   10.1833   10.1833   10.3307   10.3307   10.5728   10.5728   11.0102   11.0102   11.1384   11.1384
   11.2067   11.2067   11.4480   11.4480   11.8426   11.8426   11.9604   11.9604   12.0420   12.0420
   12.2367   12.2367   12.2610   12.2610   12.4641   12.4641   12.5236   12.5236   12.7794   12.7794
   12.9341   12.9341   13.0985   13.0985   13.5232   13.5232   13.5655   13.5655   13.7348   13.7348
   14.0935   14.0935   14.1004   14.1004   14.4580   14.4580   14.7316   14.7316   14.9238   14.9238
   15.2113   15.2113   15.4727   15.4727   16.1205   16.1205   16.6312   16.6312   16.6833   16.6833
   17.0238   17.0238   17.4880   17.4880   17.7219   17.7219   18.5776   18.5776   18.6996   18.6996
   19.0931   19.0931   19.4425   19.4425   20.1436   20.1436   20.2060   20.2060   20.2145   20.2145
   21.0539   21.0539   21.7426   21.7426   22.0947   22.0947   22.2876   22.2876   22.9149   22.9149
   23.3720   23.3720   23.6270   23.6270   23.9165   23.9165   24.1722   24.1722   24.7175   24.7175
   25.0835   25.0835   25.4174   25.4174   26.2148   26.2148   27.2637   27.2637   28.2622   28.2622
   29.0781   29.0781   29.4085   29.4085   29.5603   29.5603   29.7409   29.7409   30.1049   30.1049
   30.1753   30.1753   30.4521   30.4521   30.7627   30.7627   30.9179   30.9179   31.1790   31.1790
   31.3254   31.3254   31.6020   31.6020   31.8512   31.8512   32.8334   32.8334   33.1859   33.1859
   34.0582   34.0582   34.1353   34.1353   34.4713   34.4713   34.5332   34.5332   34.8912   34.8912
   35.4073   35.4073   35.5673   35.5673   35.7852   35.7852   37.0489   37.0489   37.0614   37.0614
   37.5274   37.5274   38.1279   38.1279   38.2966   38.2966   38.4932   38.4932   38.9264   38.9264
   39.2612   39.2612   39.5284   39.5284   40.5283   40.5283   40.7227   40.7227   40.7877   40.7877
   40.9800   40.9800   41.0714   41.0714   41.1131   41.1131   41.6269   41.6269   41.8093   41.8093
   42.9601   42.9601   43.1131   43.1131   43.3007   43.3007   43.6298   43.6298   43.9924   43.9924
   44.1670   44.1670   44.6173   44.6173   44.7713   44.7713   44.9040   44.9040   45.1338   45.1338
   45.5059   45.5059   46.3848   46.3848   46.6515   46.6515   47.1681   47.1681   47.4481   47.4481
   47.8073   47.8073   48.9185   48.9185   49.5868   49.5868   49.9456   49.9456   50.2516   50.2516
   50.4365   50.4365   50.8774   50.8774   51.1518   51.1518   51.2454   51.2454   51.6068   51.6068
   52.2476   52.2476   52.6914   52.6914   53.5804   53.5804   55.0967   55.0967   55.1359   55.1359
   55.3799   55.3799   55.7295   55.7295   55.9790   55.9790   56.7205   56.7205   57.0643   57.0643
   57.4389   57.4389   58.0271   58.0271   58.2878   58.2878   59.4114   59.4114   60.5028   60.5028
   61.1191   61.1191   61.2756   61.2756   61.5696   61.5696   61.7373   61.7373   63.0940   63.0940
   64.3940   64.3940   64.5696   64.5696   64.9797   64.9797   65.2995   65.2995   67.0728   67.0728
   67.6421   67.6421   68.1722   68.1722   68.9416   68.9416   71.0167   71.0167   71.3620   71.3620
   74.9538   74.9538   84.7051   84.7051   91.7138   91.7138   92.1764   92.1764   93.9511   93.9511
   98.7097   98.7097   99.3769   99.3769  101.7794  101.7794  103.6664  103.6664  104.8840  104.8840
  112.5325  112.5325  114.8277  114.8277  124.2015  124.2015  126.5336  126.5336  133.1378  133.1378
  138.8308  138.8308  141.6355  141.6355
siesta: Fermi energy =      -3.785162 eV

siesta: Program's energy decomposition (eV):
siesta: Ebs     =     -1133.046247
siesta: Eions   =      3585.165840
siesta: Ena     =       381.912487
siesta: Ekin    =      2903.875971
siesta: Enl     =     -2789.265791
siesta: Eso     =        -0.004290
siesta: Edftu   =         0.000000
siesta: DEna    =        47.467425
siesta: DUscf   =        13.949073
siesta: DUext   =         0.000000
siesta: Exc     =     -1120.175420
siesta: eta*DQ  =         0.000000
siesta: Emadel  =         0.000000
siesta: Emeta   =         0.000000
siesta: Emolmec =         0.000000
siesta: Ekinion =         0.000000
siesta: Eharris =     -4147.406383
siesta: Etot    =     -4147.406383
siesta: FreeEng =     -4147.406383

siesta: Final energy (eV):
siesta:  Band Struct. =   -1133.046247
siesta:       Kinetic =    2903.875971
siesta:       Hartree =    8693.587328
siesta:       Edftu   =       0.000000
siesta:       Eso     =      -0.004290
siesta:    Ext. field =       0.000000
siesta:   Exch.-corr. =   -1120.175420
siesta:  Ion-electron =  -19969.961141
siesta:       Ion-ion =    5345.271168
siesta:       Ekinion =       0.000000
siesta:         Total =   -4147.406383
siesta:         Fermi =      -3.785162

siesta: Atomic forces (eV/Ang):
siesta:      1    2.171121    3.066872   -0.000000
siesta:      2   -0.007707    0.025002   -0.000000
siesta:      3    0.499561   -0.168930   -0.000000
siesta:      4    0.445065   -0.013418    0.000000
siesta:      5    0.031265   -0.053471    0.000000
siesta:      6    1.416224    0.625339    0.000000
siesta:      7    0.026256   -0.156884   -0.000000
siesta:      8   -0.237255    0.173287    0.000000
siesta:      9   -0.054945    0.780019    0.000000
siesta:     10   -0.557335    0.262502   -0.000000
siesta:     11   -0.014258   -0.013146   -0.000000
siesta:     12   -0.104513   -0.053682    0.000000
siesta:     13    0.001703    0.000681    0.000000
siesta:     14    0.178885   -0.089217   -0.000000
siesta:     15   -0.865997   -0.579884    0.000000
siesta:     16    0.045276    0.078506   -0.000000
siesta:     17    0.564112   -0.727086    0.000000
siesta:     18   -0.133609    0.125212   -0.000000
siesta:     19   -0.163364   -0.702627   -0.000000
siesta:     20   -0.020211   -0.252371    0.000000
siesta:     21   -0.183498    0.579643   -0.000000
siesta:     22   -1.771775   -0.882448    0.000000
siesta:     23    0.145922    0.289879    0.000000
siesta:     24    0.132183    0.009861    0.000000
siesta:     25    0.144681    0.058125   -0.000000
siesta:     26   -0.247160   -0.109806    0.000000
siesta:     27    1.052352    0.845428   -0.000000
siesta:     28   -2.103686    0.906969   -0.000000
siesta:     29   -0.142876    0.156374    0.000000
siesta: ----------------------------------------
siesta:    Tot    0.246418    4.180727    0.000000

siesta: Stress tensor (static) (eV/Ang**3):
siesta:     0.000447    0.001014    0.000000
siesta:     0.001014    0.000995    0.000000
siesta:    -0.000000   -0.000000   -0.000074

siesta: Cell volume =       4642.815728 Ang**3

siesta: Pressure (static):
siesta:                Solid            Molecule  Units
siesta:          -0.00000497          0.00000425  Ry/Bohr**3
siesta:          -0.00045625          0.00039032  eV/Ang**3
siesta:          -0.73099346          0.62537588  kBar
(Free)E+ p_basis*V_orbitals  =       -4127.555966
(Free)Eharris+ p_basis*V_orbitals  =       -4127.555966
     spin moment: S , {S} =    0.00000  -0.00000  -0.00000   0.00000

siesta: Electric dipole (a.u.)  =    1.656393    0.141123   -0.000000
siesta: Electric dipole (Debye) =    4.210135    0.358699   -0.000000

cite: Please see "GC.bib" for an exhaustive BiBTeX file.
cite: Please clearly indicate Siesta version in published work: v4.1.5-1-g384057250
cite: This calculation has made use of the following articles
cite: which are encouraged to be cited in a published work.
        Primary SIESTA paper
          DOI: www.doi.org/10.1088/0953-8984/14/11/302
        Spin-orbit coupling (on-site approximation)
          DOI: www.doi.org/10.1088/0953-8984/19/19/489001


WARNING: alloc-realloc-dealloc name mismatch
         Name: atomlist isa
         Size:              -116. Bytes
         Node:     0
         Subsequent mismatches will not be reported
>> End of run:  28-JUN-2023  18:55:37
Job completed
