Siesta Version  : v4.1.5-1-g384057250
Architecture    : gcc
Compiler version: GNU Fortran (Ubuntu 11.4.0-1ubuntu1~22.04) 11.4.0
Compiler flags  : mpifort -O2 -fPIC -ftree-vectorize -fallow-argument-mismatch
PP flags        : -DFC_HAVE_ABORT -DMPI -DSIESTA__FLOOK -DSIESTA__METIS -DSIESTA__MUMPS -DCDF -DNCDF -DNCDF_4 -DNCDF_PARALLEL -DSIESTA__MRRR -DSIESTA__ELPA
Libraries       : libncdf.a libfdict.a  -lflookall -ldl -lnetcdff -lnetcdf -lz -lscalapack-openmpi -lopenblas -lmetis -lzmumps -lcmumps -ldmumps -lmumps_common -lpord -lsmumps -lesmumps -lscotch -lscotcherr -fopenmp -lelpa
PARALLEL version
NetCDF support
NetCDF-4 support
NetCDF-4 MPI-IO support
METIS ordering support
Lua support

* Running on 4 nodes in parallel
>> Start of run:  15-OCT-2023   9:31:16

                           ***********************       
                           *  WELCOME TO SIESTA  *       
                           ***********************       

reinit: Reading from standard input
reinit: Dumped input in INPUT_TMP.78766
************************** Dump of input data file ****************************
# mpirun -np 4 siesta-4.1.5 < Thymine.fdf > Thymine.out
SystemLabel      Thymine
NumberOfAtoms    15
NumberOfSpecies  4
%block ChemicalSpeciesLabel
    1    1  H
    2    7  N
    3   14  Si
    4    8  O
%endblock ChemicalSpeciesLabel
############################################
# This overrides Defaults.fdf configuration
############################################
MD.TypeOfRun                CG # CG, Verlet
MD.Steps                    0
AtomicCoordinatesFormat NotScaledCartesianAng
%block AtomicCoordinatesAndAtomicSpecies
    1.75272380    6.04724099    0.00000000   1       1  H
    0.85023162    5.49134968    0.00000000   2       2  N
   -0.64855363    6.48710289    0.00000000   3       3  Si
   -0.17775410    7.91656090    0.00000000   1       4  H
   -2.57705270    5.46721530    0.00000000   3       5  Si
   -4.88300095    5.79032309    0.00000000   3       6  Si
   -5.34355541    6.58250522   -1.19339296   1       7  H
   -5.34379096    4.35773049   -0.08543086   1       8  H
   -5.34735485    6.41418185    1.28522373   1       9  H
   -2.10992716    3.24283494    0.00000000   3      10  Si
   -3.15334887    2.04630673    0.00000000   4      11  O
   -0.36583553    2.82530237    0.00000000   2      12  N
   -0.17588440    1.77882327    0.00000000   1      13  H
    1.13322252    3.73493473    0.00000000   3      14  Si
    2.54062384    3.02494249    0.00000000   4      15  O
%endblock AtomicCoordinatesAndAtomicSpecies
#############
# Unit Cell
#############
LatticeConstant 1.0 Ang
%block LatticeVectors
    16.818328    0.000000    0.000000
    0.000000   14.230200    0.000000
    0.000000    0.000000   10.224979
%endblock LatticeVectors
%include ../../../Defaults.fdf
************************** End of input data file *****************************

reinit: -----------------------------------------------------------------------
reinit: System Name: 
reinit: -----------------------------------------------------------------------
reinit: System Label: Thymine
reinit: -----------------------------------------------------------------------

initatom: Reading input for the pseudopotentials and atomic orbitals ----------
Species number:   1 Atomic number:    1 Label: H
Species number:   2 Atomic number:    7 Label: N
Species number:   3 Atomic number:   14 Label: Si
Species number:   4 Atomic number:    8 Label: O

Ground state valence configuration:   1s01
Reading pseudopotential information in formatted form from H.psf

Pseudopotential generated from a relativistic atomic calculation

Valence configuration for pseudopotential generation:
1s( 1.00) rc: 0.01
2p( 0.00) rc: 0.60
3d( 0.00) rc: 1.99
4f( 0.00) rc: 2.49
Ground state valence configuration:   2s02  2p03
Reading pseudopotential information in formatted form from N.psf

Pseudopotential generated from a relativistic atomic calculation

Valence configuration for pseudopotential generation:
2s( 2.00) rc: 0.94
2p( 3.00) rc: 0.59
3d( 0.00) rc: 3.46
4f( 0.00) rc: 2.47
Ground state valence configuration:   3s02  3p02
Reading pseudopotential information in formatted form from Si.psf

Pseudopotential generated from a relativistic atomic calculation

Valence configuration for pseudopotential generation:
3s( 2.00) rc: 1.67
3p( 2.00) rc: 2.04
3d( 0.00) rc: 2.89
4f( 0.00) rc: 2.49
Ground state valence configuration:   2s02  2p04
Reading pseudopotential information in formatted form from O.psf

Pseudopotential generated from a relativistic atomic calculation

Valence configuration for pseudopotential generation:
2s( 2.00) rc: 0.45
2p( 4.00) rc: 0.92
3d( 0.00) rc: 2.24
4f( 0.00) rc: 0.25
For H, standard SIESTA heuristics set lmxkb to 2
 (one more than the basis l, including polarization orbitals).
Use PS.lmax or PS.KBprojectors blocks to override.
For N, standard SIESTA heuristics set lmxkb to 3
 (one more than the basis l, including polarization orbitals).
Use PS.lmax or PS.KBprojectors blocks to override.
For Si, standard SIESTA heuristics set lmxkb to 3
 (one more than the basis l, including polarization orbitals).
Use PS.lmax or PS.KBprojectors blocks to override.
For O, standard SIESTA heuristics set lmxkb to 3
 (one more than the basis l, including polarization orbitals).
Use PS.lmax or PS.KBprojectors blocks to override.

<basis_specs>
===============================================================================
H                    Z=   1    Mass=  1.0100        Charge= 0.17977+309
Lmxo=0 Lmxkb= 2    BasisType=split      Semic=F
L=0  Nsemic=0  Cnfigmx=1
          i=1  nzeta=2  polorb=1  (1s)
            splnorm:   0.62000    
               vcte:    0.0000    
               rinn:    0.0000    
               qcoe:    0.0000    
               qyuk:    0.0000    
               qwid:   0.10000E-01
                rcs:    0.0000      0.0000    
            lambdas:    1.0000      1.0000    
-------------------------------------------------------------------------------
L=0  Nkbl=1  erefs: 0.17977+309
L=1  Nkbl=1  erefs: 0.17977+309
L=2  Nkbl=1  erefs: 0.17977+309
===============================================================================
</basis_specs>

atom: Called for H                     (Z =   1)

read_vps: Pseudopotential generation method:
read_vps: ATM4.2.7  Troullier-Martins                       
Valence charge for ps generation:    1.00000

xc_check: Exchange-correlation functional:
xc_check: GGA Perdew, Burke & Ernzerhof 1996
V l=0 = -2*Zval/r beyond r=  0.0098
V l=1 = -2*Zval/r beyond r=  0.5817
V l=2 = -2*Zval/r beyond r=  1.9372
All V_l potentials equal beyond r=  1.9372
This should be close to max(r_c) in ps generation
All pots = -2*Zval/r beyond r=  1.9372

VLOCAL1: 99.0% of the norm of Vloc inside     11.567 Ry
VLOCAL1: 99.9% of the norm of Vloc inside     26.362 Ry
atom: Maximum radius for 4*pi*r*r*local-pseudopot. charge    2.25106
atom: Maximum radius for r*vlocal+2*Zval:    1.91306
GHOST: No ghost state for L =  0
GHOST: No ghost state for L =  1
GHOST: No ghost state for L =  2

KBgen: Kleinman-Bylander projectors: 
   l= 0   rc=  2.036604   el= -0.477180   Ekb= -6.081590   kbcos= -0.277285
   l= 1   rc=  2.195416   el=  0.001076   Ekb= -0.926943   kbcos= -0.034643
   l= 2   rc=  2.251056   el=  0.002010   Ekb= -0.130941   kbcos= -0.009788

KBgen: Total number of Kleinman-Bylander projectors:    9
atom: -------------------------------------------------------------------------

atom: SANKEY-TYPE ORBITALS:
atom: Selected multiple-zeta basis: split     

SPLIT: Orbitals with angular momentum L= 0

SPLIT: Basis orbitals for state 1s

SPLIT: PAO cut-off radius determined from an
SPLIT: energy shift=  0.002000 Ry

   izeta = 1
                 lambda =    1.000000
                     rc =    6.518340
                 energy =   -0.475305
                kinetic =    0.912139
    potential(screened) =   -1.387444
       potential(ionic) =   -1.907295

   izeta = 2
                 rmatch =    2.141150
              splitnorm =    0.620000
                 energy =    0.566467
                kinetic =    3.772856
    potential(screened) =   -3.206389
       potential(ionic) =   -3.759093

POLgen: Perturbative polarization orbital with L=  1

POLgen: Polarization orbital for state 1s

   izeta = 1
                     rc =    6.518340
                 energy =    0.533861
                kinetic =    1.121086
    potential(screened) =   -0.587225
       potential(ionic) =   -1.053027
atom: Total number of Sankey-type orbitals:  5

atm_pop: Valence configuration (for local Pseudopot. screening):
 1s( 1.00)                                                            
Vna: chval, zval:    1.00000   1.00000

Vna:  Cut-off radius for the neutral-atom potential:   6.518340

atom: _________________________________________________________________________

<basis_specs>
===============================================================================
N                    Z=   7    Mass=  14.010        Charge= 0.17977+309
Lmxo=1 Lmxkb= 3    BasisType=split      Semic=F
L=0  Nsemic=0  Cnfigmx=2
          i=1  nzeta=2  polorb=0  (2s)
            splnorm:   0.28000    
               vcte:    0.0000    
               rinn:    0.0000    
               qcoe:    0.0000    
               qyuk:    0.0000    
               qwid:   0.10000E-01
                rcs:    0.0000      0.0000    
            lambdas:    1.0000      1.0000    
L=1  Nsemic=0  Cnfigmx=2
          i=1  nzeta=2  polorb=1  (2p)
            splnorm:   0.28000    
               vcte:    0.0000    
               rinn:    0.0000    
               qcoe:    0.0000    
               qyuk:    0.0000    
               qwid:   0.10000E-01
                rcs:    0.0000      0.0000    
            lambdas:    1.0000      1.0000    
-------------------------------------------------------------------------------
L=0  Nkbl=1  erefs: 0.17977+309
L=1  Nkbl=1  erefs: 0.17977+309
L=2  Nkbl=1  erefs: 0.17977+309
L=3  Nkbl=1  erefs: 0.17977+309
===============================================================================
</basis_specs>

atom: Called for N                     (Z =   7)

read_vps: Pseudopotential generation method:
read_vps: ATM4.2.7  Troullier-Martins                       
Valence charge for ps generation:    5.00000

xc_check: Exchange-correlation functional:
xc_check: GGA Perdew, Burke & Ernzerhof 1996
V l=0 = -2*Zval/r beyond r=  1.2889
V l=1 = -2*Zval/r beyond r=  1.2889
V l=2 = -2*Zval/r beyond r=  3.4178
V l=3 = -2*Zval/r beyond r=  2.4084
All V_l potentials equal beyond r=  3.3753
This should be close to max(r_c) in ps generation
All pots = -2*Zval/r beyond r=  3.4178

VLOCAL1: 99.0% of the norm of Vloc inside      3.810 Ry
VLOCAL1: 99.9% of the norm of Vloc inside      8.683 Ry
atom: Maximum radius for 4*pi*r*r*local-pseudopot. charge    4.02088
atom: Maximum radius for r*vlocal+2*Zval:    3.54838
GHOST: No ghost state for L =  0
GHOST: No ghost state for L =  1
GHOST: No ghost state for L =  2
GHOST: No ghost state for L =  3

KBgen: Kleinman-Bylander projectors: 
   l= 0   rc=  3.417763   el= -1.365098   Ekb= -4.433130   kbcos= -0.707855
   l= 1   rc=  3.375302   el= -0.521201   Ekb=-13.264039   kbcos= -0.535594
   l= 2   rc=  3.872880   el=  0.001991   Ekb= -0.641094   kbcos= -0.062456
   l= 3   rc=  3.970931   el=  0.003093   Ekb= -0.474517   kbcos= -0.018236

KBgen: Total number of Kleinman-Bylander projectors:   16
atom: -------------------------------------------------------------------------

atom: SANKEY-TYPE ORBITALS:
atom: Selected multiple-zeta basis: split     

SPLIT: Orbitals with angular momentum L= 0

SPLIT: Basis orbitals for state 2s

SPLIT: PAO cut-off radius determined from an
SPLIT: energy shift=  0.002000 Ry

   izeta = 1
                 lambda =    1.000000
                     rc =    4.730425
                 energy =   -1.363399
                kinetic =    1.245246
    potential(screened) =   -2.608645
       potential(ionic) =   -8.121105

   izeta = 2
                 rmatch =    2.531849
              splitnorm =    0.280000
                 energy =   -0.959908
                kinetic =    2.409435
    potential(screened) =   -3.369343
       potential(ionic) =   -9.427975

SPLIT: Orbitals with angular momentum L= 1

SPLIT: Basis orbitals for state 2p

SPLIT: PAO cut-off radius determined from an
SPLIT: energy shift=  0.002000 Ry

   izeta = 1
                 lambda =    1.000000
                     rc =    5.924108
                 energy =   -0.519262
                kinetic =    3.672940
    potential(screened) =   -4.192202
       potential(ionic) =   -9.518354

   izeta = 2
                 rmatch =    2.531849
              splitnorm =    0.280000
                 energy =   -0.104258
                kinetic =    6.807538
    potential(screened) =   -6.911796
       potential(ionic) =  -13.149920

POLgen: Perturbative polarization orbital with L=  2

POLgen: Polarization orbital for state 2p

   izeta = 1
                     rc =    5.924108
                 energy =    1.427508
                kinetic =    2.872379
    potential(screened) =   -1.444871
       potential(ionic) =   -5.563644
atom: Total number of Sankey-type orbitals: 13

atm_pop: Valence configuration (for local Pseudopot. screening):
 2s( 2.00)                                                            
 2p( 3.00)                                                            
Vna: chval, zval:    5.00000   5.00000

Vna:  Cut-off radius for the neutral-atom potential:   5.924108

atom: _________________________________________________________________________

<basis_specs>
===============================================================================
Si                   Z=  14    Mass=  28.090        Charge= 0.17977+309
Lmxo=1 Lmxkb= 3    BasisType=split      Semic=F
L=0  Nsemic=0  Cnfigmx=3
          i=1  nzeta=2  polorb=0  (3s)
            splnorm:   0.28000    
               vcte:    0.0000    
               rinn:    0.0000    
               qcoe:    0.0000    
               qyuk:    0.0000    
               qwid:   0.10000E-01
                rcs:    0.0000      0.0000    
            lambdas:    1.0000      1.0000    
L=1  Nsemic=0  Cnfigmx=3
          i=1  nzeta=2  polorb=1  (3p)
            splnorm:   0.28000    
               vcte:    0.0000    
               rinn:    0.0000    
               qcoe:    0.0000    
               qyuk:    0.0000    
               qwid:   0.10000E-01
                rcs:    0.0000      0.0000    
            lambdas:    1.0000      1.0000    
-------------------------------------------------------------------------------
L=0  Nkbl=1  erefs: 0.17977+309
L=1  Nkbl=1  erefs: 0.17977+309
L=2  Nkbl=1  erefs: 0.17977+309
L=3  Nkbl=1  erefs: 0.17977+309
===============================================================================
</basis_specs>

atom: Called for Si                    (Z =  14)

read_vps: Pseudopotential generation method:
read_vps: ATM4.2.7  Troullier-Martins                       
Valence charge for ps generation:    4.00000

xc_check: Exchange-correlation functional:
xc_check: GGA Perdew, Burke & Ernzerhof 1996
V l=0 = -2*Zval/r beyond r=  2.7826
V l=1 = -2*Zval/r beyond r=  2.7826
V l=2 = -2*Zval/r beyond r=  2.9253
V l=3 = -2*Zval/r beyond r=  2.7826
All V_l potentials equal beyond r=  2.8530
This should be close to max(r_c) in ps generation
All pots = -2*Zval/r beyond r=  2.9253

VLOCAL1: 99.0% of the norm of Vloc inside      5.333 Ry
VLOCAL1: 99.9% of the norm of Vloc inside     12.154 Ry
atom: Maximum radius for 4*pi*r*r*local-pseudopot. charge    3.39869
atom: Maximum radius for r*vlocal+2*Zval:    2.96205
GHOST: No ghost state for L =  0
GHOST: No ghost state for L =  1
GHOST: No ghost state for L =  2
GHOST: No ghost state for L =  3

KBgen: Kleinman-Bylander projectors: 
   l= 0   rc=  3.075247   el= -0.794092   Ekb=  5.879390   kbcos=  0.167461
   l= 1   rc=  3.153101   el= -0.300068   Ekb=  2.642817   kbcos=  0.058301
   l= 2   rc=  3.273594   el=  0.001958   Ekb= -1.185135   kbcos= -0.104411
   l= 3   rc=  3.232927   el=  0.003046   Ekb= -0.497174   kbcos= -0.015889

KBgen: Total number of Kleinman-Bylander projectors:   16
atom: -------------------------------------------------------------------------

atom: SANKEY-TYPE ORBITALS:
atom: Selected multiple-zeta basis: split     

SPLIT: Orbitals with angular momentum L= 0

SPLIT: Basis orbitals for state 3s

SPLIT: PAO cut-off radius determined from an
SPLIT: energy shift=  0.002000 Ry

   izeta = 1
                 lambda =    1.000000
                     rc =    6.429618
                 energy =   -0.792283
                kinetic =    0.525293
    potential(screened) =   -1.317576
       potential(ionic) =   -3.744923

   izeta = 2
                 rmatch =    3.998416
              splitnorm =    0.280000
                 energy =   -0.583081
                kinetic =    1.069570
    potential(screened) =   -1.652651
       potential(ionic) =   -4.235185

SPLIT: Orbitals with angular momentum L= 1

SPLIT: Basis orbitals for state 3p

SPLIT: PAO cut-off radius determined from an
SPLIT: energy shift=  0.002000 Ry

   izeta = 1
                 lambda =    1.000000
                     rc =    8.464845
                 energy =   -0.298236
                kinetic =    0.785360
    potential(screened) =   -1.083596
       potential(ionic) =   -3.273779

   izeta = 2
                 rmatch =    4.587816
              splitnorm =    0.280000
                 energy =   -0.131871
                kinetic =    1.403687
    potential(screened) =   -1.535557
       potential(ionic) =   -4.015310

POLgen: Perturbative polarization orbital with L=  2

POLgen: Polarization orbital for state 3p

   izeta = 1
                     rc =    8.464845
                 energy =    0.321949
                kinetic =    1.055677
    potential(screened) =   -0.733728
       potential(ionic) =   -2.672950
atom: Total number of Sankey-type orbitals: 13

atm_pop: Valence configuration (for local Pseudopot. screening):
 3s( 2.00)                                                            
 3p( 2.00)                                                            
Vna: chval, zval:    4.00000   4.00000

Vna:  Cut-off radius for the neutral-atom potential:   8.464845

atom: _________________________________________________________________________

<basis_specs>
===============================================================================
O                    Z=   8    Mass=  16.000        Charge= 0.17977+309
Lmxo=1 Lmxkb= 3    BasisType=split      Semic=F
L=0  Nsemic=0  Cnfigmx=2
          i=1  nzeta=2  polorb=0  (2s)
            splnorm:   0.28000    
               vcte:    0.0000    
               rinn:    0.0000    
               qcoe:    0.0000    
               qyuk:    0.0000    
               qwid:   0.10000E-01
                rcs:    0.0000      0.0000    
            lambdas:    1.0000      1.0000    
L=1  Nsemic=0  Cnfigmx=2
          i=1  nzeta=2  polorb=1  (2p)
            splnorm:   0.28000    
               vcte:    0.0000    
               rinn:    0.0000    
               qcoe:    0.0000    
               qyuk:    0.0000    
               qwid:   0.10000E-01
                rcs:    0.0000      0.0000    
            lambdas:    1.0000      1.0000    
-------------------------------------------------------------------------------
L=0  Nkbl=1  erefs: 0.17977+309
L=1  Nkbl=1  erefs: 0.17977+309
L=2  Nkbl=1  erefs: 0.17977+309
L=3  Nkbl=1  erefs: 0.17977+309
===============================================================================
</basis_specs>

atom: Called for O                     (Z =   8)

read_vps: Pseudopotential generation method:
read_vps: ATM4.2.7  Troullier-Martins                       
Valence charge for ps generation:    6.00000

xc_check: Exchange-correlation functional:
xc_check: GGA Perdew, Burke & Ernzerhof 1996
V l=0 = -2*Zval/r beyond r=  1.1000
V l=1 = -2*Zval/r beyond r=  1.1000
V l=2 = -2*Zval/r beyond r=  2.2154
V l=3 = -2*Zval/r beyond r=  1.1000
All V_l potentials equal beyond r=  2.2154
This should be close to max(r_c) in ps generation
All pots = -2*Zval/r beyond r=  2.2154

VLOCAL1: 99.0% of the norm of Vloc inside      8.845 Ry
VLOCAL1: 99.9% of the norm of Vloc inside     20.157 Ry
atom: Maximum radius for 4*pi*r*r*local-pseudopot. charge    2.67231
atom: Maximum radius for r*vlocal+2*Zval:    2.32897
GHOST: No ghost state for L =  0
GHOST: No ghost state for L =  1
GHOST: No ghost state for L =  2
GHOST: No ghost state for L =  3

KBgen: Kleinman-Bylander projectors: 
   l= 0   rc=  2.243238   el= -1.759686   Ekb=**********   kbcos= -0.171774
   l= 1   rc=  2.328968   el= -0.663873   Ekb=-14.506792   kbcos= -0.519897
   l= 2   rc=  2.573941   el=  0.002031   Ekb= -1.137373   kbcos= -0.019581
   l= 3   rc=  2.606321   el=  0.003153   Ekb= -1.013546   kbcos= -0.003122

KBgen: Total number of Kleinman-Bylander projectors:   16
atom: -------------------------------------------------------------------------

atom: SANKEY-TYPE ORBITALS:
atom: Selected multiple-zeta basis: split     

SPLIT: Orbitals with angular momentum L= 0

SPLIT: Basis orbitals for state 2s

SPLIT: PAO cut-off radius determined from an
SPLIT: energy shift=  0.002000 Ry

   izeta = 1
                 lambda =    1.000000
                     rc =    4.243912
                 energy =   -1.758270
                kinetic =    3.286084
    potential(screened) =   -5.044353
       potential(ionic) =  -12.921184

   izeta = 2
                 rmatch =    2.187845
              splitnorm =    0.280000
                 energy =   -0.885018
                kinetic =    8.134434
    potential(screened) =   -9.019452
       potential(ionic) =  -17.710645

SPLIT: Orbitals with angular momentum L= 1

SPLIT: Basis orbitals for state 2p

SPLIT: PAO cut-off radius determined from an
SPLIT: energy shift=  0.002000 Ry

   izeta = 1
                 lambda =    1.000000
                     rc =    5.314825
                 energy =   -0.661986
                kinetic =    4.917472
    potential(screened) =   -5.579458
       potential(ionic) =  -13.236259

   izeta = 2
                 rmatch =    2.160663
              splitnorm =    0.280000
                 energy =   -0.068760
                kinetic =    9.183374
    potential(screened) =   -9.252135
       potential(ionic) =  -18.274251

POLgen: Perturbative polarization orbital with L=  2

POLgen: Polarization orbital for state 2p

   izeta = 1
                     rc =    5.314825
                 energy =    1.970580
                kinetic =    3.886128
    potential(screened) =   -1.915547
       potential(ionic) =   -7.749584
atom: Total number of Sankey-type orbitals: 13

atm_pop: Valence configuration (for local Pseudopot. screening):
 2s( 2.00)                                                            
 2p( 4.00)                                                            
Vna: chval, zval:    6.00000   6.00000

Vna:  Cut-off radius for the neutral-atom potential:   5.314825

atom: _________________________________________________________________________

prinput: Basis input ----------------------------------------------------------

PAO.BasisType split     

%block ChemicalSpeciesLabel
    1    1 H                       # Species index, atomic number, species label
    2    7 N                       # Species index, atomic number, species label
    3   14 Si                      # Species index, atomic number, species label
    4    8 O                       # Species index, atomic number, species label
%endblock ChemicalSpeciesLabel

%block PAO.Basis                 # Define Basis set
H                     1                    # Species label, number of l-shells
 n=1   0   2 P   1                   # n, l, Nzeta, Polarization, NzetaPol
   6.518      2.141   
   1.000      1.000   
N                     2                    # Species label, number of l-shells
 n=2   0   2                         # n, l, Nzeta 
   4.730      2.532   
   1.000      1.000   
 n=2   1   2 P   1                   # n, l, Nzeta, Polarization, NzetaPol
   5.924      2.532   
   1.000      1.000   
Si                    2                    # Species label, number of l-shells
 n=3   0   2                         # n, l, Nzeta 
   6.430      3.998   
   1.000      1.000   
 n=3   1   2 P   1                   # n, l, Nzeta, Polarization, NzetaPol
   8.465      4.588   
   1.000      1.000   
O                     2                    # Species label, number of l-shells
 n=2   0   2                         # n, l, Nzeta 
   4.244      2.188   
   1.000      1.000   
 n=2   1   2 P   1                   # n, l, Nzeta, Polarization, NzetaPol
   5.315      2.161   
   1.000      1.000   
%endblock PAO.Basis

prinput: ----------------------------------------------------------------------

Dumping basis to NetCDF file H.ion.nc
Dumping basis to NetCDF file N.ion.nc
Dumping basis to NetCDF file Si.ion.nc
Dumping basis to NetCDF file O.ion.nc
coor:   Atomic-coordinates input format  =     Cartesian coordinates
coor:                                          (in Angstroms)

siesta: Atomic coordinates (Bohr) and species
siesta:      3.31217  11.42763   0.00000  1        1
siesta:      1.60671  10.37715   0.00000  2        2
siesta:     -1.22559  12.25885   0.00000  3        3
siesta:     -0.33591  14.96014   0.00000  1        4
siesta:     -4.86993  10.33154   0.00000  3        5
siesta:     -9.22754  10.94213   0.00000  3        6
siesta:    -10.09786  12.43914  -2.25519  1        7
siesta:    -10.09831   8.23492  -0.16144  1        8
siesta:    -10.10504  12.12105   2.42872  1        9
siesta:     -3.98719   6.12807   0.00000  3       10
siesta:     -5.95897   3.86696   0.00000  4       11
siesta:     -0.69133   5.33905   0.00000  2       12
siesta:     -0.33237   3.36149   0.00000  1       13
siesta:      2.14148   7.05801   0.00000  3       14
siesta:      4.80109   5.71632   0.00000  4       15

siesta: System type = molecule  

initatomlists: Number of atoms, orbitals, and projectors:     15   147   198

siesta: ******************** Simulation parameters ****************************
siesta:
siesta: The following are some of the parameters of the simulation.
siesta: A complete list of the parameters used, including default values,
siesta: can be found in file out.fdf
siesta:
redata: Spin configuration                          = spin-orbit
redata: Number of spin components                   = 8
redata: Time-Reversal Symmetry                      = F
redata: Spin spiral                                 = F
############################################################
This spin-orbit implementation uses a local approximation.
From 4.2 and onwards the full non-local approximation is implemented
You are strongly advised to use >=4.2 versions!
############################################################
redata: Long output                                 =   F
redata: Number of Atomic Species                    =        4
redata: Charge density info will appear in .RHO file
redata: Write Mulliken Pop.                         = NO
redata: Matel table size (NRTAB)                    =     1024
redata: Mesh Cutoff                                 =   340.0000 Ry
redata: Net charge of the system                    =     0.0000 |e|
redata: Min. number of SCF Iter                     =        1
redata: Max. number of SCF Iter                     =      200
redata: SCF convergence failure will abort job
redata: SCF mix quantity                            = Hamiltonian
redata: Mix DM or H after convergence               =   F
redata: Recompute H after scf cycle                 =   F
redata: Mix DM in first SCF step                    =   T
redata: Write Pulay info on disk                    =   F
redata: New DM Occupancy tolerance                  = 0.000000000001
redata: No kicks to SCF
redata: DM Mixing Weight for Kicks                  =     0.5000
redata: Require Harris convergence for SCF          =   F
redata: Harris energy tolerance for SCF             =     0.000100 eV
redata: Require DM convergence for SCF              =   T
redata: DM tolerance for SCF                        =     0.000008
redata: Require EDM convergence for SCF             =   F
redata: EDM tolerance for SCF                       =     0.001000 eV
redata: Require H convergence for SCF               =   T
redata: Hamiltonian tolerance for SCF               =     0.000001 eV
redata: Require (free) Energy convergence for SCF   =   F
redata: (free) Energy tolerance for SCF             =     0.000100 eV
redata: Using Saved Data (generic)                  =   F
redata: Use continuation files for DM               =   T
redata: Neglect nonoverlap interactions             =   F
redata: Method of Calculation                       = Diagonalization
redata: Electronic Temperature                      =   299.9978 K
redata: Fix the spin of the system                  =   F
redata: Dynamics option                             = Single-point calculation
mix.SCF: Pulay mixing                            = Pulay
mix.SCF:    Variant                              = stable
mix.SCF:    History steps                        = 6
mix.SCF:    Linear mixing weight                 =     0.250000
mix.SCF:    Mixing weight                        =     0.250000
mix.SCF:    SVD condition                        = 0.1000E-07
mix.SCF:    Restart steps                        = 24
mix.SCF:    Restart save steps                   = 3
mix.SCF: Spin-component mixing                   all
redata: Save all siesta data in one NC              =   F
redata: ***********************************************************************

%block SCF.Mixers
  Pulay
%endblock SCF.Mixers

%block SCF.Mixer.Pulay
  # Mixing method
  method pulay
  variant stable

  # Mixing options
  weight 0.2500
  weight.linear 0.2500
  history 6
  restart 24
  restart.save 3
%endblock SCF.Mixer.Pulay

DM_history_depth set to one: no extrapolation allowed by default for geometry relaxation
Size of DM history Fstack: 1
Total number of electrons:    48.000000
Total ionic charge:    48.000000

* ProcessorY, Blocksize:    2  24


* Orbital distribution balance (max,min):    48    24


Time-reversal symmetry not used.

siesta: k-grid: Number of k-points =     1
siesta: k-grid: Cutoff (effective) =     5.112 Ang
siesta: k-grid: Supercell and displacements
siesta: k-grid:    1   0   0      0.000
siesta: k-grid:    0   1   0      0.000
siesta: k-grid:    0   0   1      0.000

diag: Algorithm                                     = ELPA-1stage
diag: Parallel over k                               =   F
diag: Use parallel 2D distribution                  =   T
diag: Parallel block-size                           = 24
diag: Parallel distribution                         =     2 x     2
diag: Used triangular part                          = Lower
diag: Absolute tolerance                            =  0.100E-15
diag: Orthogonalization factor                      =  0.100E-05
diag: Memory factor                                 =  1.0000


ts: **************************************************************
ts: Save H and S matrices                           =    F
ts: Save DM and EDM matrices                        =    F
ts: Only save the overlap matrix S                  =    F
ts: **************************************************************

************************ Begin: TS CHECKS AND WARNINGS ************************
************************ End: TS CHECKS AND WARNINGS **************************


                     ====================================
                        Single-point calculation
                     ====================================

outcoor: Atomic coordinates (Ang):                          
    1.75272380    6.04724099    0.00000000   1       1  H
    0.85023162    5.49134968    0.00000000   2       2  N
   -0.64855363    6.48710289    0.00000000   3       3  Si
   -0.17775410    7.91656090    0.00000000   1       4  H
   -2.57705270    5.46721530    0.00000000   3       5  Si
   -4.88300095    5.79032309    0.00000000   3       6  Si
   -5.34355541    6.58250522   -1.19339296   1       7  H
   -5.34379096    4.35773049   -0.08543086   1       8  H
   -5.34735485    6.41418185    1.28522373   1       9  H
   -2.10992716    3.24283494    0.00000000   3      10  Si
   -3.15334887    2.04630673    0.00000000   4      11  O
   -0.36583553    2.82530237    0.00000000   2      12  N
   -0.17588440    1.77882327    0.00000000   1      13  H
    1.13322252    3.73493473    0.00000000   3      14  Si
    2.54062384    3.02494249    0.00000000   4      15  O

outcell: Unit cell vectors (Ang):
       16.818328    0.000000    0.000000
        0.000000   14.230200    0.000000
        0.000000    0.000000   10.224979

outcell: Cell vector modules (Ang)   :   16.818328   14.230200   10.224979
outcell: Cell angles (23,13,12) (deg):     90.0000     90.0000     90.0000
outcell: Cell volume (Ang**3)        :   2447.1255
<dSpData1D:S at geom step 0
  <sparsity:sparsity for geom step 0
    nrows_g=147 nrows=48 sparsity=.3189 nnzs=6891, refcount: 8>
  <dData1D:(new from dSpData1D) n=6891, refcount: 1>
refcount: 1>
new_DM -- step:     1
Initializing Density Matrix...

Attempting to read DM from file... Failed...
DM filled with atomic data:
<dSpData2D:DM initialized from atoms
  <sparsity:sparsity for geom step 0
    nrows_g=147 nrows=48 sparsity=.3189 nnzs=6891, refcount: 9>
  <dData2D:DM n=6891 m=8, refcount: 1>
refcount: 1>
     spin moment: S , {S} =   26.00000   0.00000   0.00000  26.00000
No. of atoms with KB's overlaping orbs in proc 0. Max # of overlaps:      15     130

Initializing spin-orbit part of the Hamiltonian
  Adding spin-orbit effects for H 
  Adding spin-orbit effects for N 
  Adding spin-orbit effects for Si
  Adding spin-orbit effects for O 


New grid distribution:   1
           1       1:   96    1:   40    1:   30
           2       1:   96    1:   40   31:   60
           3       1:   96   41:   80    1:   30
           4       1:   96   41:   80   31:   60

InitMesh: MESH =   192 x   160 x   120 =     3686400
InitMesh: (bp) =    96 x    80 x    60 =      460800
InitMesh: Mesh cutoff (required, used) =   340.000   349.397 Ry
ExtMesh (bp) on 0 =   200 x   144 x   138 =     3974400
New grid distribution:   2
           1       1:   75    1:   27    1:   60
           2      76:   96    1:   26    1:   60
           3       1:   75   28:   80    1:   60
           4      76:   96   27:   80    1:   60
New grid distribution:   3
           1       1:   63    1:   29    1:   60
           2      64:   96    1:   31    1:   60
           3       1:   63   30:   80    1:   60
           4      64:   96   32:   80    1:   60
Setting up quadratic distribution...
ExtMesh (bp) on 0 =   179 x   131 x   168 =     3939432
PhiOnMesh: Number of (b)points on node 0 =               121500
PhiOnMesh: nlist on node 0 =              1356818

stepf: Fermi-Dirac step function

siesta: Program's energy decomposition (eV):
siesta: Ebs     =      -364.382037
siesta: Eions   =      1908.291957
siesta: Ena     =       161.792130
siesta: Ekin    =      1646.457741
siesta: Enl     =     -1406.988480
siesta: Eso     =        -0.002251
siesta: Edftu   =         0.000000
siesta: DEna    =        31.854168
siesta: DUscf   =        33.301457
siesta: DUext   =         0.000000
siesta: Exc     =      -579.657406
siesta: eta*DQ  =         0.000000
siesta: Emadel  =         0.000000
siesta: Emeta   =         0.000000
siesta: Emolmec =         0.000000
siesta: Ekinion =         0.000000
siesta: Eharris =     -1996.272405
siesta: Etot    =     -2021.534598
siesta: FreeEng =     -2021.540055

        iscf     Eharris(eV)        E_KS(eV)     FreeEng(eV)     dDmax    Ef(eV) dHmax(eV)
   scf:    1    -1996.272405    -2021.534598    -2021.540055  0.972213 -4.966156 21.085507
     spin moment: S , {S} =    0.04402  -0.00001   0.00000   0.04402
timer: Routine,Calls,Time,% = IterSCF        1       7.877  10.06
   scf:    2    -2045.822166    -2037.235873    -2037.235885  0.135113 -4.923624  6.500879
     spin moment: S , {S} =    0.00012  -0.00000   0.00000   0.00012
   scf:    3    -2039.517840    -2038.703842    -2038.703842  0.051416 -4.656790  5.044306
     spin moment: S , {S} =    0.00005   0.00000   0.00000   0.00005
   scf:    4    -2039.388480    -2039.072540    -2039.072540  0.028384 -4.576958  2.993753
     spin moment: S , {S} =    0.00003  -0.00000   0.00000   0.00003
   scf:    5    -2039.330045    -2039.235995    -2039.235995  0.031809 -4.540571  1.554953
     spin moment: S , {S} =    0.00001  -0.00000   0.00000   0.00001
   scf:    6    -2039.322803    -2039.319669    -2039.319669  0.021500 -4.571008  0.768100
     spin moment: S , {S} =    0.00000  -0.00000   0.00000   0.00000
   scf:    7    -2039.355974    -2039.350738    -2039.350738  0.013494 -4.501396  0.431745
     spin moment: S , {S} =    0.00000  -0.00000   0.00000   0.00000
   scf:    8    -2039.367154    -2039.360150    -2039.360150  0.006186 -4.525358  0.121520
     spin moment: S , {S} =    0.00000  -0.00000   0.00000   0.00000
   scf:    9    -2039.368502    -2039.364072    -2039.364072  0.004789 -4.529357  0.062227
     spin moment: S , {S} =    0.00000  -0.00000   0.00000   0.00000
   scf:   10    -2039.368812    -2039.366148    -2039.366148  0.004939 -4.529344  0.025790
     spin moment: S , {S} =    0.00000  -0.00000  -0.00000  -0.00000
   scf:   11    -2039.366846    -2039.366453    -2039.366453  0.001747 -4.526136  0.012198
     spin moment: S , {S} =    0.00000  -0.00000  -0.00000  -0.00000
   scf:   12    -2039.366551    -2039.366498    -2039.366498  0.000579 -4.522911  0.007167
     spin moment: S , {S} =    0.00000  -0.00000  -0.00000  -0.00000
   scf:   13    -2039.366547    -2039.366520    -2039.366520  0.000485 -4.520883  0.003906
     spin moment: S , {S} =    0.00000  -0.00000  -0.00000  -0.00000
   scf:   14    -2039.366544    -2039.366531    -2039.366531  0.000421 -4.519933  0.002405
     spin moment: S , {S} =    0.00000  -0.00000  -0.00000  -0.00000
   scf:   15    -2039.366541    -2039.366535    -2039.366535  0.000306 -4.519775  0.001806
     spin moment: S , {S} =    0.00000  -0.00000  -0.00000  -0.00000
   scf:   16    -2039.366540    -2039.366537    -2039.366537  0.000282 -4.519678  0.000968
     spin moment: S , {S} =    0.00000  -0.00000  -0.00000   0.00000
   scf:   17    -2039.366538    -2039.366538    -2039.366538  0.000115 -4.519751  0.000614
     spin moment: S , {S} =    0.00000  -0.00000  -0.00000   0.00000
   scf:   18    -2039.366538    -2039.366538    -2039.366538  0.000090 -4.519818  0.000384
     spin moment: S , {S} =    0.00000  -0.00000  -0.00000   0.00000
   scf:   19    -2039.366538    -2039.366538    -2039.366538  0.000054 -4.519818  0.000237
     spin moment: S , {S} =    0.00000  -0.00000  -0.00000   0.00000
   scf:   20    -2039.366538    -2039.366538    -2039.366538  0.000051 -4.519798  0.000097
     spin moment: S , {S} =    0.00000  -0.00000  -0.00000   0.00000
   scf:   21    -2039.366538    -2039.366538    -2039.366538  0.000013 -4.519768  0.000052
     spin moment: S , {S} =    0.00000  -0.00000  -0.00000   0.00000
   scf:   22    -2039.366538    -2039.366538    -2039.366538  0.000007 -4.519758  0.000035
     spin moment: S , {S} =    0.00000  -0.00000  -0.00000   0.00000
   scf:   23    -2039.366538    -2039.366538    -2039.366538  0.000006 -4.519751  0.000016
     spin moment: S , {S} =    0.00000  -0.00000   0.00000   0.00000
   scf:   24    -2039.366538    -2039.366538    -2039.366538  0.000002 -4.519752  0.000013
     spin moment: S , {S} =    0.00000  -0.00000   0.00000   0.00000
mix: Pulay -- resetting history
   scf:   25    -2039.366538    -2039.366538    -2039.366538  0.000000 -4.519752  0.000008
     spin moment: S , {S} =    0.00000  -0.00000   0.00000   0.00000
   scf:   26    -2039.366538    -2039.366538    -2039.366538  0.000000 -4.519752  0.000005
     spin moment: S , {S} =    0.00000  -0.00000   0.00000   0.00000
   scf:   27    -2039.366538    -2039.366538    -2039.366538  0.000000 -4.519751  0.000003
     spin moment: S , {S} =    0.00000  -0.00000   0.00000   0.00000
   scf:   28    -2039.366538    -2039.366538    -2039.366538  0.000000 -4.519751  0.000001
     spin moment: S , {S} =    0.00000  -0.00000   0.00000   0.00000

SCF Convergence by DM+H criterion
max |DM_out - DM_in|         :     0.0000002634
max |H_out - H_in|      (eV) :     0.0000008588
SCF cycle converged after 28 iterations

Using DM_out to compute the final energy and forces
No. of atoms with KB's overlaping orbs in proc 0. Max # of overlaps:      15     130

siesta: E_KS(eV) =            -2039.3665

siesta: E_KS - E_eggbox =     -2039.3665
     spin moment: S , {S} =    0.00000  -0.00000   0.00000   0.00000

siesta: Atomic forces (eV/Ang):
     1   -0.001131   -0.000641   -0.000424
     2    0.001086    0.000178   -0.000223
     3   -0.000105   -0.002212    0.004022
     4    0.002211   -0.001830   -0.001777
     5    0.002125    0.000107   -0.007716
     6   -0.001267    0.000404   -0.016211
     7   -0.000455    0.002256    0.001589
     8    0.000651    0.000232    0.001326
     9    0.003689   -0.003213   -0.002763
    10    0.001206   -0.000406   -0.002202
    11    0.001814    0.001888    0.000422
    12    0.000150   -0.000645    0.000344
    13    0.000500   -0.000478    0.000160
    14   -0.000621   -0.000262   -0.000226
    15    0.002168    0.001251    0.000162
----------------------------------------
   Tot    0.012021   -0.003373   -0.023516
----------------------------------------
   Max    0.016211
   Res    0.003081    sqrt( Sum f_i^2 / 3N )
----------------------------------------
   Max    0.016211    constrained

Stress tensor Voigt[x,y,z,yz,xz,xy] (kbar):       -2.26       -1.00       -0.45       -0.03        0.02        0.29
(Free)E + p*V (eV/cell)    -2037.4731
Target enthalpy (eV/cell)    -2039.3665

siesta: Eigenvalues (eV):
ik =     1
  -22.9279  -22.9279  -22.4782  -22.4782  -21.8626  -21.8626  -21.3134  -21.3134  -15.1131  -15.1131
  -14.1659  -14.1659  -13.6515  -13.6515  -13.1423  -13.1423  -11.9153  -11.9153  -11.5074  -11.5074
  -10.6346  -10.6346   -9.6880   -9.6880   -9.3414   -9.3414   -9.0949   -9.0949   -9.0681   -9.0681
   -8.5991   -8.5991   -8.3626   -8.3626   -8.0590   -8.0590   -7.7894   -7.7894   -7.3228   -7.3228
   -6.8697   -6.8697   -6.7265   -6.7265   -6.3693   -6.3693   -5.7831   -5.7831   -3.5676   -3.5676
   -2.7023   -2.7023   -2.3155   -2.3155   -2.0656   -2.0656   -1.8237   -1.8237   -1.6032   -1.6032
   -1.0482   -1.0482   -0.1323   -0.1323    0.0340    0.0340    0.0726    0.0726    0.3320    0.3320
    0.5783    0.5783    0.6630    0.6630    1.3937    1.3937    1.4491    1.4491    1.5938    1.5938
    2.1489    2.1489    2.9073    2.9073    2.9152    2.9152    3.2483    3.2483    3.2627    3.2627
    3.4963    3.4963    3.7522    3.7522    4.3571    4.3571    4.4443    4.4443    4.7290    4.7290
    5.0519    5.0519    5.5423    5.5423    5.6450    5.6450    6.1718    6.1718    6.2346    6.2346
    6.7742    6.7742    6.7900    6.7900    7.0721    7.0721    7.8240    7.8240    8.0042    8.0042
    8.2163    8.2163    8.5820    8.5820    9.0106    9.0106    9.7309    9.7309    9.8237    9.8237
   10.0748   10.0748   10.1062   10.1062   10.8160   10.8160   11.2953   11.2953   11.7027   11.7027
   11.8333   11.8333   11.9856   11.9856   12.0858   12.0858   12.5297   12.5297   12.5947   12.5947
   13.1045   13.1045   13.2880   13.2880   13.3432   13.3432   14.6806   14.6806   14.9809   14.9809
   15.3013   15.3013   16.2882   16.2882   16.7030   16.7030   16.9305   16.9305   17.2846   17.2846
   18.5341   18.5341   19.0066   19.0066   19.6385   19.6385   20.1694   20.1694   20.7005   20.7005
   21.1767   21.1767   22.1365   22.1365   22.3915   22.3915   23.4300   23.4300   24.2063   24.2063
   24.6143   24.6143   25.2847   25.2847   26.2876   26.2876   26.8391   26.8391   28.3805   28.3805
   28.4958   28.4958   29.3922   29.3922   29.5651   29.5651   30.9859   30.9859   32.0400   32.0400
   33.4246   33.4246   33.9603   33.9603   34.0917   34.0917   34.4734   34.4734   35.1738   35.1738
   35.5846   35.5846   36.2236   36.2236   37.8401   37.8401   38.6800   38.6800   38.7191   38.7191
   39.3509   39.3509   41.4001   41.4001   41.9190   41.9191   43.1202   43.1202   45.0379   45.0379
   46.0207   46.0207   47.5643   47.5643   47.6360   47.6361   49.1154   49.1154   49.3152   49.3152
   50.1951   50.1951   50.2583   50.2583   50.6665   50.6665   52.2483   52.2483   53.5554   53.5554
   54.9848   54.9848   55.4706   55.4706   56.2676   56.2676   56.3986   56.3986   58.4842   58.4842
   58.6529   58.6529   63.5054   63.5054   66.1745   66.1745   67.7260   67.7260   69.1455   69.1455
   71.8067   71.8067   90.6805   90.6805   91.6380   91.6380   96.7993   96.7993  100.4165  100.4165
  120.0606  120.0606  135.0431  135.0431
siesta: Fermi energy =      -4.519751 eV

siesta: Program's energy decomposition (eV):
siesta: Ebs     =      -563.572232
siesta: Eions   =      1908.291957
siesta: Ena     =       161.792130
siesta: Ekin    =      1441.001342
siesta: Enl     =     -1204.935151
siesta: Eso     =        -0.002415
siesta: Edftu   =         0.000000
siesta: DEna    =         7.989329
siesta: DUscf   =         6.877221
siesta: DUext   =         0.000000
siesta: Exc     =      -543.797036
siesta: eta*DQ  =         0.000000
siesta: Emadel  =         0.000000
siesta: Emeta   =         0.000000
siesta: Emolmec =         0.000000
siesta: Ekinion =         0.000000
siesta: Eharris =     -2039.366538
siesta: Etot    =     -2039.366538
siesta: FreeEng =     -2039.366538

siesta: Final energy (eV):
siesta:  Band Struct. =    -563.572232
siesta:       Kinetic =    1441.001342
siesta:       Hartree =    3110.580321
siesta:       Edftu   =       0.000000
siesta:       Eso     =      -0.002415
siesta:    Ext. field =       0.000000
siesta:   Exch.-corr. =    -543.797036
siesta:  Ion-electron =   -7520.218361
siesta:       Ion-ion =    1473.069611
siesta:       Ekinion =       0.000000
siesta:         Total =   -2039.366538
siesta:         Fermi =      -4.519751

siesta: Atomic forces (eV/Ang):
siesta:      1   -0.001131   -0.000641   -0.000424
siesta:      2    0.001086    0.000178   -0.000223
siesta:      3   -0.000105   -0.002212    0.004022
siesta:      4    0.002211   -0.001830   -0.001777
siesta:      5    0.002125    0.000107   -0.007716
siesta:      6   -0.001267    0.000404   -0.016211
siesta:      7   -0.000455    0.002256    0.001589
siesta:      8    0.000651    0.000232    0.001326
siesta:      9    0.003689   -0.003213   -0.002763
siesta:     10    0.001206   -0.000406   -0.002202
siesta:     11    0.001814    0.001888    0.000422
siesta:     12    0.000150   -0.000645    0.000344
siesta:     13    0.000500   -0.000478    0.000160
siesta:     14   -0.000621   -0.000262   -0.000226
siesta:     15    0.002168    0.001251    0.000162
siesta: ----------------------------------------
siesta:    Tot    0.012021   -0.003373   -0.023516

siesta: Stress tensor (static) (eV/Ang**3):
siesta:    -0.001414    0.000179    0.000011
siesta:     0.000179   -0.000626   -0.000019
siesta:     0.000011   -0.000019   -0.000281

siesta: Cell volume =       2447.125524 Ang**3

siesta: Pressure (static):
siesta:                Solid            Molecule  Units
siesta:           0.00000843          0.00000847  Ry/Bohr**3
siesta:           0.00077375          0.00077734  eV/Ang**3
siesta:           1.23969706          1.24544976  kBar
(Free)E+ p_basis*V_orbitals  =       -2028.920323
(Free)Eharris+ p_basis*V_orbitals  =       -2028.920323
     spin moment: S , {S} =    0.00000  -0.00000   0.00000   0.00000

siesta: Electric dipole (a.u.)  =   -0.435043    2.670336   -0.003088
siesta: Electric dipole (Debye) =   -1.105769    6.787321   -0.007849

cite: Please see "Thymine.bib" for an exhaustive BiBTeX file.
cite: Please clearly indicate Siesta version in published work: v4.1.5-1-g384057250
cite: This calculation has made use of the following articles
cite: which are encouraged to be cited in a published work.
        Primary SIESTA paper
          DOI: www.doi.org/10.1088/0953-8984/14/11/302
        Spin-orbit coupling (on-site approximation)
          DOI: www.doi.org/10.1088/0953-8984/19/19/489001


WARNING: alloc-realloc-dealloc name mismatch
         Name: atomlist isa
         Size:               -60. Bytes
         Node:     0
         Subsequent mismatches will not be reported
>> End of run:  15-OCT-2023   9:34:29
Job completed
