Siesta Version  : v4.1.5-1-g384057250
Architecture    : gcc
Compiler version: GNU Fortran (Ubuntu 11.3.0-1ubuntu1~22.04) 11.3.0
Compiler flags  : mpifort -O2 -fPIC -ftree-vectorize -fallow-argument-mismatch
PP flags        : -DFC_HAVE_ABORT -DMPI -DSIESTA__FLOOK -DSIESTA__METIS -DSIESTA__MUMPS -DCDF -DNCDF -DNCDF_4 -DNCDF_PARALLEL -DSIESTA__MRRR -DSIESTA__ELPA
Libraries       : libncdf.a libfdict.a  -lflookall -ldl -lnetcdff -lnetcdf -lhdf5_hl -lhdf5 -lhdf5_fortran -lz -lscalapack-openmpi -lopenblas -lmetis -lzmumps -lcmumps -ldmumps -lmumps_common -lpord -lsmumps -lesmumps -lscotch -lscotcherr -fopenmp -lelpa
PARALLEL version
NetCDF support
NetCDF-4 support
NetCDF-4 MPI-IO support
METIS ordering support
Lua support

* Running on 4 nodes in parallel
>> Start of run:  28-JUN-2023  16:16:27

                           ***********************       
                           *  WELCOME TO SIESTA  *       
                           ***********************       

reinit: Reading from standard input
reinit: Dumped input in INPUT_TMP.28366
************************** Dump of input data file ****************************
SystemLabel      GC
NumberOfAtoms    29
NumberOfSpecies  4
%block ChemicalSpeciesLabel
    1    8  O
    2    7  N
    3   14  Si
    4    1  H
%endblock ChemicalSpeciesLabel
# Single point calculation
MD.TypeOfRun                CG
MD.Steps                    0
SCF.MustConverge            F # In case it does not. There can be 2 very close atoms
AtomicCoordinatesFormat NotScaledCartesianAng
%block AtomicCoordinatesAndAtomicSpecies
1.043624880    3.939228610    0.000000000       1
-3.040641290   1.071078170    0.000000000       2
2.054601450    1.213582070    0.000000000       2
0.999014100    -1.732643800   0.000000000       2
-2.132351640   -1.812968220   0.000000000       2
3.860190550    -1.112298180   0.000000000       2
-1.236183220   1.152964460    0.000000000       3
-0.532924260   -0.939006270   0.000000000       3
0.635660470    2.374516770    0.000000000       3
2.245170240    -0.549967100   0.000000000       3
-3.449816660   -0.583665030   0.000000000       3
2.963714090    1.790992630    0.000000000       4
-4.845591350   -1.123549660   0.000000000       4
4.007020910    -2.152308560   0.000000000       4
4.772194380    -0.502318160   0.000000000       4
-2.265399090   -2.864605110   0.000000000       4
7.899976199    6.923753319    0.000000000       3
9.804860169    8.130392259    0.000000000       3
9.309106029    4.157418349    0.000000000       3
11.386576319   6.626635509    0.000000000       3
7.959598869    5.206325749    0.000000000       2
6.360841139    7.677430629    0.000000000       2
10.961401289   4.887255569    0.000000000       2
9.996204969    9.622546009    0.000000000       4
12.870944299   6.845366329    0.000000000       4
6.249495859    8.726625739    0.000000000       4
5.428283429    7.052516449    0.000000000       4
9.298879199    2.549307229    0.000000000       1
11.736827169   4.160564009    0.000000000       4
%endblock AtomicCoordinatesAndAtomicSpecies
%include ../../../Defaults.fdf
************************** End of input data file *****************************

reinit: -----------------------------------------------------------------------
reinit: System Name: 
reinit: -----------------------------------------------------------------------
reinit: System Label: GC
reinit: -----------------------------------------------------------------------

initatom: Reading input for the pseudopotentials and atomic orbitals ----------
Species number:   1 Atomic number:    8 Label: O
Species number:   2 Atomic number:    7 Label: N
Species number:   3 Atomic number:   14 Label: Si
Species number:   4 Atomic number:    1 Label: H

Ground state valence configuration:   2s02  2p04
Reading pseudopotential information in formatted form from O.psf

Pseudopotential generated from a relativistic atomic calculation

Valence configuration for pseudopotential generation:
2s( 2.00) rc: 0.45
2p( 4.00) rc: 0.92
3d( 0.00) rc: 2.24
4f( 0.00) rc: 0.25
Ground state valence configuration:   2s02  2p03
Reading pseudopotential information in formatted form from N.psf

Pseudopotential generated from a relativistic atomic calculation

Valence configuration for pseudopotential generation:
2s( 2.00) rc: 0.94
2p( 3.00) rc: 0.59
3d( 0.00) rc: 3.46
4f( 0.00) rc: 2.47
Ground state valence configuration:   3s02  3p02
Reading pseudopotential information in formatted form from Si.psf

Pseudopotential generated from a relativistic atomic calculation

Valence configuration for pseudopotential generation:
3s( 2.00) rc: 1.67
3p( 2.00) rc: 2.04
3d( 0.00) rc: 2.89
4f( 0.00) rc: 2.49
Ground state valence configuration:   1s01
Reading pseudopotential information in formatted form from H.psf

Pseudopotential generated from a relativistic atomic calculation

Valence configuration for pseudopotential generation:
1s( 1.00) rc: 0.01
2p( 0.00) rc: 0.60
3d( 0.00) rc: 1.99
4f( 0.00) rc: 2.49
For O, standard SIESTA heuristics set lmxkb to 3
 (one more than the basis l, including polarization orbitals).
Use PS.lmax or PS.KBprojectors blocks to override.
For N, standard SIESTA heuristics set lmxkb to 3
 (one more than the basis l, including polarization orbitals).
Use PS.lmax or PS.KBprojectors blocks to override.
For Si, standard SIESTA heuristics set lmxkb to 3
 (one more than the basis l, including polarization orbitals).
Use PS.lmax or PS.KBprojectors blocks to override.
For H, standard SIESTA heuristics set lmxkb to 2
 (one more than the basis l, including polarization orbitals).
Use PS.lmax or PS.KBprojectors blocks to override.

<basis_specs>
===============================================================================
O                    Z=   8    Mass=  16.000        Charge= 0.17977+309
Lmxo=1 Lmxkb= 3    BasisType=split      Semic=F
L=0  Nsemic=0  Cnfigmx=2
          i=1  nzeta=2  polorb=0  (2s)
            splnorm:   0.28000    
               vcte:    0.0000    
               rinn:    0.0000    
               qcoe:    0.0000    
               qyuk:    0.0000    
               qwid:   0.10000E-01
                rcs:    0.0000      0.0000    
            lambdas:    1.0000      1.0000    
L=1  Nsemic=0  Cnfigmx=2
          i=1  nzeta=2  polorb=1  (2p)
            splnorm:   0.28000    
               vcte:    0.0000    
               rinn:    0.0000    
               qcoe:    0.0000    
               qyuk:    0.0000    
               qwid:   0.10000E-01
                rcs:    0.0000      0.0000    
            lambdas:    1.0000      1.0000    
-------------------------------------------------------------------------------
L=0  Nkbl=1  erefs: 0.17977+309
L=1  Nkbl=1  erefs: 0.17977+309
L=2  Nkbl=1  erefs: 0.17977+309
L=3  Nkbl=1  erefs: 0.17977+309
===============================================================================
</basis_specs>

atom: Called for O                     (Z =   8)

read_vps: Pseudopotential generation method:
read_vps: ATM4.2.7  Troullier-Martins                       
Valence charge for ps generation:    6.00000

xc_check: Exchange-correlation functional:
xc_check: GGA Perdew, Burke & Ernzerhof 1996
V l=0 = -2*Zval/r beyond r=  1.1000
V l=1 = -2*Zval/r beyond r=  1.1000
V l=2 = -2*Zval/r beyond r=  2.2154
V l=3 = -2*Zval/r beyond r=  1.1000
All V_l potentials equal beyond r=  2.2154
This should be close to max(r_c) in ps generation
All pots = -2*Zval/r beyond r=  2.2154

VLOCAL1: 99.0% of the norm of Vloc inside      8.845 Ry
VLOCAL1: 99.9% of the norm of Vloc inside     20.157 Ry
atom: Maximum radius for 4*pi*r*r*local-pseudopot. charge    2.67231
atom: Maximum radius for r*vlocal+2*Zval:    2.32897
GHOST: No ghost state for L =  0
GHOST: No ghost state for L =  1
GHOST: No ghost state for L =  2
GHOST: No ghost state for L =  3

KBgen: Kleinman-Bylander projectors: 
   l= 0   rc=  2.243238   el= -1.759686   Ekb=**********   kbcos= -0.171774
   l= 1   rc=  2.328968   el= -0.663873   Ekb=-14.506792   kbcos= -0.519897
   l= 2   rc=  2.573941   el=  0.002031   Ekb= -1.137373   kbcos= -0.019581
   l= 3   rc=  2.606321   el=  0.003153   Ekb= -1.013546   kbcos= -0.003122

KBgen: Total number of Kleinman-Bylander projectors:   16
atom: -------------------------------------------------------------------------

atom: SANKEY-TYPE ORBITALS:
atom: Selected multiple-zeta basis: split     

SPLIT: Orbitals with angular momentum L= 0

SPLIT: Basis orbitals for state 2s

SPLIT: PAO cut-off radius determined from an
SPLIT: energy shift=  0.002000 Ry

   izeta = 1
                 lambda =    1.000000
                     rc =    4.243912
                 energy =   -1.758270
                kinetic =    3.286084
    potential(screened) =   -5.044353
       potential(ionic) =  -12.921184

   izeta = 2
                 rmatch =    2.187845
              splitnorm =    0.280000
                 energy =   -0.885018
                kinetic =    8.134434
    potential(screened) =   -9.019452
       potential(ionic) =  -17.710645

SPLIT: Orbitals with angular momentum L= 1

SPLIT: Basis orbitals for state 2p

SPLIT: PAO cut-off radius determined from an
SPLIT: energy shift=  0.002000 Ry

   izeta = 1
                 lambda =    1.000000
                     rc =    5.314825
                 energy =   -0.661986
                kinetic =    4.917472
    potential(screened) =   -5.579458
       potential(ionic) =  -13.236259

   izeta = 2
                 rmatch =    2.160663
              splitnorm =    0.280000
                 energy =   -0.068760
                kinetic =    9.183374
    potential(screened) =   -9.252135
       potential(ionic) =  -18.274251

POLgen: Perturbative polarization orbital with L=  2

POLgen: Polarization orbital for state 2p

   izeta = 1
                     rc =    5.314825
                 energy =    1.970580
                kinetic =    3.886128
    potential(screened) =   -1.915547
       potential(ionic) =   -7.749584
atom: Total number of Sankey-type orbitals: 13

atm_pop: Valence configuration (for local Pseudopot. screening):
 2s( 2.00)                                                            
 2p( 4.00)                                                            
Vna: chval, zval:    6.00000   6.00000

Vna:  Cut-off radius for the neutral-atom potential:   5.314825

atom: _________________________________________________________________________

<basis_specs>
===============================================================================
N                    Z=   7    Mass=  14.010        Charge= 0.17977+309
Lmxo=1 Lmxkb= 3    BasisType=split      Semic=F
L=0  Nsemic=0  Cnfigmx=2
          i=1  nzeta=2  polorb=0  (2s)
            splnorm:   0.28000    
               vcte:    0.0000    
               rinn:    0.0000    
               qcoe:    0.0000    
               qyuk:    0.0000    
               qwid:   0.10000E-01
                rcs:    0.0000      0.0000    
            lambdas:    1.0000      1.0000    
L=1  Nsemic=0  Cnfigmx=2
          i=1  nzeta=2  polorb=1  (2p)
            splnorm:   0.28000    
               vcte:    0.0000    
               rinn:    0.0000    
               qcoe:    0.0000    
               qyuk:    0.0000    
               qwid:   0.10000E-01
                rcs:    0.0000      0.0000    
            lambdas:    1.0000      1.0000    
-------------------------------------------------------------------------------
L=0  Nkbl=1  erefs: 0.17977+309
L=1  Nkbl=1  erefs: 0.17977+309
L=2  Nkbl=1  erefs: 0.17977+309
L=3  Nkbl=1  erefs: 0.17977+309
===============================================================================
</basis_specs>

atom: Called for N                     (Z =   7)

read_vps: Pseudopotential generation method:
read_vps: ATM4.2.7  Troullier-Martins                       
Valence charge for ps generation:    5.00000

xc_check: Exchange-correlation functional:
xc_check: GGA Perdew, Burke & Ernzerhof 1996
V l=0 = -2*Zval/r beyond r=  1.2889
V l=1 = -2*Zval/r beyond r=  1.2889
V l=2 = -2*Zval/r beyond r=  3.4178
V l=3 = -2*Zval/r beyond r=  2.4084
All V_l potentials equal beyond r=  3.3753
This should be close to max(r_c) in ps generation
All pots = -2*Zval/r beyond r=  3.4178

VLOCAL1: 99.0% of the norm of Vloc inside      3.810 Ry
VLOCAL1: 99.9% of the norm of Vloc inside      8.683 Ry
atom: Maximum radius for 4*pi*r*r*local-pseudopot. charge    4.02088
atom: Maximum radius for r*vlocal+2*Zval:    3.54838
GHOST: No ghost state for L =  0
GHOST: No ghost state for L =  1
GHOST: No ghost state for L =  2
GHOST: No ghost state for L =  3

KBgen: Kleinman-Bylander projectors: 
   l= 0   rc=  3.417763   el= -1.365098   Ekb= -4.433130   kbcos= -0.707855
   l= 1   rc=  3.375302   el= -0.521201   Ekb=-13.264039   kbcos= -0.535594
   l= 2   rc=  3.872880   el=  0.001991   Ekb= -0.641094   kbcos= -0.062456
   l= 3   rc=  3.970931   el=  0.003093   Ekb= -0.474517   kbcos= -0.018236

KBgen: Total number of Kleinman-Bylander projectors:   16
atom: -------------------------------------------------------------------------

atom: SANKEY-TYPE ORBITALS:
atom: Selected multiple-zeta basis: split     

SPLIT: Orbitals with angular momentum L= 0

SPLIT: Basis orbitals for state 2s

SPLIT: PAO cut-off radius determined from an
SPLIT: energy shift=  0.002000 Ry

   izeta = 1
                 lambda =    1.000000
                     rc =    4.730425
                 energy =   -1.363399
                kinetic =    1.245246
    potential(screened) =   -2.608645
       potential(ionic) =   -8.121105

   izeta = 2
                 rmatch =    2.531849
              splitnorm =    0.280000
                 energy =   -0.959908
                kinetic =    2.409435
    potential(screened) =   -3.369343
       potential(ionic) =   -9.427975

SPLIT: Orbitals with angular momentum L= 1

SPLIT: Basis orbitals for state 2p

SPLIT: PAO cut-off radius determined from an
SPLIT: energy shift=  0.002000 Ry

   izeta = 1
                 lambda =    1.000000
                     rc =    5.924108
                 energy =   -0.519262
                kinetic =    3.672940
    potential(screened) =   -4.192202
       potential(ionic) =   -9.518354

   izeta = 2
                 rmatch =    2.531849
              splitnorm =    0.280000
                 energy =   -0.104258
                kinetic =    6.807538
    potential(screened) =   -6.911796
       potential(ionic) =  -13.149920

POLgen: Perturbative polarization orbital with L=  2

POLgen: Polarization orbital for state 2p

   izeta = 1
                     rc =    5.924108
                 energy =    1.427508
                kinetic =    2.872379
    potential(screened) =   -1.444871
       potential(ionic) =   -5.563644
atom: Total number of Sankey-type orbitals: 13

atm_pop: Valence configuration (for local Pseudopot. screening):
 2s( 2.00)                                                            
 2p( 3.00)                                                            
Vna: chval, zval:    5.00000   5.00000

Vna:  Cut-off radius for the neutral-atom potential:   5.924108

atom: _________________________________________________________________________

<basis_specs>
===============================================================================
Si                   Z=  14    Mass=  28.090        Charge= 0.17977+309
Lmxo=1 Lmxkb= 3    BasisType=split      Semic=F
L=0  Nsemic=0  Cnfigmx=3
          i=1  nzeta=2  polorb=0  (3s)
            splnorm:   0.28000    
               vcte:    0.0000    
               rinn:    0.0000    
               qcoe:    0.0000    
               qyuk:    0.0000    
               qwid:   0.10000E-01
                rcs:    0.0000      0.0000    
            lambdas:    1.0000      1.0000    
L=1  Nsemic=0  Cnfigmx=3
          i=1  nzeta=2  polorb=1  (3p)
            splnorm:   0.28000    
               vcte:    0.0000    
               rinn:    0.0000    
               qcoe:    0.0000    
               qyuk:    0.0000    
               qwid:   0.10000E-01
                rcs:    0.0000      0.0000    
            lambdas:    1.0000      1.0000    
-------------------------------------------------------------------------------
L=0  Nkbl=1  erefs: 0.17977+309
L=1  Nkbl=1  erefs: 0.17977+309
L=2  Nkbl=1  erefs: 0.17977+309
L=3  Nkbl=1  erefs: 0.17977+309
===============================================================================
</basis_specs>

atom: Called for Si                    (Z =  14)

read_vps: Pseudopotential generation method:
read_vps: ATM4.2.7  Troullier-Martins                       
Valence charge for ps generation:    4.00000

xc_check: Exchange-correlation functional:
xc_check: GGA Perdew, Burke & Ernzerhof 1996
V l=0 = -2*Zval/r beyond r=  2.7826
V l=1 = -2*Zval/r beyond r=  2.7826
V l=2 = -2*Zval/r beyond r=  2.9253
V l=3 = -2*Zval/r beyond r=  2.7826
All V_l potentials equal beyond r=  2.8530
This should be close to max(r_c) in ps generation
All pots = -2*Zval/r beyond r=  2.9253

VLOCAL1: 99.0% of the norm of Vloc inside      5.333 Ry
VLOCAL1: 99.9% of the norm of Vloc inside     12.154 Ry
atom: Maximum radius for 4*pi*r*r*local-pseudopot. charge    3.39869
atom: Maximum radius for r*vlocal+2*Zval:    2.96205
GHOST: No ghost state for L =  0
GHOST: No ghost state for L =  1
GHOST: No ghost state for L =  2
GHOST: No ghost state for L =  3

KBgen: Kleinman-Bylander projectors: 
   l= 0   rc=  3.075247   el= -0.794092   Ekb=  5.879390   kbcos=  0.167461
   l= 1   rc=  3.153101   el= -0.300068   Ekb=  2.642817   kbcos=  0.058301
   l= 2   rc=  3.273594   el=  0.001958   Ekb= -1.185135   kbcos= -0.104411
   l= 3   rc=  3.232927   el=  0.003046   Ekb= -0.497174   kbcos= -0.015889

KBgen: Total number of Kleinman-Bylander projectors:   16
atom: -------------------------------------------------------------------------

atom: SANKEY-TYPE ORBITALS:
atom: Selected multiple-zeta basis: split     

SPLIT: Orbitals with angular momentum L= 0

SPLIT: Basis orbitals for state 3s

SPLIT: PAO cut-off radius determined from an
SPLIT: energy shift=  0.002000 Ry

   izeta = 1
                 lambda =    1.000000
                     rc =    6.429618
                 energy =   -0.792283
                kinetic =    0.525293
    potential(screened) =   -1.317576
       potential(ionic) =   -3.744923

   izeta = 2
                 rmatch =    3.998416
              splitnorm =    0.280000
                 energy =   -0.583081
                kinetic =    1.069570
    potential(screened) =   -1.652651
       potential(ionic) =   -4.235185

SPLIT: Orbitals with angular momentum L= 1

SPLIT: Basis orbitals for state 3p

SPLIT: PAO cut-off radius determined from an
SPLIT: energy shift=  0.002000 Ry

   izeta = 1
                 lambda =    1.000000
                     rc =    8.464845
                 energy =   -0.298236
                kinetic =    0.785360
    potential(screened) =   -1.083596
       potential(ionic) =   -3.273779

   izeta = 2
                 rmatch =    4.587816
              splitnorm =    0.280000
                 energy =   -0.131871
                kinetic =    1.403687
    potential(screened) =   -1.535557
       potential(ionic) =   -4.015310

POLgen: Perturbative polarization orbital with L=  2

POLgen: Polarization orbital for state 3p

   izeta = 1
                     rc =    8.464845
                 energy =    0.321949
                kinetic =    1.055677
    potential(screened) =   -0.733728
       potential(ionic) =   -2.672950
atom: Total number of Sankey-type orbitals: 13

atm_pop: Valence configuration (for local Pseudopot. screening):
 3s( 2.00)                                                            
 3p( 2.00)                                                            
Vna: chval, zval:    4.00000   4.00000

Vna:  Cut-off radius for the neutral-atom potential:   8.464845

atom: _________________________________________________________________________

<basis_specs>
===============================================================================
H                    Z=   1    Mass=  1.0100        Charge= 0.17977+309
Lmxo=0 Lmxkb= 2    BasisType=split      Semic=F
L=0  Nsemic=0  Cnfigmx=1
          i=1  nzeta=2  polorb=1  (1s)
            splnorm:   0.62000    
               vcte:    0.0000    
               rinn:    0.0000    
               qcoe:    0.0000    
               qyuk:    0.0000    
               qwid:   0.10000E-01
                rcs:    0.0000      0.0000    
            lambdas:    1.0000      1.0000    
-------------------------------------------------------------------------------
L=0  Nkbl=1  erefs: 0.17977+309
L=1  Nkbl=1  erefs: 0.17977+309
L=2  Nkbl=1  erefs: 0.17977+309
===============================================================================
</basis_specs>

atom: Called for H                     (Z =   1)

read_vps: Pseudopotential generation method:
read_vps: ATM4.2.7  Troullier-Martins                       
Valence charge for ps generation:    1.00000

xc_check: Exchange-correlation functional:
xc_check: GGA Perdew, Burke & Ernzerhof 1996
V l=0 = -2*Zval/r beyond r=  0.0098
V l=1 = -2*Zval/r beyond r=  0.5817
V l=2 = -2*Zval/r beyond r=  1.9372
All V_l potentials equal beyond r=  1.9372
This should be close to max(r_c) in ps generation
All pots = -2*Zval/r beyond r=  1.9372

VLOCAL1: 99.0% of the norm of Vloc inside     11.567 Ry
VLOCAL1: 99.9% of the norm of Vloc inside     26.362 Ry
atom: Maximum radius for 4*pi*r*r*local-pseudopot. charge    2.25106
atom: Maximum radius for r*vlocal+2*Zval:    1.91306
GHOST: No ghost state for L =  0
GHOST: No ghost state for L =  1
GHOST: No ghost state for L =  2

KBgen: Kleinman-Bylander projectors: 
   l= 0   rc=  2.036604   el= -0.477180   Ekb= -6.081590   kbcos= -0.277285
   l= 1   rc=  2.195416   el=  0.001076   Ekb= -0.926943   kbcos= -0.034643
   l= 2   rc=  2.251056   el=  0.002010   Ekb= -0.130941   kbcos= -0.009788

KBgen: Total number of Kleinman-Bylander projectors:    9
atom: -------------------------------------------------------------------------

atom: SANKEY-TYPE ORBITALS:
atom: Selected multiple-zeta basis: split     

SPLIT: Orbitals with angular momentum L= 0

SPLIT: Basis orbitals for state 1s

SPLIT: PAO cut-off radius determined from an
SPLIT: energy shift=  0.002000 Ry

   izeta = 1
                 lambda =    1.000000
                     rc =    6.518340
                 energy =   -0.475305
                kinetic =    0.912139
    potential(screened) =   -1.387444
       potential(ionic) =   -1.907295

   izeta = 2
                 rmatch =    2.141150
              splitnorm =    0.620000
                 energy =    0.566467
                kinetic =    3.772856
    potential(screened) =   -3.206389
       potential(ionic) =   -3.759093

POLgen: Perturbative polarization orbital with L=  1

POLgen: Polarization orbital for state 1s

   izeta = 1
                     rc =    6.518340
                 energy =    0.533861
                kinetic =    1.121086
    potential(screened) =   -0.587225
       potential(ionic) =   -1.053027
atom: Total number of Sankey-type orbitals:  5

atm_pop: Valence configuration (for local Pseudopot. screening):
 1s( 1.00)                                                            
Vna: chval, zval:    1.00000   1.00000

Vna:  Cut-off radius for the neutral-atom potential:   6.518340

atom: _________________________________________________________________________

prinput: Basis input ----------------------------------------------------------

PAO.BasisType split     

%block ChemicalSpeciesLabel
    1    8 O                       # Species index, atomic number, species label
    2    7 N                       # Species index, atomic number, species label
    3   14 Si                      # Species index, atomic number, species label
    4    1 H                       # Species index, atomic number, species label
%endblock ChemicalSpeciesLabel

%block PAO.Basis                 # Define Basis set
O                     2                    # Species label, number of l-shells
 n=2   0   2                         # n, l, Nzeta 
   4.244      2.188   
   1.000      1.000   
 n=2   1   2 P   1                   # n, l, Nzeta, Polarization, NzetaPol
   5.315      2.161   
   1.000      1.000   
N                     2                    # Species label, number of l-shells
 n=2   0   2                         # n, l, Nzeta 
   4.730      2.532   
   1.000      1.000   
 n=2   1   2 P   1                   # n, l, Nzeta, Polarization, NzetaPol
   5.924      2.532   
   1.000      1.000   
Si                    2                    # Species label, number of l-shells
 n=3   0   2                         # n, l, Nzeta 
   6.430      3.998   
   1.000      1.000   
 n=3   1   2 P   1                   # n, l, Nzeta, Polarization, NzetaPol
   8.465      4.588   
   1.000      1.000   
H                     1                    # Species label, number of l-shells
 n=1   0   2 P   1                   # n, l, Nzeta, Polarization, NzetaPol
   6.518      2.141   
   1.000      1.000   
%endblock PAO.Basis

prinput: ----------------------------------------------------------------------

Dumping basis to NetCDF file O.ion.nc
Dumping basis to NetCDF file N.ion.nc
Dumping basis to NetCDF file Si.ion.nc
Dumping basis to NetCDF file H.ion.nc
coor:   Atomic-coordinates input format  =     Cartesian coordinates
coor:                                          (in Angstroms)

siesta: Atomic coordinates (Bohr) and species
siesta:      1.97217   7.44407   0.00000  1        1
siesta:     -5.74598   2.02405   0.00000  2        2
siesta:      3.88264   2.29334   0.00000  2        3
siesta:      1.88786  -3.27422   0.00000  2        4
siesta:     -4.02956  -3.42601   0.00000  2        5
siesta:      7.29471  -2.10194   0.00000  2        6
siesta:     -2.33605   2.17879   0.00000  3        7
siesta:     -1.00708  -1.77447   0.00000  3        8
siesta:      1.20122   4.48719   0.00000  3        9
siesta:      4.24276  -1.03929   0.00000  3       10
siesta:     -6.51921  -1.10297   0.00000  3       11
siesta:      5.60061   3.38449   0.00000  4       12
siesta:     -9.15684  -2.12320   0.00000  4       13
siesta:      7.57218  -4.06728   0.00000  4       14
siesta:      9.01814  -0.94924   0.00000  4       15
siesta:     -4.28099  -5.41332   0.00000  4       16
siesta:     14.92880  13.08400   0.00000  3       17
siesta:     18.52851  15.36422   0.00000  3       18
siesta:     17.59167   7.85639   0.00000  3       19
siesta:     21.51752  12.52253   0.00000  3       20
siesta:     15.04147   9.83853   0.00000  2       21
siesta:     12.02025  14.50825   0.00000  2       22
siesta:     20.71405   9.23558   0.00000  2       23
siesta:     18.89010  18.18398   0.00000  4       24
siesta:     24.32257  12.93587   0.00000  4       25
siesta:     11.80984  16.49094   0.00000  4       26
siesta:     10.25797  13.32733   0.00000  4       27
siesta:     17.57234   4.81749   0.00000  1       28
siesta:     22.17940   7.86233   0.00000  4       29

siesta: Automatic unit cell vectors (Ang):
siesta:   27.076772    0.000000    0.000000
siesta:    0.000000   21.324449    0.000000
siesta:    0.000000    0.000000    9.854683

siesta: System type = molecule  

initatomlists: Number of atoms, orbitals, and projectors:     29   297   394

siesta: ******************** Simulation parameters ****************************
siesta:
siesta: The following are some of the parameters of the simulation.
siesta: A complete list of the parameters used, including default values,
siesta: can be found in file out.fdf
siesta:
redata: Spin configuration                          = spin-orbit
redata: Number of spin components                   = 8
redata: Time-Reversal Symmetry                      = F
redata: Spin spiral                                 = F
############################################################
This spin-orbit implementation uses a local approximation.
From 4.2 and onwards the full non-local approximation is implemented
You are strongly advised to use >=4.2 versions!
############################################################
redata: Long output                                 =   F
redata: Number of Atomic Species                    =        4
redata: Charge density info will appear in .RHO file
redata: Write Mulliken Pop.                         = Atomic and Orbital charges
redata: Matel table size (NRTAB)                    =     1024
redata: Mesh Cutoff                                 =   340.0000 Ry
redata: Net charge of the system                    =     0.0000 |e|
redata: Min. number of SCF Iter                     =        1
redata: Max. number of SCF Iter                     =      200
redata: SCF mix quantity                            = Hamiltonian
redata: Mix DM or H after convergence               =   F
redata: Recompute H after scf cycle                 =   F
redata: Mix DM in first SCF step                    =   T
redata: Write Pulay info on disk                    =   F
redata: New DM Occupancy tolerance                  = 0.000000000001
redata: No kicks to SCF
redata: DM Mixing Weight for Kicks                  =     0.5000
redata: Require Harris convergence for SCF          =   F
redata: Harris energy tolerance for SCF             =     0.000100 eV
redata: Require DM convergence for SCF              =   T
redata: DM tolerance for SCF                        =     0.000008
redata: Require EDM convergence for SCF             =   F
redata: EDM tolerance for SCF                       =     0.001000 eV
redata: Require H convergence for SCF               =   T
redata: Hamiltonian tolerance for SCF               =     0.000001 eV
redata: Require (free) Energy convergence for SCF   =   F
redata: (free) Energy tolerance for SCF             =     0.000100 eV
redata: Using Saved Data (generic)                  =   F
redata: Use continuation files for DM               =   F
redata: Neglect nonoverlap interactions             =   F
redata: Method of Calculation                       = Diagonalization
redata: Electronic Temperature                      =   299.9978 K
redata: Fix the spin of the system                  =   F
redata: Dynamics option                             = Single-point calculation
mix.SCF: Pulay mixing                            = Pulay
mix.SCF:    Variant                              = stable
mix.SCF:    History steps                        = 6
mix.SCF:    Linear mixing weight                 =     0.250000
mix.SCF:    Mixing weight                        =     0.250000
mix.SCF:    SVD condition                        = 0.1000E-07
mix.SCF:    Restart steps                        = 24
mix.SCF:    Restart save steps                   = 3
mix.SCF: Spin-component mixing                   all
redata: Save all siesta data in one NC              =   F
redata: ***********************************************************************

%block SCF.Mixers
  Pulay
%endblock SCF.Mixers

%block SCF.Mixer.Pulay
  # Mixing method
  method pulay
  variant stable

  # Mixing options
  weight 0.2500
  weight.linear 0.2500
  history 6
  restart 24
  restart.save 3
%endblock SCF.Mixer.Pulay

DM_history_depth set to one: no extrapolation allowed by default for geometry relaxation
Size of DM history Fstack: 1
Total number of electrons:    98.000000
Total ionic charge:    98.000000

* ProcessorY, Blocksize:    2  24


* Orbital distribution balance (max,min):    81    72


Time-reversal symmetry not used.

siesta: k-grid: Number of k-points =     1
siesta: k-grid: Cutoff (effective) =     4.927 Ang
siesta: k-grid: Supercell and displacements
siesta: k-grid:    1   0   0      0.000
siesta: k-grid:    0   1   0      0.000
siesta: k-grid:    0   0   1      0.000

diag: Algorithm                                     = ELPA-1stage
diag: Parallel over k                               =   F
diag: Use parallel 2D distribution                  =   T
diag: Parallel block-size                           = 24
diag: Parallel distribution                         =     2 x     2
diag: Used triangular part                          = Lower
diag: Absolute tolerance                            =  0.100E-15
diag: Orthogonalization factor                      =  0.100E-05
diag: Memory factor                                 =  1.0000


ts: **************************************************************
ts: Save H and S matrices                           =    F
ts: Save DM and EDM matrices                        =    F
ts: Only save the overlap matrix S                  =    F
ts: **************************************************************

************************ Begin: TS CHECKS AND WARNINGS ************************
************************ End: TS CHECKS AND WARNINGS **************************


                     ====================================
                        Single-point calculation
                     ====================================

outcoor: Atomic coordinates (Ang):                          
    1.04362488    3.93922861    0.00000000   1       1  O
   -3.04064129    1.07107817    0.00000000   2       2  N
    2.05460145    1.21358207    0.00000000   2       3  N
    0.99901410   -1.73264380    0.00000000   2       4  N
   -2.13235164   -1.81296822    0.00000000   2       5  N
    3.86019055   -1.11229818    0.00000000   2       6  N
   -1.23618322    1.15296446    0.00000000   3       7  Si
   -0.53292426   -0.93900627    0.00000000   3       8  Si
    0.63566047    2.37451677    0.00000000   3       9  Si
    2.24517024   -0.54996710    0.00000000   3      10  Si
   -3.44981666   -0.58366503    0.00000000   3      11  Si
    2.96371409    1.79099263    0.00000000   4      12  H
   -4.84559135   -1.12354966    0.00000000   4      13  H
    4.00702091   -2.15230856    0.00000000   4      14  H
    4.77219438   -0.50231816    0.00000000   4      15  H
   -2.26539909   -2.86460511    0.00000000   4      16  H
    7.89997620    6.92375332    0.00000000   3      17  Si
    9.80486017    8.13039226    0.00000000   3      18  Si
    9.30910603    4.15741835    0.00000000   3      19  Si
   11.38657632    6.62663551    0.00000000   3      20  Si
    7.95959887    5.20632575    0.00000000   2      21  N
    6.36084114    7.67743063    0.00000000   2      22  N
   10.96140129    4.88725557    0.00000000   2      23  N
    9.99620497    9.62254601    0.00000000   4      24  H
   12.87094430    6.84536633    0.00000000   4      25  H
    6.24949586    8.72662574    0.00000000   4      26  H
    5.42828343    7.05251645    0.00000000   4      27  H
    9.29887920    2.54930723    0.00000000   1      28  O
   11.73682717    4.16056401    0.00000000   4      29  H

outcell: Unit cell vectors (Ang):
       27.076772    0.000000    0.000000
        0.000000   21.324449    0.000000
        0.000000    0.000000    9.854683

outcell: Cell vector modules (Ang)   :   27.076772   21.324449    9.854683
outcell: Cell angles (23,13,12) (deg):     90.0000     90.0000     90.0000
outcell: Cell volume (Ang**3)        :   5690.0670
<dSpData1D:S at geom step 0
  <sparsity:sparsity for geom step 0
    nrows_g=297 nrows=81 sparsity=.1415 nnzs=12485, refcount: 8>
  <dData1D:(new from dSpData1D) n=12485, refcount: 1>
refcount: 1>
new_DM -- step:     1
Initializing Density Matrix...
DM filled with atomic data:
<dSpData2D:DM initialized from atoms
  <sparsity:sparsity for geom step 0
    nrows_g=297 nrows=81 sparsity=.1415 nnzs=12485, refcount: 9>
  <dData2D:DM n=12485 m=8, refcount: 1>
refcount: 1>
     spin moment: S , {S} =   56.00000   0.00000   0.00000  56.00000
No. of atoms with KB's overlaping orbs in proc 0. Max # of overlaps:      29     142

Initializing spin-orbit part of the Hamiltonian
  Adding spin-orbit effects for O 
  Adding spin-orbit effects for N 
  Adding spin-orbit effects for Si
  Adding spin-orbit effects for H 


New grid distribution:   1
           1       1:  160    1:   60    1:   30
           2       1:  160    1:   60   31:   60
           3       1:  160   61:  120    1:   30
           4       1:  160   61:  120   31:   60

InitMesh: MESH =   320 x   240 x   120 =     9216000
InitMesh: (bp) =   160 x   120 x    60 =     1152000
InitMesh: Mesh cutoff (required, used) =   340.000   350.081 Ry
ExtMesh (bp) on 0 =   268 x   164 x   142 =     6241184
New grid distribution:   2
           1      56:  160    1:   35    1:   60
           2       1:   55    1:   36    1:   60
           3      56:  160   36:  120    1:   60
           4       1:   55   37:  120    1:   60
New grid distribution:   3
           1      58:  160    1:   38    1:   60
           2       1:   57    1:   39    1:   60
           3      58:  160   39:  120    1:   60
           4       1:   57   40:  120    1:   60
Setting up quadratic distribution...
ExtMesh (bp) on 0 =   213 x   139 x   172 =     5092404
PhiOnMesh: Number of (b)points on node 0 =               220500
PhiOnMesh: nlist on node 0 =              2561713

stepf: Fermi-Dirac step function

siesta: Program's energy decomposition (eV):
siesta: Ebs     =      -623.389021
siesta: Eions   =      3585.165840
siesta: Ena     =       382.019161
siesta: Ekin    =      3369.446466
siesta: Enl     =     -3298.030600
siesta: Eso     =        -0.003411
siesta: Edftu   =         0.000000
siesta: DEna    =       153.681627
siesta: DUscf   =        81.876533
siesta: DUext   =         0.000000
siesta: Exc     =     -1204.088236
siesta: eta*DQ  =         0.000000
siesta: Emadel  =         0.000000
siesta: Emeta   =         0.000000
siesta: Emolmec =         0.000000
siesta: Ekinion =         0.000000
siesta: Eharris =     -4020.304204
siesta: Etot    =     -4100.264299
siesta: FreeEng =     -4100.265721

        iscf     Eharris(eV)        E_KS(eV)     FreeEng(eV)     dDmax    Ef(eV) dHmax(eV)
   scf:    1    -4020.304204    -4100.264299    -4100.265721  0.965008 -4.904565 21.850099
     spin moment: S , {S} =    2.00726   0.00000   0.00000   2.00726
timer: Routine,Calls,Time,% = IterSCF        1      13.317  18.90
   scf:    2    -4146.889870    -4135.710146    -4135.711954  0.450335 -4.229269 11.640333
     spin moment: S , {S} =    1.98904   0.00000   0.00000   1.98904
   scf:    3    -4106.310796    -4132.998290    -4133.015012  0.421045 -4.338655 12.125782
     spin moment: S , {S} =    2.13150  -0.00000   0.00000   2.13150
   scf:    4    -4149.619629    -4144.843585    -4144.843586  0.317599 -3.906132  7.125923
     spin moment: S , {S} =    0.00010  -0.00000  -0.00000   0.00010
   scf:    5    -4146.196537    -4145.625781    -4145.625781  0.036607 -3.689285  4.560707
     spin moment: S , {S} =    0.00006   0.00000  -0.00000   0.00006
   scf:    6    -4146.396117    -4146.020286    -4146.020286  0.024305 -3.606859  2.239474
     spin moment: S , {S} =    0.00003  -0.00000   0.00000   0.00003
   scf:    7    -4146.376293    -4146.194593    -4146.194593  0.021665 -3.507278  0.885893
     spin moment: S , {S} =    0.00001   0.00000  -0.00000   0.00001
   scf:    8    -4146.313852    -4146.252220    -4146.252220  0.012296 -3.751059  0.507556
     spin moment: S , {S} =    0.00000  -0.00000  -0.00000   0.00000
   scf:    9    -4146.290861    -4146.270852    -4146.270852  0.006531 -3.707481  0.386590
     spin moment: S , {S} =    0.00000  -0.00000  -0.00000   0.00000
   scf:   10    -4146.322875    -4146.290293    -4146.290293  0.022006 -3.796260  0.234627
     spin moment: S , {S} =    0.00000   0.00000   0.00000  -0.00000
   scf:   11    -4146.294135    -4146.292225    -4146.292225  0.005656 -3.783855  0.063139
     spin moment: S , {S} =    0.00000   0.00000   0.00000  -0.00000
   scf:   12    -4146.293424    -4146.292838    -4146.292838  0.001009 -3.779263  0.028223
     spin moment: S , {S} =    0.00000   0.00000   0.00000  -0.00000
   scf:   13    -4146.293337    -4146.293084    -4146.293084  0.001231 -3.778694  0.018555
     spin moment: S , {S} =    0.00000   0.00000   0.00000  -0.00000
   scf:   14    -4146.293349    -4146.293210    -4146.293210  0.000949 -3.775942  0.010604
     spin moment: S , {S} =    0.00000   0.00000   0.00000  -0.00000
   scf:   15    -4146.293314    -4146.293259    -4146.293259  0.000823 -3.777442  0.007817
     spin moment: S , {S} =    0.00000   0.00000   0.00000  -0.00000
   scf:   16    -4146.293328    -4146.293289    -4146.293289  0.000868 -3.776817  0.005535
     spin moment: S , {S} =    0.00000   0.00000   0.00000   0.00000
   scf:   17    -4146.293306    -4146.293297    -4146.293297  0.000403 -3.776729  0.004144
     spin moment: S , {S} =    0.00000   0.00000   0.00000   0.00000
   scf:   18    -4146.293306    -4146.293301    -4146.293301  0.000316 -3.776938  0.002631
     spin moment: S , {S} =    0.00000   0.00000   0.00000   0.00000
   scf:   19    -4146.293305    -4146.293303    -4146.293303  0.000226 -3.777092  0.001801
     spin moment: S , {S} =    0.00000   0.00000   0.00000   0.00000
   scf:   20    -4146.293305    -4146.293304    -4146.293304  0.000148 -3.777109  0.001228
     spin moment: S , {S} =    0.00000   0.00000   0.00000   0.00000
   scf:   21    -4146.293305    -4146.293304    -4146.293304  0.000190 -3.777079  0.000559
     spin moment: S , {S} =    0.00000   0.00000   0.00000   0.00000
   scf:   22    -4146.293305    -4146.293305    -4146.293305  0.000100 -3.777048  0.000225
     spin moment: S , {S} =    0.00000   0.00000   0.00000   0.00000
   scf:   23    -4146.293305    -4146.293305    -4146.293305  0.000027 -3.777044  0.000176
     spin moment: S , {S} =    0.00000   0.00000   0.00000   0.00000
   scf:   24    -4146.293305    -4146.293305    -4146.293305  0.000011 -3.777052  0.000092
     spin moment: S , {S} =    0.00000   0.00000   0.00000   0.00000
mix: Pulay -- resetting history
   scf:   25    -4146.293305    -4146.293305    -4146.293305  0.000005 -3.777057  0.000042
     spin moment: S , {S} =    0.00000   0.00000   0.00000   0.00000
   scf:   26    -4146.293305    -4146.293305    -4146.293305  0.000002 -3.777057  0.000033
     spin moment: S , {S} =    0.00000   0.00000   0.00000   0.00000
   scf:   27    -4146.293305    -4146.293305    -4146.293305  0.000002 -3.777055  0.000020
     spin moment: S , {S} =    0.00000   0.00000   0.00000   0.00000
   scf:   28    -4146.293305    -4146.293305    -4146.293305  0.000002 -3.777053  0.000011
     spin moment: S , {S} =    0.00000   0.00000   0.00000   0.00000
   scf:   29    -4146.293305    -4146.293305    -4146.293305  0.000001 -3.777052  0.000007
     spin moment: S , {S} =    0.00000   0.00000   0.00000   0.00000
   scf:   30    -4146.293305    -4146.293305    -4146.293305  0.000001 -3.777052  0.000003
     spin moment: S , {S} =    0.00000   0.00000   0.00000   0.00000
   scf:   31    -4146.293305    -4146.293305    -4146.293305  0.000001 -3.777052  0.000002
     spin moment: S , {S} =    0.00000   0.00000   0.00000   0.00000
   scf:   32    -4146.293305    -4146.293305    -4146.293305  0.000000 -3.777053  0.000001
     spin moment: S , {S} =    0.00000   0.00000   0.00000   0.00000
   scf:   33    -4146.293305    -4146.293305    -4146.293305  0.000000 -3.777053  0.000001
     spin moment: S , {S} =    0.00000   0.00000   0.00000   0.00000

SCF Convergence by DM+H criterion
max |DM_out - DM_in|         :     0.0000001552
max |H_out - H_in|      (eV) :     0.0000006118
SCF cycle converged after 33 iterations

Using DM_out to compute the final energy and forces
No. of atoms with KB's overlaping orbs in proc 0. Max # of overlaps:      29     142

siesta: E_KS(eV) =            -4146.2933

siesta: E_KS - E_eggbox =     -4146.2933
     spin moment: S , {S} =    0.00000   0.00000   0.00000   0.00000

siesta: Atomic forces (eV/Ang):
     1   -2.727259   -3.960430   -0.000000
     2    0.075166    0.032668   -0.000000
     3    0.797960   -0.421462   -0.000000
     4    0.771615   -0.018189   -0.000000
     5    0.052691   -0.103737   -0.000000
     6    1.822471    0.654007   -0.000000
     7    0.041191   -0.263374    0.000000
     8   -0.439334    0.302981    0.000000
     9   -0.203755    1.310573    0.000000
    10   -1.095062    0.373694   -0.000000
    11   -0.024814   -0.020261    0.000000
    12   -0.391919   -0.334595    0.000000
    13    0.053128   -0.035308   -0.000000
    14    0.174793   -0.041605    0.000000
    15   -1.358588   -0.928963   -0.000000
    16   -0.111070    0.189493   -0.000000
    17    1.069924   -1.150616    0.000000
    18   -0.226919    0.207155    0.000000
    19   -0.195640   -1.327449   -0.000000
    20   -0.009959   -0.440245    0.000000
    21   -0.329952    1.092762   -0.000000
    22   -2.239891   -0.876630   -0.000000
    23    0.271238    0.575612    0.000000
    24    0.067884   -0.102804   -0.000000
    25   -0.056823   -0.029874   -0.000000
    26   -0.212011   -0.268043    0.000000
    27    1.660914    1.344919    0.000000
    28    1.845159    2.983402    0.000000
    29   -0.004765    0.142613    0.000000
----------------------------------------
   Tot   -0.923628   -1.113707    0.000000
----------------------------------------
   Max    3.960430
   Res    0.856994    sqrt( Sum f_i^2 / 3N )
----------------------------------------
   Max    3.960430    constrained

Stress tensor Voigt[x,y,z,yz,xz,xy] (kbar):        0.01        1.52       -0.08       -0.00       -0.00        1.31
(Free)E + p*V (eV/cell)    -4148.0089
Target enthalpy (eV/cell)    -4146.2933

mulliken: Atomic and Orbital Populations:

Species: O                   

Atom      Orb        Charge      Spin       Svec
----------------------------------------------------------------
    1  1 2s         1.75293   0.00000     -0.000   0.000   0.000
    1  2 2s         0.06201   0.00000      0.000  -0.000   0.000
    1  3 2py        1.42497   0.00000     -0.000   0.000  -0.000
    1  4 2pz        1.54301   0.00000     -0.000  -0.000   0.000
    1  5 2px        1.62451   0.00000     -0.000   0.000  -0.000
    1  6 2py        0.03953   0.00000     -0.000  -0.000   0.000
    1  7 2pz       -0.00608   0.00000      0.000  -0.000   0.000
    1  8 2px        0.00662   0.00000      0.000  -0.000   0.000
    1  9 3Pdxy      0.00707   0.00000     -0.000  -0.000   0.000
    1 10 3Pdyz      0.00910   0.00000      0.000   0.000  -0.000
    1 11 3Pdz2      0.00159   0.00000      0.000  -0.000   0.000
    1 12 3Pdxz      0.00038   0.00000      0.000   0.000   0.000
    1 13 3Pdx2-y2   0.00692   0.00000      0.000  -0.000   0.000
    1     Total     6.47255   0.00000     -0.000  -0.000   0.000

   28  1 2s         1.74730   0.00000      0.000  -0.000   0.000
   28  2 2s         0.06603   0.00000     -0.000  -0.000  -0.000
   28  3 2py        1.40746   0.00000     -0.000  -0.000   0.000
   28  4 2pz        1.54220   0.00000      0.000   0.000   0.000
   28  5 2px        1.64485   0.00000      0.000   0.000   0.000
   28  6 2py        0.04278   0.00000     -0.000  -0.000   0.000
   28  7 2pz       -0.00412   0.00000     -0.000  -0.000  -0.000
   28  8 2px        0.01041   0.00000     -0.000  -0.000   0.000
   28  9 3Pdxy      0.00647   0.00000     -0.000  -0.000  -0.000
   28 10 3Pdyz      0.00978   0.00000     -0.000   0.000  -0.000
   28 11 3Pdz2      0.00126   0.00000     -0.000   0.000   0.000
   28 12 3Pdxz     -0.00018   0.00000     -0.000  -0.000   0.000
   28 13 3Pdx2-y2   0.00771   0.00000      0.000  -0.000  -0.000
   28     Total     6.48194   0.00000      0.000  -0.000   0.000

----------------------------------------------------------------
Total              12.95450   0.00000      0.000  -0.000   0.000


Species: N                   

Atom      Orb        Charge      Spin       Svec
----------------------------------------------------------------
    2  1 2s         1.55134   0.00000     -0.000   0.000  -0.000
    2  2 2s         0.08418   0.00000      0.000  -0.000   0.000
    2  3 2py        1.04357   0.00000      0.000   0.000  -0.000
    2  4 2pz        1.22418   0.00000     -0.000   0.000  -0.000
    2  5 2px        0.98936   0.00000     -0.000   0.000  -0.000
    2  6 2py        0.18852   0.00000      0.000   0.000   0.000
    2  7 2pz        0.05540   0.00000      0.000  -0.000   0.000
    2  8 2px        0.19605   0.00000      0.000  -0.000   0.000
    2  9 3Pdxy      0.00840   0.00000      0.000  -0.000   0.000
    2 10 3Pdyz      0.01099   0.00000      0.000  -0.000   0.000
    2 11 3Pdz2      0.00195   0.00000     -0.000  -0.000   0.000
    2 12 3Pdxz      0.00758   0.00000     -0.000   0.000   0.000
    2 13 3Pdx2-y2   0.00909   0.00000      0.000   0.000  -0.000
    2     Total     5.37060   0.00000     -0.000   0.000  -0.000

    3  1 2s         1.40076   0.00000     -0.000  -0.000  -0.000
    3  2 2s         0.11637   0.00000      0.000   0.000   0.000
    3  3 2py        0.94134   0.00000     -0.000  -0.000  -0.000
    3  4 2pz        1.54348   0.00000     -0.000   0.000  -0.000
    3  5 2px        1.08137   0.00000     -0.000  -0.000  -0.000
    3  6 2py        0.24859   0.00000      0.000   0.000   0.000
    3  7 2pz        0.00732   0.00000     -0.000  -0.000   0.000
    3  8 2px        0.17880   0.00000      0.000   0.000   0.000
    3  9 3Pdxy      0.00399   0.00000      0.000   0.000   0.000
    3 10 3Pdyz      0.00419   0.00000      0.000  -0.000   0.000
    3 11 3Pdz2      0.00074   0.00000     -0.000   0.000   0.000
    3 12 3Pdxz      0.00279   0.00000      0.000  -0.000  -0.000
    3 13 3Pdx2-y2   0.00284   0.00000     -0.000  -0.000  -0.000
    3     Total     5.53258   0.00000     -0.000   0.000  -0.000

    4  1 2s         1.45980   0.00000      0.000  -0.000  -0.000
    4  2 2s         0.11891   0.00000     -0.000  -0.000   0.000
    4  3 2py        1.13098   0.00000      0.000  -0.000  -0.000
    4  4 2pz        1.29459   0.00000     -0.000   0.000  -0.000
    4  5 2px        0.82597   0.00000      0.000  -0.000  -0.000
    4  6 2py        0.14947   0.00000      0.000  -0.000   0.000
    4  7 2pz        0.05362   0.00000     -0.000  -0.000   0.000
    4  8 2px        0.29235   0.00000     -0.000   0.000   0.000
    4  9 3Pdxy      0.00869   0.00000     -0.000   0.000  -0.000
    4 10 3Pdyz      0.01045   0.00000      0.000  -0.000   0.000
    4 11 3Pdz2      0.00126   0.00000     -0.000  -0.000   0.000
    4 12 3Pdxz      0.00499   0.00000      0.000   0.000  -0.000
    4 13 3Pdx2-y2   0.00798   0.00000     -0.000  -0.000  -0.000
    4     Total     5.35906   0.00000      0.000  -0.000  -0.000

    5  1 2s         1.37617   0.00000     -0.000  -0.000  -0.000
    5  2 2s         0.12797   0.00000      0.000   0.000   0.000
    5  3 2py        1.02619   0.00000     -0.000   0.000  -0.000
    5  4 2pz        1.50086   0.00000     -0.000   0.000  -0.000
    5  5 2px        1.05993   0.00000      0.000  -0.000  -0.000
    5  6 2py        0.20366   0.00000      0.000   0.000   0.000
    5  7 2pz        0.01339   0.00000     -0.000   0.000   0.000
    5  8 2px        0.20105   0.00000     -0.000   0.000   0.000
    5  9 3Pdxy      0.00393   0.00000      0.000  -0.000   0.000
    5 10 3Pdyz      0.00241   0.00000     -0.000   0.000   0.000
    5 11 3Pdz2      0.00142   0.00000     -0.000  -0.000   0.000
    5 12 3Pdxz      0.00685   0.00000      0.000  -0.000   0.000
    5 13 3Pdx2-y2   0.00559   0.00000     -0.000  -0.000   0.000
    5     Total     5.52942   0.00000      0.000   0.000  -0.000

    6  1 2s         1.26985   0.00000      0.000   0.000  -0.000
    6  2 2s         0.17902   0.00000     -0.000  -0.000   0.000
    6  3 2py        1.07674   0.00000     -0.000  -0.000  -0.000
    6  4 2pz        1.57447   0.00000      0.000   0.000  -0.000
    6  5 2px        0.95599   0.00000     -0.000   0.000  -0.000
    6  6 2py        0.18794   0.00000      0.000   0.000   0.000
    6  7 2pz        0.02985   0.00000     -0.000  -0.000   0.000
    6  8 2px        0.25550   0.00000      0.000  -0.000   0.000
    6  9 3Pdxy      0.00247   0.00000      0.000  -0.000   0.000
    6 10 3Pdyz      0.00016   0.00000      0.000   0.000  -0.000
    6 11 3Pdz2      0.00177   0.00000     -0.000  -0.000   0.000
    6 12 3Pdxz      0.00326   0.00000      0.000  -0.000   0.000
    6 13 3Pdx2-y2   0.00395   0.00000      0.000  -0.000  -0.000
    6     Total     5.54098   0.00000     -0.000   0.000  -0.000

   21  1 2s         1.42447   0.00000      0.000  -0.000   0.000
   21  2 2s         0.12793   0.00000     -0.000   0.000  -0.000
   21  3 2py        0.87100   0.00000      0.000   0.000  -0.000
   21  4 2pz        1.29428   0.00000      0.000  -0.000   0.000
   21  5 2px        1.15636   0.00000      0.000  -0.000  -0.000
   21  6 2py        0.27563   0.00000     -0.000  -0.000   0.000
   21  7 2pz        0.04900   0.00000     -0.000   0.000   0.000
   21  8 2px        0.16335   0.00000     -0.000   0.000   0.000
   21  9 3Pdxy      0.00650   0.00000      0.000  -0.000   0.000
   21 10 3Pdyz      0.00509   0.00000      0.000   0.000  -0.000
   21 11 3Pdz2      0.00017   0.00000     -0.000   0.000  -0.000
   21 12 3Pdxz      0.00576   0.00000      0.000  -0.000  -0.000
   21 13 3Pdx2-y2   0.00561   0.00000     -0.000   0.000  -0.000
   21     Total     5.38516   0.00000      0.000  -0.000  -0.000

   22  1 2s         1.29454   0.00000      0.000   0.000   0.000
   22  2 2s         0.16770   0.00000     -0.000  -0.000  -0.000
   22  3 2py        1.05634   0.00000     -0.000   0.000  -0.000
   22  4 2pz        1.55791   0.00000      0.000   0.000  -0.000
   22  5 2px        0.98278   0.00000      0.000   0.000  -0.000
   22  6 2py        0.19665   0.00000      0.000  -0.000   0.000
   22  7 2pz        0.02826   0.00000      0.000  -0.000   0.000
   22  8 2px        0.23497   0.00000     -0.000  -0.000   0.000
   22  9 3Pdxy      0.00331   0.00000     -0.000  -0.000   0.000
   22 10 3Pdyz      0.00035   0.00000      0.000   0.000   0.000
   22 11 3Pdz2      0.00256   0.00000     -0.000  -0.000   0.000
   22 12 3Pdxz      0.00316   0.00000     -0.000   0.000   0.000
   22 13 3Pdx2-y2   0.00475   0.00000      0.000  -0.000  -0.000
   22     Total     5.53326   0.00000      0.000   0.000  -0.000

   23  1 2s         1.39734   0.00000     -0.000   0.000  -0.000
   23  2 2s         0.11782   0.00000      0.000  -0.000  -0.000
   23  3 2py        1.00691   0.00000      0.000   0.000  -0.000
   23  4 2pz        1.52446   0.00000     -0.000   0.000  -0.000
   23  5 2px        1.06526   0.00000      0.000  -0.000  -0.000
   23  6 2py        0.21149   0.00000     -0.000   0.000   0.000
   23  7 2pz        0.00495   0.00000      0.000  -0.000   0.000
   23  8 2px        0.19795   0.00000     -0.000   0.000   0.000
   23  9 3Pdxy      0.00530   0.00000      0.000  -0.000   0.000
   23 10 3Pdyz      0.00445   0.00000      0.000   0.000  -0.000
   23 11 3Pdz2      0.00060   0.00000     -0.000   0.000   0.000
   23 12 3Pdxz      0.00243   0.00000     -0.000   0.000  -0.000
   23 13 3Pdx2-y2   0.00137   0.00000     -0.000   0.000  -0.000
   23     Total     5.54034   0.00000      0.000   0.000  -0.000

----------------------------------------------------------------
Total              56.74590   0.00000      0.000   0.000  -0.000


Species: Si                  

Atom      Orb        Charge      Spin       Svec
----------------------------------------------------------------
    7  1 3s         0.66767   0.00000      0.000   0.000   0.000
    7  2 3s         0.36505   0.00000     -0.000  -0.000   0.000
    7  3 3py        0.48781   0.00000      0.000   0.000   0.000
    7  4 3pz        0.69007   0.00000      0.000   0.000   0.000
    7  5 3px        0.12486   0.00000     -0.000  -0.000  -0.000
    7  6 3py        0.26459   0.00000     -0.000  -0.000   0.000
    7  7 3pz        0.25920   0.00000     -0.000   0.000   0.000
    7  8 3px        0.43845   0.00000      0.000   0.000   0.000
    7  9 3Pdxy      0.24569   0.00000     -0.000  -0.000   0.000
    7 10 3Pdyz      0.02941   0.00000      0.000  -0.000  -0.000
    7 11 3Pdz2      0.01176   0.00000     -0.000   0.000   0.000
    7 12 3Pdxz      0.14567   0.00000      0.000  -0.000  -0.000
    7 13 3Pdx2-y2   0.11291   0.00000      0.000   0.000  -0.000
    7     Total     3.84314   0.00000      0.000   0.000   0.000

    8  1 3s         0.65676   0.00000     -0.000  -0.000   0.000
    8  2 3s         0.36853   0.00000      0.000   0.000  -0.000
    8  3 3py        0.38787   0.00000     -0.000  -0.000  -0.000
    8  4 3pz        0.52622   0.00000     -0.000  -0.000  -0.000
    8  5 3px       -0.03090   0.00000     -0.000   0.000  -0.000
    8  6 3py        0.30893   0.00000      0.000   0.000   0.000
    8  7 3pz        0.20190   0.00000      0.000   0.000   0.000
    8  8 3px        0.51463   0.00000      0.000  -0.000   0.000
    8  9 3Pdxy      0.24585   0.00000     -0.000  -0.000   0.000
    8 10 3Pdyz      0.11218   0.00000     -0.000   0.000  -0.000
    8 11 3Pdz2      0.01454   0.00000      0.000   0.000  -0.000
    8 12 3Pdxz      0.15319   0.00000     -0.000   0.000   0.000
    8 13 3Pdx2-y2   0.20022   0.00000     -0.000  -0.000   0.000
    8     Total     3.65990   0.00000     -0.000   0.000  -0.000

    9  1 3s         0.60431   0.00000      0.000  -0.000   0.000
    9  2 3s         0.36645   0.00000     -0.000   0.000  -0.000
    9  3 3py        0.07522   0.00000      0.000  -0.000  -0.000
    9  4 3pz        0.48490   0.00000      0.000   0.000  -0.000
    9  5 3px        0.37804   0.00000      0.000  -0.000  -0.000
    9  6 3py        0.44738   0.00000     -0.000  -0.000   0.000
    9  7 3pz        0.18769   0.00000      0.000  -0.000  -0.000
    9  8 3px        0.27376   0.00000      0.000   0.000   0.000
    9  9 3Pdxy      0.31224   0.00000      0.000  -0.000   0.000
    9 10 3Pdyz      0.18987   0.00000      0.000  -0.000  -0.000
    9 11 3Pdz2      0.01643   0.00000     -0.000  -0.000   0.000
    9 12 3Pdxz      0.09699   0.00000      0.000  -0.000  -0.000
    9 13 3Pdx2-y2   0.17170   0.00000      0.000  -0.000   0.000
    9     Total     3.60499   0.00000      0.000  -0.000  -0.000

   10  1 3s         0.48316   0.00000     -0.000  -0.000   0.000
   10  2 3s         0.37750   0.00000      0.000   0.000   0.000
   10  3 3py        0.24186   0.00000      0.000   0.000   0.000
   10  4 3pz        0.40932   0.00000      0.000  -0.000   0.000
   10  5 3px        0.10116   0.00000     -0.000   0.000   0.000
   10  6 3py        0.32761   0.00000     -0.000   0.000   0.000
   10  7 3pz        0.22237   0.00000     -0.000   0.000   0.000
   10  8 3px        0.42851   0.00000      0.000   0.000  -0.000
   10  9 3Pdxy      0.16949   0.00000     -0.000  -0.000   0.000
   10 10 3Pdyz      0.14032   0.00000      0.000  -0.000   0.000
   10 11 3Pdz2      0.01040   0.00000      0.000   0.000   0.000
   10 12 3Pdxz      0.17459   0.00000     -0.000   0.000   0.000
   10 13 3Pdx2-y2   0.31028   0.00000     -0.000  -0.000   0.000
   10     Total     3.39658   0.00000      0.000  -0.000   0.000

   11  1 3s         0.55278   0.00000     -0.000  -0.000   0.000
   11  2 3s         0.38537   0.00000      0.000   0.000   0.000
   11  3 3py        0.32157   0.00000      0.000   0.000   0.000
   11  4 3pz        0.53982   0.00000      0.000  -0.000   0.000
   11  5 3px        0.12361   0.00000      0.000   0.000   0.000
   11  6 3py        0.28690   0.00000     -0.000  -0.000   0.000
   11  7 3pz        0.17766   0.00000     -0.000   0.000   0.000
   11  8 3px        0.44690   0.00000     -0.000  -0.000   0.000
   11  9 3Pdxy      0.22529   0.00000      0.000  -0.000   0.000
   11 10 3Pdyz      0.12620   0.00000     -0.000  -0.000   0.000
   11 11 3Pdz2      0.00957   0.00000      0.000  -0.000   0.000
   11 12 3Pdxz      0.05267   0.00000      0.000  -0.000   0.000
   11 13 3Pdx2-y2   0.20373   0.00000     -0.000  -0.000   0.000
   11     Total     3.45206   0.00000      0.000  -0.000   0.000

   17  1 3s         0.63969   0.00000     -0.000   0.000   0.000
   17  2 3s         0.36047   0.00000      0.000  -0.000  -0.000
   17  3 3py        0.22804   0.00000     -0.000  -0.000   0.000
   17  4 3pz        0.42396   0.00000     -0.000  -0.000   0.000
   17  5 3px        0.24488   0.00000      0.000   0.000   0.000
   17  6 3py        0.38770   0.00000     -0.000   0.000  -0.000
   17  7 3pz        0.21111   0.00000      0.000  -0.000   0.000
   17  8 3px        0.36830   0.00000     -0.000  -0.000  -0.000
   17  9 3Pdxy      0.30205   0.00000      0.000  -0.000   0.000
   17 10 3Pdyz      0.14309   0.00000     -0.000  -0.000   0.000
   17 11 3Pdz2      0.00910   0.00000      0.000   0.000   0.000
   17 12 3Pdxz      0.14325   0.00000     -0.000  -0.000   0.000
   17 13 3Pdx2-y2   0.16332   0.00000      0.000   0.000   0.000
   17     Total     3.62496   0.00000     -0.000  -0.000   0.000

   18  1 3s         0.74428   0.00000     -0.000   0.000   0.000
   18  2 3s         0.33943   0.00000      0.000  -0.000   0.000
   18  3 3py        0.07999   0.00000      0.000  -0.000   0.000
   18  4 3pz        0.82298   0.00000      0.000  -0.000   0.000
   18  5 3px        0.55528   0.00000      0.000  -0.000   0.000
   18  6 3py        0.51764   0.00000     -0.000   0.000   0.000
   18  7 3pz        0.19753   0.00000     -0.000   0.000   0.000
   18  8 3px        0.25004   0.00000      0.000  -0.000   0.000
   18  9 3Pdxy      0.10340   0.00000      0.000   0.000  -0.000
   18 10 3Pdyz      0.02741   0.00000      0.000   0.000  -0.000
   18 11 3Pdz2      0.00874   0.00000     -0.000   0.000  -0.000
   18 12 3Pdxz      0.03021   0.00000     -0.000  -0.000  -0.000
   18 13 3Pdx2-y2   0.11314   0.00000     -0.000   0.000   0.000
   18     Total     3.79007   0.00000     -0.000  -0.000   0.000

   19  1 3s         0.45921   0.00000     -0.000   0.000   0.000
   19  2 3s         0.36532   0.00000      0.000  -0.000  -0.000
   19  3 3py        0.08254   0.00000     -0.000   0.000   0.000
   19  4 3pz        0.42904   0.00000     -0.000   0.000   0.000
   19  5 3px        0.35589   0.00000     -0.000   0.000   0.000
   19  6 3py        0.47038   0.00000     -0.000   0.000  -0.000
   19  7 3pz        0.18313   0.00000      0.000  -0.000  -0.000
   19  8 3px        0.23902   0.00000      0.000   0.000  -0.000
   19  9 3Pdxy      0.34170   0.00000     -0.000  -0.000   0.000
   19 10 3Pdyz      0.18820   0.00000      0.000  -0.000   0.000
   19 11 3Pdz2      0.01604   0.00000      0.000   0.000  -0.000
   19 12 3Pdxz      0.08742   0.00000     -0.000   0.000   0.000
   19 13 3Pdx2-y2   0.23689   0.00000     -0.000   0.000   0.000
   19     Total     3.45478   0.00000     -0.000   0.000   0.000

   20  1 3s         0.67324   0.00000     -0.000  -0.000  -0.000
   20  2 3s         0.37809   0.00000      0.000   0.000   0.000
   20  3 3py        0.33118   0.00000     -0.000   0.000  -0.000
   20  4 3pz        0.58963   0.00000      0.000   0.000  -0.000
   20  5 3px        0.13815   0.00000     -0.000   0.000  -0.000
   20  6 3py        0.29223   0.00000      0.000  -0.000   0.000
   20  7 3pz        0.16387   0.00000     -0.000  -0.000  -0.000
   20  8 3px        0.49967   0.00000      0.000   0.000   0.000
   20  9 3Pdxy      0.10032   0.00000      0.000  -0.000  -0.000
   20 10 3Pdyz      0.13386   0.00000     -0.000  -0.000  -0.000
   20 11 3Pdz2      0.00735   0.00000      0.000  -0.000   0.000
   20 12 3Pdxz      0.02698   0.00000     -0.000  -0.000   0.000
   20 13 3Pdx2-y2   0.17194   0.00000      0.000   0.000  -0.000
   20     Total     3.50652   0.00000     -0.000   0.000  -0.000

----------------------------------------------------------------
Total              89.07889   0.00000      0.000   0.000   0.000


Species: H                   

Atom      Orb        Charge      Spin       Svec
----------------------------------------------------------------
   12  1 1s         0.49783   0.00000      0.000   0.000  -0.000
   12  2 1s         0.18182   0.00000     -0.000  -0.000   0.000
   12  3 2Ppy       0.02913   0.00000     -0.000   0.000   0.000
   12  4 2Ppz       0.03424   0.00000     -0.000   0.000  -0.000
   12  5 2Ppx       0.02282   0.00000      0.000   0.000  -0.000
   12     Total     0.76584   0.00000      0.000   0.000  -0.000

   13  1 1s         1.01894   0.00000     -0.000  -0.000  -0.000
   13  2 1s         0.09538   0.00000      0.000   0.000   0.000
   13  3 2Ppy       0.01808   0.00000     -0.000  -0.000   0.000
   13  4 2Ppz       0.02006   0.00000     -0.000   0.000   0.000
   13  5 2Ppx       0.03517   0.00000     -0.000   0.000   0.000
   13     Total     1.18763   0.00000     -0.000  -0.000  -0.000

   14  1 1s         0.46040   0.00000      0.000  -0.000   0.000
   14  2 1s         0.19992   0.00000     -0.000  -0.000   0.000
   14  3 2Ppy       0.01790   0.00000      0.000  -0.000   0.000
   14  4 2Ppz       0.04542   0.00000      0.000   0.000  -0.000
   14  5 2Ppx       0.01713   0.00000      0.000  -0.000   0.000
   14     Total     0.74076   0.00000      0.000  -0.000   0.000

   15  1 1s         0.49891   0.00000     -0.000  -0.000  -0.000
   15  2 1s         0.17830   0.00000      0.000   0.000  -0.000
   15  3 2Ppy       0.00514   0.00000      0.000  -0.000   0.000
   15  4 2Ppz       0.04299   0.00000     -0.000  -0.000  -0.000
   15  5 2Ppx       0.02801   0.00000     -0.000  -0.000  -0.000
   15     Total     0.75334   0.00000     -0.000  -0.000  -0.000

   16  1 1s         0.51014   0.00000     -0.000   0.000   0.000
   16  2 1s         0.18723   0.00000     -0.000   0.000   0.000
   16  3 2Ppy       0.02980   0.00000      0.000  -0.000  -0.000
   16  4 2Ppz       0.03981   0.00000     -0.000  -0.000  -0.000
   16  5 2Ppx       0.02359   0.00000      0.000   0.000  -0.000
   16     Total     0.79058   0.00000     -0.000   0.000   0.000

   24  1 1s         1.06346   0.00000     -0.000  -0.000  -0.000
   24  2 1s         0.07427   0.00000     -0.000   0.000   0.000
   24  3 2Ppy       0.03209   0.00000      0.000   0.000   0.000
   24  4 2Ppz       0.03075   0.00000     -0.000   0.000   0.000
   24  5 2Ppx       0.01729   0.00000      0.000  -0.000  -0.000
   24     Total     1.21786   0.00000     -0.000  -0.000  -0.000

   25  1 1s         1.04290   0.00000      0.000  -0.000  -0.000
   25  2 1s         0.08679   0.00000     -0.000   0.000  -0.000
   25  3 2Ppy       0.01227   0.00000     -0.000  -0.000  -0.000
   25  4 2Ppz       0.01845   0.00000     -0.000  -0.000  -0.000
   25  5 2Ppx       0.03570   0.00000      0.000   0.000   0.000
   25     Total     1.19610   0.00000      0.000  -0.000  -0.000

   26  1 1s         0.47563   0.00000      0.000  -0.000  -0.000
   26  2 1s         0.19611   0.00000     -0.000   0.000   0.000
   26  3 2Ppy       0.02098   0.00000     -0.000   0.000  -0.000
   26  4 2Ppz       0.04910   0.00000     -0.000   0.000  -0.000
   26  5 2Ppx       0.01608   0.00000     -0.000  -0.000  -0.000
   26     Total     0.75789   0.00000     -0.000  -0.000  -0.000

   27  1 1s         0.51351   0.00000      0.000  -0.000  -0.000
   27  2 1s         0.16886   0.00000     -0.000  -0.000  -0.000
   27  3 2Ppy       0.00665   0.00000      0.000  -0.000  -0.000
   27  4 2Ppz       0.03801   0.00000      0.000   0.000  -0.000
   27  5 2Ppx       0.02847   0.00000     -0.000   0.000  -0.000
   27     Total     0.75548   0.00000      0.000  -0.000  -0.000

   29  1 1s         0.48442   0.00000     -0.000   0.000   0.000
   29  2 1s         0.18770   0.00000     -0.000   0.000   0.000
   29  3 2Ppy       0.02514   0.00000     -0.000  -0.000  -0.000
   29  4 2Ppz       0.03422   0.00000      0.000  -0.000   0.000
   29  5 2Ppx       0.02415   0.00000     -0.000   0.000  -0.000
   29     Total     0.75563   0.00000     -0.000  -0.000   0.000

----------------------------------------------------------------
Total              98.00000   0.00000      0.000   0.000   0.000


siesta: Eigenvalues (eV):
ik =     1
  -21.9503  -21.9503  -21.7552  -21.7552  -21.5924  -21.5924  -21.5849  -21.5849  -21.2524  -21.2524
  -20.9741  -20.9741  -20.8664  -20.8664  -19.8574  -19.8574  -19.3790  -19.3790  -19.3698  -19.3698
  -14.7302  -14.7302  -13.9141  -13.9141  -13.3351  -13.3351  -13.2300  -13.2300  -13.1244  -13.1244
  -12.9143  -12.9143  -12.8805  -12.8805  -12.4894  -12.4894  -12.3890  -12.3890  -12.0094  -12.0094
  -11.4905  -11.4905  -10.7890  -10.7890  -10.7851  -10.7851  -10.7365  -10.7365  -10.0719  -10.0719
   -9.5211   -9.5211   -9.2679   -9.2679   -8.8824   -8.8824   -8.7218   -8.7218   -8.6858   -8.6858
   -8.6520   -8.6520   -8.3756   -8.3756   -8.2142   -8.2142   -7.8331   -7.8331   -7.6658   -7.6658
   -7.5157   -7.5157   -7.3705   -7.3705   -7.3097   -7.3097   -6.9252   -6.9252   -6.7223   -6.7223
   -6.5386   -6.5386   -6.4753   -6.4753   -6.1198   -6.1198   -6.0937   -6.0937   -6.0600   -6.0600
   -5.6531   -5.6531   -5.6494   -5.6494   -5.4221   -5.4221   -4.3294   -4.3294   -3.2243   -3.2243
   -2.3360   -2.3360   -2.2821   -2.2821   -2.2672   -2.2672   -1.9090   -1.9090   -1.8821   -1.8821
   -1.8233   -1.8233   -1.7554   -1.7554   -1.5755   -1.5755   -1.5542   -1.5542   -0.9730   -0.9730
   -0.9601   -0.9601   -0.8480   -0.8480   -0.4067   -0.4067   -0.1461   -0.1461    0.0129    0.0129
    0.2687    0.2687    0.4147    0.4147    0.5146    0.5146    0.7205    0.7205    0.7432    0.7432
    0.9662    0.9662    1.2012    1.2012    1.3033    1.3033    1.3758    1.3758    1.4601    1.4601
    1.6573    1.6573    1.8172    1.8172    1.9090    1.9090    2.3294    2.3294    2.7237    2.7237
    2.7283    2.7283    2.8362    2.8362    2.9923    2.9923    3.1306    3.1306    3.3242    3.3242
    3.3623    3.3623    3.7580    3.7580    3.8344    3.8344    4.0993    4.0993    4.2704    4.2704
    4.4342    4.4342    4.5443    4.5443    4.5594    4.5594    4.6013    4.6013    4.8269    4.8269
    4.9552    4.9552    4.9617    4.9617    5.2204    5.2204    5.5135    5.5135    5.6481    5.6481
    5.6902    5.6902    5.8027    5.8027    5.8596    5.8596    5.9339    5.9339    5.9689    5.9689
    6.1861    6.1861    6.3149    6.3149    6.6465    6.6465    6.7114    6.7114    6.8254    6.8254
    7.0602    7.0602    7.1796    7.1796    7.3703    7.3703    7.5018    7.5018    7.7344    7.7344
    7.8124    7.8124    8.0282    8.0282    8.1042    8.1042    8.2191    8.2191    8.2787    8.2787
    8.4940    8.4940    8.6658    8.6658    8.7430    8.7430    8.9489    8.9489    9.2070    9.2070
    9.2080    9.2080    9.2397    9.2397    9.7556    9.7556    9.8033    9.8033    9.8454    9.8454
    9.9835    9.9835   10.1753   10.1753   10.4173   10.4173   10.7121   10.7121   10.8101   10.8101
   10.9035   10.9035   11.0692   11.0692   11.2205   11.2205   11.6892   11.6892   11.8142   11.8142
   11.8791   11.8791   11.9056   11.9056   12.1688   12.1688   12.3619   12.3619   12.5231   12.5231
   12.7125   12.7125   12.7532   12.7532   13.3690   13.3690   13.5132   13.5132   13.7425   13.7425
   13.7566   13.7566   14.0609   14.0609   14.2115   14.2115   14.4159   14.4159   14.8092   14.8092
   14.8700   14.8700   15.3441   15.3441   15.9745   15.9745   16.4054   16.4054   16.6839   16.6839
   16.9346   16.9346   17.3971   17.3971   17.6892   17.6892   18.2028   18.2028   18.3171   18.3171
   18.5633   18.5633   19.1120   19.1120   19.3275   19.3275   19.9308   19.9308   20.2603   20.2603
   20.9000   20.9000   21.3277   21.3277   21.7837   21.7837   22.1928   22.1928   22.4186   22.4186
   23.1085   23.1085   23.2671   23.2671   23.7596   23.7596   23.8226   23.8226   23.8485   23.8485
   24.8154   24.8154   25.1938   25.1938   26.0173   26.0173   26.7723   26.7723   27.3835   27.3835
   28.3687   28.3687   29.0814   29.0814   29.1088   29.1088   29.4956   29.4956   29.5704   29.5704
   30.0361   30.0361   30.1100   30.1100   30.2326   30.2326   30.5919   30.5919   30.7789   30.7789
   31.0089   31.0089   31.1830   31.1830   31.4816   31.4816   31.5987   31.5987   32.2411   32.2411
   32.6820   32.6820   33.8416   33.8416   34.5029   34.5029   34.7166   34.7166   34.9685   34.9685
   34.9856   34.9856   35.1391   35.1391   35.3622   35.3622   35.6490   35.6490   35.8971   35.8971
   36.7520   36.7520   36.7954   36.7954   37.0164   37.0164   37.1914   37.1914   37.5232   37.5232
   38.1621   38.1621   38.2788   38.2788   39.3616   39.3616   39.4530   39.4530   39.8932   39.8932
   40.2308   40.2308   40.5113   40.5113   40.6020   40.6020   40.6633   40.6633   40.9546   40.9546
   41.0598   41.0598   41.4653   41.4653   42.3990   42.3990   42.6311   42.6311   43.0191   43.0191
   43.1401   43.1401   43.7755   43.7755   43.8863   43.8863   44.0282   44.0282   44.2408   44.2408
   44.6663   44.6663   44.7217   44.7217   45.0419   45.0419   45.3459   45.3459   46.1100   46.1100
   46.3661   46.3661   46.8281   46.8281   47.1769   47.1769   48.6318   48.6318   48.9818   48.9818
   49.4509   49.4509   50.3250   50.3250   50.4911   50.4911   50.7234   50.7234   50.9087   50.9087
   51.3566   51.3566   51.5823   51.5823   52.6895   52.6895   52.6961   52.6961   54.1924   54.1924
   54.2853   54.2853   54.5900   54.5900   54.7166   54.7166   55.8129   55.8129   55.8560   55.8560
   55.8810   55.8810   56.0100   56.0100   56.5061   56.5061   57.8430   57.8430   58.2205   58.2205
   58.6591   58.6591   60.1368   60.1368   60.4911   60.4911   60.5759   60.5759   61.1273   61.1273
   61.8291   61.8291   61.9919   61.9919   62.2132   62.2132   64.4693   64.4693   66.4643   66.4643
   67.1396   67.1396   67.1986   67.1986   68.1706   68.1706   68.7427   68.7427   70.8312   70.8312
   74.0528   74.0528   79.9805   79.9805   91.0484   91.0484   91.9160   91.9160   93.3543   93.3543
   98.4065   98.4065   98.7287   98.7287   99.6760   99.6760  103.3643  103.3643  103.7711  103.7711
  110.0992  110.0992  111.6111  111.6111  123.6192  123.6192  125.7111  125.7111  129.9433  129.9433
  135.0149  135.0149  138.3009  138.3009
siesta: Fermi energy =      -3.777053 eV

siesta: Program's energy decomposition (eV):
siesta: Ebs     =     -1134.951814
siesta: Eions   =      3585.165840
siesta: Ena     =       382.019161
siesta: Ekin    =      2903.070051
siesta: Enl     =     -2787.868578
siesta: Eso     =        -0.004282
siesta: Edftu   =         0.000000
siesta: DEna    =        47.003426
siesta: DUscf   =        14.345522
siesta: DUext   =         0.000000
siesta: Exc     =     -1119.692766
siesta: eta*DQ  =         0.000000
siesta: Emadel  =         0.000000
siesta: Emeta   =         0.000000
siesta: Emolmec =         0.000000
siesta: Ekinion =         0.000000
siesta: Eharris =     -4146.293305
siesta: Etot    =     -4146.293305
siesta: FreeEng =     -4146.293305

siesta: Final energy (eV):
siesta:  Band Struct. =   -1134.951814
siesta:       Kinetic =    2903.070051
siesta:       Hartree =    8152.015841
siesta:       Edftu   =       0.000000
siesta:       Eso     =      -0.004282
siesta:    Ext. field =       0.000000
siesta:   Exch.-corr. =   -1119.692766
siesta:  Ion-electron =  -18888.560040
siesta:       Ion-ion =    4806.877892
siesta:       Ekinion =       0.000000
siesta:         Total =   -4146.293305
siesta:         Fermi =      -3.777053

siesta: Atomic forces (eV/Ang):
siesta:      1   -2.727259   -3.960430   -0.000000
siesta:      2    0.075166    0.032668   -0.000000
siesta:      3    0.797960   -0.421462   -0.000000
siesta:      4    0.771615   -0.018189   -0.000000
siesta:      5    0.052691   -0.103737   -0.000000
siesta:      6    1.822471    0.654007   -0.000000
siesta:      7    0.041191   -0.263374    0.000000
siesta:      8   -0.439334    0.302981    0.000000
siesta:      9   -0.203755    1.310573    0.000000
siesta:     10   -1.095062    0.373694   -0.000000
siesta:     11   -0.024814   -0.020261    0.000000
siesta:     12   -0.391919   -0.334595    0.000000
siesta:     13    0.053128   -0.035308   -0.000000
siesta:     14    0.174793   -0.041605    0.000000
siesta:     15   -1.358588   -0.928963   -0.000000
siesta:     16   -0.111070    0.189493   -0.000000
siesta:     17    1.069924   -1.150616    0.000000
siesta:     18   -0.226919    0.207155    0.000000
siesta:     19   -0.195640   -1.327449   -0.000000
siesta:     20   -0.009959   -0.440245    0.000000
siesta:     21   -0.329952    1.092762   -0.000000
siesta:     22   -2.239891   -0.876630   -0.000000
siesta:     23    0.271238    0.575612    0.000000
siesta:     24    0.067884   -0.102804   -0.000000
siesta:     25   -0.056823   -0.029874   -0.000000
siesta:     26   -0.212011   -0.268043    0.000000
siesta:     27    1.660914    1.344919    0.000000
siesta:     28    1.845159    2.983402    0.000000
siesta:     29   -0.004765    0.142613    0.000000
siesta: ----------------------------------------
siesta:    Tot   -0.923628   -1.113707    0.000000

siesta: Stress tensor (static) (eV/Ang**3):
siesta:     0.000009    0.000817   -0.000000
siesta:     0.000817    0.000948    0.000000
siesta:    -0.000000   -0.000000   -0.000052

siesta: Cell volume =       5690.066973 Ang**3

siesta: Pressure (static):
siesta:                Solid            Molecule  Units
siesta:          -0.00000328         -0.00000685  Ry/Bohr**3
siesta:          -0.00030151         -0.00062869  eV/Ang**3
siesta:          -0.48308293         -1.00728082  kBar
(Free)E+ p_basis*V_orbitals  =       -4126.442887
(Free)Eharris+ p_basis*V_orbitals  =       -4126.442887
     spin moment: S , {S} =    0.00000   0.00000   0.00000   0.00000

siesta: Electric dipole (a.u.)  =    1.531522    0.007831   -0.000000
siesta: Electric dipole (Debye) =    3.892743    0.019905   -0.000000

cite: Please see "GC.bib" for an exhaustive BiBTeX file.
cite: Please clearly indicate Siesta version in published work: v4.1.5-1-g384057250
cite: This calculation has made use of the following articles
cite: which are encouraged to be cited in a published work.
        Primary SIESTA paper
          DOI: www.doi.org/10.1088/0953-8984/14/11/302
        Spin-orbit coupling (on-site approximation)
          DOI: www.doi.org/10.1088/0953-8984/19/19/489001


WARNING: alloc-realloc-dealloc name mismatch
         Name: atomlist isa
         Size:              -116. Bytes
         Node:     0
         Subsequent mismatches will not be reported
>> End of run:  28-JUN-2023  16:21:32
Job completed
