Siesta Version  : v4.1.5-1-g384057250
Architecture    : gcc
Compiler version: GNU Fortran (Debian 12.2.0-14) 12.2.0
Compiler flags  : mpifort -O2 -fPIC -ftree-vectorize -fallow-argument-mismatch
PP flags        : -DFC_HAVE_ABORT -DMPI -DSIESTA__FLOOK -DSIESTA__METIS -DSIESTA__MUMPS -DCDF -DNCDF -DNCDF_4 -DNCDF_PARALLEL -DSIESTA__MRRR -DSIESTA__ELPA
Libraries       : libncdf.a libfdict.a  -lflookall -ldl -lnetcdff -lnetcdf -lz -lscalapack-openmpi -lopenblas -lmetis -lzmumps -lcmumps -ldmumps -lmumps_common -lpord -lsmumps -lesmumps -lscotch -lscotcherr -fopenmp -lelpa
PARALLEL version
NetCDF support
NetCDF-4 support
NetCDF-4 MPI-IO support
METIS ordering support
Lua support

* Running on 32 nodes in parallel
>> Start of run:  16-OCT-2023   2:53:02

                           ***********************       
                           *  WELCOME TO SIESTA  *       
                           ***********************       

reinit: Reading from standard input
reinit: Dumped input in INPUT_TMP.93751
************************** Dump of input data file ****************************
# mpirun -np 4 siesta-4.1.5 < Guanine.fdf > Guanine.out
SystemLabel      Guanine
NumberOfAtoms    16
NumberOfSpecies  4
%block ChemicalSpeciesLabel
    1    1  H
    2    7  N
    3    14 Si
    4    8  O
%endblock ChemicalSpeciesLabel
############################################
# This overrides Defaults.fdf configuration
############################################
MaxSCFIterations            500
SCF.MustConverge            T
SCF.Mixer.Method            Pulay
SCF.Mixer.History           20
SCF.Mixer.Restart           60
SCF.Mixer.Restart.Save      5
SCF.H.Tolerance             0.1 eV
SCF.DM.Tolerance            0.8
MD.TypeOfRun                CG # CG, Verlet
MD.Steps                    0
AtomicCoordinatesFormat NotScaledCartesianAng
%block AtomicCoordinatesAndAtomicSpecies # x2.5
13.79982868   -16.89661785   -0.00000000   1       1  H
11.23545178   -16.28231190   -0.00000000   2       2  N
7.98249210   -19.38694613   -0.00000000   3       3  Si
9.19835625   -22.90606320   0.00000000   1       4  H
3.90249368   -18.17264408   -0.00000000   2       5  N
4.02155965   -13.66728005   0.00000000   3       6  Si
1.01336107   -8.97663108   -0.00000000   3       7  Si
-2.84315233   -8.00352875   -0.00000000   4       8  O
4.11845880   -5.45125448   0.00000000   2       9  N
2.84422035   -3.11508338   0.00000000   1       10  H
8.50873558   -5.21087952   0.00000000   3       11  Si
10.09580445   -1.15581110   -0.00000000   2       12  N
8.75763217   1.10696980   0.00000000   1       13  H
12.70617730   -0.88698535   -0.00000000   1       14  H
11.41197208   -8.33453570   0.00000000   2       15  N
9.30049615   -12.15953190   -0.00000000   3       16  Si
%endblock AtomicCoordinatesAndAtomicSpecies
%include ../../../Defaults.fdf
************************** End of input data file *****************************

reinit: -----------------------------------------------------------------------
reinit: System Name: 
reinit: -----------------------------------------------------------------------
reinit: System Label: Guanine
reinit: -----------------------------------------------------------------------

initatom: Reading input for the pseudopotentials and atomic orbitals ----------
Species number:   1 Atomic number:    1 Label: H
Species number:   2 Atomic number:    7 Label: N
Species number:   3 Atomic number:   14 Label: Si
Species number:   4 Atomic number:    8 Label: O

Ground state valence configuration:   1s01
Reading pseudopotential information in formatted form from H.psf

Pseudopotential generated from a relativistic atomic calculation

Valence configuration for pseudopotential generation:
1s( 1.00) rc: 0.01
2p( 0.00) rc: 0.60
3d( 0.00) rc: 1.99
4f( 0.00) rc: 2.49
Ground state valence configuration:   2s02  2p03
Reading pseudopotential information in formatted form from N.psf

Pseudopotential generated from a relativistic atomic calculation

Valence configuration for pseudopotential generation:
2s( 2.00) rc: 0.94
2p( 3.00) rc: 0.59
3d( 0.00) rc: 3.46
4f( 0.00) rc: 2.47
Ground state valence configuration:   3s02  3p02
Reading pseudopotential information in formatted form from Si.psf

Pseudopotential generated from a relativistic atomic calculation

Valence configuration for pseudopotential generation:
3s( 2.00) rc: 1.67
3p( 2.00) rc: 2.04
3d( 0.00) rc: 2.89
4f( 0.00) rc: 2.49
Ground state valence configuration:   2s02  2p04
Reading pseudopotential information in formatted form from O.psf

Pseudopotential generated from a relativistic atomic calculation

Valence configuration for pseudopotential generation:
2s( 2.00) rc: 0.45
2p( 4.00) rc: 0.92
3d( 0.00) rc: 2.24
4f( 0.00) rc: 0.25
For H, standard SIESTA heuristics set lmxkb to 2
 (one more than the basis l, including polarization orbitals).
Use PS.lmax or PS.KBprojectors blocks to override.
For N, standard SIESTA heuristics set lmxkb to 3
 (one more than the basis l, including polarization orbitals).
Use PS.lmax or PS.KBprojectors blocks to override.
For Si, standard SIESTA heuristics set lmxkb to 3
 (one more than the basis l, including polarization orbitals).
Use PS.lmax or PS.KBprojectors blocks to override.
For O, standard SIESTA heuristics set lmxkb to 3
 (one more than the basis l, including polarization orbitals).
Use PS.lmax or PS.KBprojectors blocks to override.

<basis_specs>
===============================================================================
H                    Z=   1    Mass=  1.0100        Charge= 0.17977+309
Lmxo=0 Lmxkb= 2    BasisType=split      Semic=F
L=0  Nsemic=0  Cnfigmx=1
          i=1  nzeta=2  polorb=1  (1s)
            splnorm:   0.62000    
               vcte:    0.0000    
               rinn:    0.0000    
               qcoe:    0.0000    
               qyuk:    0.0000    
               qwid:   0.10000E-01
                rcs:    0.0000      0.0000    
            lambdas:    1.0000      1.0000    
-------------------------------------------------------------------------------
L=0  Nkbl=1  erefs: 0.17977+309
L=1  Nkbl=1  erefs: 0.17977+309
L=2  Nkbl=1  erefs: 0.17977+309
===============================================================================
</basis_specs>

atom: Called for H                     (Z =   1)

read_vps: Pseudopotential generation method:
read_vps: ATM4.2.7  Troullier-Martins                       
Valence charge for ps generation:    1.00000

xc_check: Exchange-correlation functional:
xc_check: GGA Perdew, Burke & Ernzerhof 1996
V l=0 = -2*Zval/r beyond r=  0.0098
V l=1 = -2*Zval/r beyond r=  0.5817
V l=2 = -2*Zval/r beyond r=  1.9372
All V_l potentials equal beyond r=  1.9372
This should be close to max(r_c) in ps generation
All pots = -2*Zval/r beyond r=  1.9372

VLOCAL1: 99.0% of the norm of Vloc inside     11.567 Ry
VLOCAL1: 99.9% of the norm of Vloc inside     26.362 Ry
atom: Maximum radius for 4*pi*r*r*local-pseudopot. charge    2.25106
atom: Maximum radius for r*vlocal+2*Zval:    1.91306
GHOST: No ghost state for L =  0
GHOST: No ghost state for L =  1
GHOST: No ghost state for L =  2

KBgen: Kleinman-Bylander projectors: 
   l= 0   rc=  2.036604   el= -0.477180   Ekb= -6.081590   kbcos= -0.277285
   l= 1   rc=  2.195416   el=  0.001076   Ekb= -0.926943   kbcos= -0.034643
   l= 2   rc=  2.251056   el=  0.002010   Ekb= -0.130941   kbcos= -0.009788

KBgen: Total number of Kleinman-Bylander projectors:    9
atom: -------------------------------------------------------------------------

atom: SANKEY-TYPE ORBITALS:
atom: Selected multiple-zeta basis: split     

SPLIT: Orbitals with angular momentum L= 0

SPLIT: Basis orbitals for state 1s

SPLIT: PAO cut-off radius determined from an
SPLIT: energy shift=  0.002000 Ry

   izeta = 1
                 lambda =    1.000000
                     rc =    6.518340
                 energy =   -0.475305
                kinetic =    0.912139
    potential(screened) =   -1.387444
       potential(ionic) =   -1.907295

   izeta = 2
                 rmatch =    2.141150
              splitnorm =    0.620000
                 energy =    0.566467
                kinetic =    3.772856
    potential(screened) =   -3.206389
       potential(ionic) =   -3.759093

POLgen: Perturbative polarization orbital with L=  1

POLgen: Polarization orbital for state 1s

   izeta = 1
                     rc =    6.518340
                 energy =    0.533861
                kinetic =    1.121086
    potential(screened) =   -0.587225
       potential(ionic) =   -1.053027
atom: Total number of Sankey-type orbitals:  5

atm_pop: Valence configuration (for local Pseudopot. screening):
 1s( 1.00)                                                            
Vna: chval, zval:    1.00000   1.00000

Vna:  Cut-off radius for the neutral-atom potential:   6.518340

atom: _________________________________________________________________________

<basis_specs>
===============================================================================
N                    Z=   7    Mass=  14.010        Charge= 0.17977+309
Lmxo=1 Lmxkb= 3    BasisType=split      Semic=F
L=0  Nsemic=0  Cnfigmx=2
          i=1  nzeta=2  polorb=0  (2s)
            splnorm:   0.28000    
               vcte:    0.0000    
               rinn:    0.0000    
               qcoe:    0.0000    
               qyuk:    0.0000    
               qwid:   0.10000E-01
                rcs:    0.0000      0.0000    
            lambdas:    1.0000      1.0000    
L=1  Nsemic=0  Cnfigmx=2
          i=1  nzeta=2  polorb=1  (2p)
            splnorm:   0.28000    
               vcte:    0.0000    
               rinn:    0.0000    
               qcoe:    0.0000    
               qyuk:    0.0000    
               qwid:   0.10000E-01
                rcs:    0.0000      0.0000    
            lambdas:    1.0000      1.0000    
-------------------------------------------------------------------------------
L=0  Nkbl=1  erefs: 0.17977+309
L=1  Nkbl=1  erefs: 0.17977+309
L=2  Nkbl=1  erefs: 0.17977+309
L=3  Nkbl=1  erefs: 0.17977+309
===============================================================================
</basis_specs>

atom: Called for N                     (Z =   7)

read_vps: Pseudopotential generation method:
read_vps: ATM4.2.7  Troullier-Martins                       
Valence charge for ps generation:    5.00000

xc_check: Exchange-correlation functional:
xc_check: GGA Perdew, Burke & Ernzerhof 1996
V l=0 = -2*Zval/r beyond r=  1.2889
V l=1 = -2*Zval/r beyond r=  1.2889
V l=2 = -2*Zval/r beyond r=  3.4178
V l=3 = -2*Zval/r beyond r=  2.4084
All V_l potentials equal beyond r=  3.3753
This should be close to max(r_c) in ps generation
All pots = -2*Zval/r beyond r=  3.4178

VLOCAL1: 99.0% of the norm of Vloc inside      3.810 Ry
VLOCAL1: 99.9% of the norm of Vloc inside      8.683 Ry
atom: Maximum radius for 4*pi*r*r*local-pseudopot. charge    4.02088
atom: Maximum radius for r*vlocal+2*Zval:    3.54838
GHOST: No ghost state for L =  0
GHOST: No ghost state for L =  1
GHOST: No ghost state for L =  2
GHOST: No ghost state for L =  3

KBgen: Kleinman-Bylander projectors: 
   l= 0   rc=  3.417763   el= -1.365098   Ekb= -4.433130   kbcos= -0.707855
   l= 1   rc=  3.375302   el= -0.521201   Ekb=-13.264039   kbcos= -0.535594
   l= 2   rc=  3.872880   el=  0.001991   Ekb= -0.641094   kbcos= -0.062456
   l= 3   rc=  3.970931   el=  0.003093   Ekb= -0.474517   kbcos= -0.018236

KBgen: Total number of Kleinman-Bylander projectors:   16
atom: -------------------------------------------------------------------------

atom: SANKEY-TYPE ORBITALS:
atom: Selected multiple-zeta basis: split     

SPLIT: Orbitals with angular momentum L= 0

SPLIT: Basis orbitals for state 2s

SPLIT: PAO cut-off radius determined from an
SPLIT: energy shift=  0.002000 Ry

   izeta = 1
                 lambda =    1.000000
                     rc =    4.730425
                 energy =   -1.363399
                kinetic =    1.245246
    potential(screened) =   -2.608645
       potential(ionic) =   -8.121105

   izeta = 2
                 rmatch =    2.531849
              splitnorm =    0.280000
                 energy =   -0.959908
                kinetic =    2.409435
    potential(screened) =   -3.369343
       potential(ionic) =   -9.427975

SPLIT: Orbitals with angular momentum L= 1

SPLIT: Basis orbitals for state 2p

SPLIT: PAO cut-off radius determined from an
SPLIT: energy shift=  0.002000 Ry

   izeta = 1
                 lambda =    1.000000
                     rc =    5.924108
                 energy =   -0.519262
                kinetic =    3.672940
    potential(screened) =   -4.192202
       potential(ionic) =   -9.518354

   izeta = 2
                 rmatch =    2.531849
              splitnorm =    0.280000
                 energy =   -0.104258
                kinetic =    6.807538
    potential(screened) =   -6.911796
       potential(ionic) =  -13.149920

POLgen: Perturbative polarization orbital with L=  2

POLgen: Polarization orbital for state 2p

   izeta = 1
                     rc =    5.924108
                 energy =    1.427508
                kinetic =    2.872379
    potential(screened) =   -1.444871
       potential(ionic) =   -5.563644
atom: Total number of Sankey-type orbitals: 13

atm_pop: Valence configuration (for local Pseudopot. screening):
 2s( 2.00)                                                            
 2p( 3.00)                                                            
Vna: chval, zval:    5.00000   5.00000

Vna:  Cut-off radius for the neutral-atom potential:   5.924108

atom: _________________________________________________________________________

<basis_specs>
===============================================================================
Si                   Z=  14    Mass=  28.090        Charge= 0.17977+309
Lmxo=1 Lmxkb= 3    BasisType=split      Semic=F
L=0  Nsemic=0  Cnfigmx=3
          i=1  nzeta=2  polorb=0  (3s)
            splnorm:   0.28000    
               vcte:    0.0000    
               rinn:    0.0000    
               qcoe:    0.0000    
               qyuk:    0.0000    
               qwid:   0.10000E-01
                rcs:    0.0000      0.0000    
            lambdas:    1.0000      1.0000    
L=1  Nsemic=0  Cnfigmx=3
          i=1  nzeta=2  polorb=1  (3p)
            splnorm:   0.28000    
               vcte:    0.0000    
               rinn:    0.0000    
               qcoe:    0.0000    
               qyuk:    0.0000    
               qwid:   0.10000E-01
                rcs:    0.0000      0.0000    
            lambdas:    1.0000      1.0000    
-------------------------------------------------------------------------------
L=0  Nkbl=1  erefs: 0.17977+309
L=1  Nkbl=1  erefs: 0.17977+309
L=2  Nkbl=1  erefs: 0.17977+309
L=3  Nkbl=1  erefs: 0.17977+309
===============================================================================
</basis_specs>

atom: Called for Si                    (Z =  14)

read_vps: Pseudopotential generation method:
read_vps: ATM4.2.7  Troullier-Martins                       
Valence charge for ps generation:    4.00000

xc_check: Exchange-correlation functional:
xc_check: GGA Perdew, Burke & Ernzerhof 1996
V l=0 = -2*Zval/r beyond r=  2.7826
V l=1 = -2*Zval/r beyond r=  2.7826
V l=2 = -2*Zval/r beyond r=  2.9253
V l=3 = -2*Zval/r beyond r=  2.7826
All V_l potentials equal beyond r=  2.8530
This should be close to max(r_c) in ps generation
All pots = -2*Zval/r beyond r=  2.9253

VLOCAL1: 99.0% of the norm of Vloc inside      5.333 Ry
VLOCAL1: 99.9% of the norm of Vloc inside     12.154 Ry
atom: Maximum radius for 4*pi*r*r*local-pseudopot. charge    3.39869
atom: Maximum radius for r*vlocal+2*Zval:    2.96205
GHOST: No ghost state for L =  0
GHOST: No ghost state for L =  1
GHOST: No ghost state for L =  2
GHOST: No ghost state for L =  3

KBgen: Kleinman-Bylander projectors: 
   l= 0   rc=  3.075247   el= -0.794092   Ekb=  5.879390   kbcos=  0.167461
   l= 1   rc=  3.153101   el= -0.300068   Ekb=  2.642817   kbcos=  0.058301
   l= 2   rc=  3.273594   el=  0.001958   Ekb= -1.185135   kbcos= -0.104411
   l= 3   rc=  3.232927   el=  0.003046   Ekb= -0.497174   kbcos= -0.015889

KBgen: Total number of Kleinman-Bylander projectors:   16
atom: -------------------------------------------------------------------------

atom: SANKEY-TYPE ORBITALS:
atom: Selected multiple-zeta basis: split     

SPLIT: Orbitals with angular momentum L= 0

SPLIT: Basis orbitals for state 3s

SPLIT: PAO cut-off radius determined from an
SPLIT: energy shift=  0.002000 Ry

   izeta = 1
                 lambda =    1.000000
                     rc =    6.429618
                 energy =   -0.792283
                kinetic =    0.525293
    potential(screened) =   -1.317576
       potential(ionic) =   -3.744923

   izeta = 2
                 rmatch =    3.998416
              splitnorm =    0.280000
                 energy =   -0.583081
                kinetic =    1.069570
    potential(screened) =   -1.652651
       potential(ionic) =   -4.235185

SPLIT: Orbitals with angular momentum L= 1

SPLIT: Basis orbitals for state 3p

SPLIT: PAO cut-off radius determined from an
SPLIT: energy shift=  0.002000 Ry

   izeta = 1
                 lambda =    1.000000
                     rc =    8.464845
                 energy =   -0.298236
                kinetic =    0.785360
    potential(screened) =   -1.083596
       potential(ionic) =   -3.273779

   izeta = 2
                 rmatch =    4.587816
              splitnorm =    0.280000
                 energy =   -0.131871
                kinetic =    1.403687
    potential(screened) =   -1.535557
       potential(ionic) =   -4.015310

POLgen: Perturbative polarization orbital with L=  2

POLgen: Polarization orbital for state 3p

   izeta = 1
                     rc =    8.464845
                 energy =    0.321949
                kinetic =    1.055677
    potential(screened) =   -0.733728
       potential(ionic) =   -2.672950
atom: Total number of Sankey-type orbitals: 13

atm_pop: Valence configuration (for local Pseudopot. screening):
 3s( 2.00)                                                            
 3p( 2.00)                                                            
Vna: chval, zval:    4.00000   4.00000

Vna:  Cut-off radius for the neutral-atom potential:   8.464845

atom: _________________________________________________________________________

<basis_specs>
===============================================================================
O                    Z=   8    Mass=  16.000        Charge= 0.17977+309
Lmxo=1 Lmxkb= 3    BasisType=split      Semic=F
L=0  Nsemic=0  Cnfigmx=2
          i=1  nzeta=2  polorb=0  (2s)
            splnorm:   0.28000    
               vcte:    0.0000    
               rinn:    0.0000    
               qcoe:    0.0000    
               qyuk:    0.0000    
               qwid:   0.10000E-01
                rcs:    0.0000      0.0000    
            lambdas:    1.0000      1.0000    
L=1  Nsemic=0  Cnfigmx=2
          i=1  nzeta=2  polorb=1  (2p)
            splnorm:   0.28000    
               vcte:    0.0000    
               rinn:    0.0000    
               qcoe:    0.0000    
               qyuk:    0.0000    
               qwid:   0.10000E-01
                rcs:    0.0000      0.0000    
            lambdas:    1.0000      1.0000    
-------------------------------------------------------------------------------
L=0  Nkbl=1  erefs: 0.17977+309
L=1  Nkbl=1  erefs: 0.17977+309
L=2  Nkbl=1  erefs: 0.17977+309
L=3  Nkbl=1  erefs: 0.17977+309
===============================================================================
</basis_specs>

atom: Called for O                     (Z =   8)

read_vps: Pseudopotential generation method:
read_vps: ATM4.2.7  Troullier-Martins                       
Valence charge for ps generation:    6.00000

xc_check: Exchange-correlation functional:
xc_check: GGA Perdew, Burke & Ernzerhof 1996
V l=0 = -2*Zval/r beyond r=  1.1000
V l=1 = -2*Zval/r beyond r=  1.1000
V l=2 = -2*Zval/r beyond r=  2.2154
V l=3 = -2*Zval/r beyond r=  1.1000
All V_l potentials equal beyond r=  2.2154
This should be close to max(r_c) in ps generation
All pots = -2*Zval/r beyond r=  2.2154

VLOCAL1: 99.0% of the norm of Vloc inside      8.845 Ry
VLOCAL1: 99.9% of the norm of Vloc inside     20.157 Ry
atom: Maximum radius for 4*pi*r*r*local-pseudopot. charge    2.67231
atom: Maximum radius for r*vlocal+2*Zval:    2.32897
GHOST: No ghost state for L =  0
GHOST: No ghost state for L =  1
GHOST: No ghost state for L =  2
GHOST: No ghost state for L =  3

KBgen: Kleinman-Bylander projectors: 
   l= 0   rc=  2.243238   el= -1.759686   Ekb=**********   kbcos= -0.171774
   l= 1   rc=  2.328968   el= -0.663873   Ekb=-14.506792   kbcos= -0.519897
   l= 2   rc=  2.573941   el=  0.002031   Ekb= -1.137373   kbcos= -0.019581
   l= 3   rc=  2.606321   el=  0.003153   Ekb= -1.013546   kbcos= -0.003122

KBgen: Total number of Kleinman-Bylander projectors:   16
atom: -------------------------------------------------------------------------

atom: SANKEY-TYPE ORBITALS:
atom: Selected multiple-zeta basis: split     

SPLIT: Orbitals with angular momentum L= 0

SPLIT: Basis orbitals for state 2s

SPLIT: PAO cut-off radius determined from an
SPLIT: energy shift=  0.002000 Ry

   izeta = 1
                 lambda =    1.000000
                     rc =    4.243912
                 energy =   -1.758270
                kinetic =    3.286084
    potential(screened) =   -5.044353
       potential(ionic) =  -12.921184

   izeta = 2
                 rmatch =    2.187845
              splitnorm =    0.280000
                 energy =   -0.885018
                kinetic =    8.134434
    potential(screened) =   -9.019452
       potential(ionic) =  -17.710645

SPLIT: Orbitals with angular momentum L= 1

SPLIT: Basis orbitals for state 2p

SPLIT: PAO cut-off radius determined from an
SPLIT: energy shift=  0.002000 Ry

   izeta = 1
                 lambda =    1.000000
                     rc =    5.314825
                 energy =   -0.661986
                kinetic =    4.917472
    potential(screened) =   -5.579458
       potential(ionic) =  -13.236259

   izeta = 2
                 rmatch =    2.160663
              splitnorm =    0.280000
                 energy =   -0.068760
                kinetic =    9.183374
    potential(screened) =   -9.252135
       potential(ionic) =  -18.274251

POLgen: Perturbative polarization orbital with L=  2

POLgen: Polarization orbital for state 2p

   izeta = 1
                     rc =    5.314825
                 energy =    1.970580
                kinetic =    3.886128
    potential(screened) =   -1.915547
       potential(ionic) =   -7.749584
atom: Total number of Sankey-type orbitals: 13

atm_pop: Valence configuration (for local Pseudopot. screening):
 2s( 2.00)                                                            
 2p( 4.00)                                                            
Vna: chval, zval:    6.00000   6.00000

Vna:  Cut-off radius for the neutral-atom potential:   5.314825

atom: _________________________________________________________________________

prinput: Basis input ----------------------------------------------------------

PAO.BasisType split     

%block ChemicalSpeciesLabel
    1    1 H                       # Species index, atomic number, species label
    2    7 N                       # Species index, atomic number, species label
    3   14 Si                      # Species index, atomic number, species label
    4    8 O                       # Species index, atomic number, species label
%endblock ChemicalSpeciesLabel

%block PAO.Basis                 # Define Basis set
H                     1                    # Species label, number of l-shells
 n=1   0   2 P   1                   # n, l, Nzeta, Polarization, NzetaPol
   6.518      2.141   
   1.000      1.000   
N                     2                    # Species label, number of l-shells
 n=2   0   2                         # n, l, Nzeta 
   4.730      2.532   
   1.000      1.000   
 n=2   1   2 P   1                   # n, l, Nzeta, Polarization, NzetaPol
   5.924      2.532   
   1.000      1.000   
Si                    2                    # Species label, number of l-shells
 n=3   0   2                         # n, l, Nzeta 
   6.430      3.998   
   1.000      1.000   
 n=3   1   2 P   1                   # n, l, Nzeta, Polarization, NzetaPol
   8.465      4.588   
   1.000      1.000   
O                     2                    # Species label, number of l-shells
 n=2   0   2                         # n, l, Nzeta 
   4.244      2.188   
   1.000      1.000   
 n=2   1   2 P   1                   # n, l, Nzeta, Polarization, NzetaPol
   5.315      2.161   
   1.000      1.000   
%endblock PAO.Basis

prinput: ----------------------------------------------------------------------

Dumping basis to NetCDF file H.ion.nc
Dumping basis to NetCDF file N.ion.nc
Dumping basis to NetCDF file Si.ion.nc
Dumping basis to NetCDF file O.ion.nc
coor:   Atomic-coordinates input format  =     Cartesian coordinates
coor:                                          (in Angstroms)

siesta: Atomic coordinates (Bohr) and species
siesta:     26.07791 -31.92999  -0.00000  1        1
siesta:     21.23194 -30.76912  -0.00000  2        2
siesta:     15.08473 -36.63603  -0.00000  3        3
siesta:     17.38238 -43.28620   0.00000  1        4
siesta:      7.37465 -34.34133  -0.00000  2        5
siesta:      7.59965 -25.82743   0.00000  3        6
siesta:      1.91498 -16.96338  -0.00000  3        7
siesta:     -5.37278 -15.12448  -0.00000  4        8
siesta:      7.78276 -10.30138   0.00000  2        9
siesta:      5.37480  -5.88666   0.00000  1       10
siesta:     16.07919  -9.84714   0.00000  3       11
siesta:     19.07831  -2.18417  -0.00000  2       12
siesta:     16.54953   2.09187   0.00000  1       13
siesta:     24.01120  -1.67616  -0.00000  1       14
siesta:     21.56551 -15.75000   0.00000  2       15
siesta:     17.57540 -22.97819  -0.00000  3       16

siesta: Automatic unit cell vectors (Ang):
siesta:   25.195302    0.000000    0.000000
siesta:    0.000000   34.002919    0.000000
siesta:    0.000000    0.000000    9.854683

siesta: System type = molecule  

initatomlists: Number of atoms, orbitals, and projectors:     16   168   221

siesta: ******************** Simulation parameters ****************************
siesta:
siesta: The following are some of the parameters of the simulation.
siesta: A complete list of the parameters used, including default values,
siesta: can be found in file out.fdf
siesta:
redata: Spin configuration                          = spin-orbit
redata: Number of spin components                   = 8
redata: Time-Reversal Symmetry                      = F
redata: Spin spiral                                 = F
############################################################
This spin-orbit implementation uses a local approximation.
From 4.2 and onwards the full non-local approximation is implemented
You are strongly advised to use >=4.2 versions!
############################################################
redata: Long output                                 =   F
redata: Number of Atomic Species                    =        4
redata: Charge density info will appear in .RHO file
redata: Write Mulliken Pop.                         = NO
redata: Matel table size (NRTAB)                    =     1024
redata: Mesh Cutoff                                 =   340.0000 Ry
redata: Net charge of the system                    =     0.0000 |e|
redata: Min. number of SCF Iter                     =        1
redata: Max. number of SCF Iter                     =      500
redata: SCF convergence failure will abort job
redata: SCF mix quantity                            = Hamiltonian
redata: Mix DM or H after convergence               =   F
redata: Recompute H after scf cycle                 =   F
redata: Mix DM in first SCF step                    =   T
redata: Write Pulay info on disk                    =   F
redata: New DM Occupancy tolerance                  = 0.000000000001
redata: No kicks to SCF
redata: DM Mixing Weight for Kicks                  =     0.5000
redata: Require Harris convergence for SCF          =   F
redata: Harris energy tolerance for SCF             =     0.000100 eV
redata: Require DM convergence for SCF              =   T
redata: DM tolerance for SCF                        =     0.800000
redata: Require EDM convergence for SCF             =   F
redata: EDM tolerance for SCF                       =     0.001000 eV
redata: Require H convergence for SCF               =   T
redata: Hamiltonian tolerance for SCF               =     0.100000 eV
redata: Require (free) Energy convergence for SCF   =   F
redata: (free) Energy tolerance for SCF             =     0.000100 eV
redata: Using Saved Data (generic)                  =   F
redata: Use continuation files for DM               =   T
redata: Neglect nonoverlap interactions             =   F
redata: Method of Calculation                       = Diagonalization
redata: Electronic Temperature                      =   299.9978 K
redata: Fix the spin of the system                  =   F
redata: Dynamics option                             = Single-point calculation
mix.SCF: Pulay mixing                            = Pulay
mix.SCF:    Variant                              = stable
mix.SCF:    History steps                        = 20
mix.SCF:    Linear mixing weight                 =     0.250000
mix.SCF:    Mixing weight                        =     0.250000
mix.SCF:    SVD condition                        = 0.1000E-07
mix.SCF:    Restart steps                        = 60
mix.SCF:    Restart save steps                   = 5
mix.SCF: Spin-component mixing                   all
redata: Save all siesta data in one NC              =   F
redata: ***********************************************************************

%block SCF.Mixers
  Pulay
%endblock SCF.Mixers

%block SCF.Mixer.Pulay
  # Mixing method
  method pulay
  variant stable

  # Mixing options
  weight 0.2500
  weight.linear 0.2500
  history 20
  restart 60
  restart.save 5
%endblock SCF.Mixer.Pulay

DM_history_depth set to one: no extrapolation allowed by default for geometry relaxation
Size of DM history Fstack: 1
Total number of electrons:    56.000000
Total ionic charge:    56.000000

* ProcessorY, Blocksize:    4   5


* Orbital distribution balance (max,min):    10     5


Time-reversal symmetry not used.

siesta: k-grid: Number of k-points =     1
siesta: k-grid: Cutoff (effective) =     4.927 Ang
siesta: k-grid: Supercell and displacements
siesta: k-grid:    1   0   0      0.000
siesta: k-grid:    0   1   0      0.000
siesta: k-grid:    0   0   1      0.000

diag: Algorithm                                     = ELPA-1stage
diag: Parallel over k                               =   F
diag: Use parallel 2D distribution                  =   T
diag: Parallel block-size                           = 5
diag: Parallel distribution                         =     4 x     8
diag: Used triangular part                          = Lower
diag: Absolute tolerance                            =  0.100E-15
diag: Orthogonalization factor                      =  0.100E-05
diag: Memory factor                                 =  1.0000


ts: **************************************************************
ts: Save H and S matrices                           =    F
ts: Save DM and EDM matrices                        =    F
ts: Only save the overlap matrix S                  =    F
ts: **************************************************************

************************ Begin: TS CHECKS AND WARNINGS ************************
************************ End: TS CHECKS AND WARNINGS **************************


                     ====================================
                        Single-point calculation
                     ====================================

outcoor: Atomic coordinates (Ang):                          
   13.79982868  -16.89661785    0.00000000   1       1  H
   11.23545178  -16.28231190    0.00000000   2       2  N
    7.98249210  -19.38694613    0.00000000   3       3  Si
    9.19835625  -22.90606320    0.00000000   1       4  H
    3.90249368  -18.17264408    0.00000000   2       5  N
    4.02155965  -13.66728005    0.00000000   3       6  Si
    1.01336107   -8.97663108    0.00000000   3       7  Si
   -2.84315233   -8.00352875    0.00000000   4       8  O
    4.11845880   -5.45125448    0.00000000   2       9  N
    2.84422035   -3.11508338    0.00000000   1      10  H
    8.50873558   -5.21087952    0.00000000   3      11  Si
   10.09580445   -1.15581110    0.00000000   2      12  N
    8.75763217    1.10696980    0.00000000   1      13  H
   12.70617730   -0.88698535    0.00000000   1      14  H
   11.41197208   -8.33453570    0.00000000   2      15  N
    9.30049615  -12.15953190    0.00000000   3      16  Si

outcell: Unit cell vectors (Ang):
       25.195302    0.000000    0.000000
        0.000000   34.002919    0.000000
        0.000000    0.000000    9.854683

outcell: Cell vector modules (Ang)   :   25.195302   34.002919    9.854683
outcell: Cell angles (23,13,12) (deg):     90.0000     90.0000     90.0000
outcell: Cell volume (Ang**3)        :   8442.6434
<dSpData1D:S at geom step 0
  <sparsity:sparsity for geom step 0
    nrows_g=168 nrows=10 sparsity=.0197 nnzs=557, refcount: 8>
  <dData1D:(new from dSpData1D) n=557, refcount: 1>
refcount: 1>
new_DM -- step:     1
Initializing Density Matrix...

Attempting to read DM from file... Succeeded...
DM from file:
<dSpData2D:IO-DM: Guanine.DM
  <sparsity:IO-DM: Guanine.DM
    nrows_g=168 nrows=10 sparsity=.0197 nnzs=557, refcount: 1>
  <dData2D:(new from dSpData2D) n=557 m=8, refcount: 1>
refcount: 1>
DM to be used:
<dSpData2D:Re-structured SpM
  <sparsity:sparsity for geom step 0
    nrows_g=168 nrows=10 sparsity=.0197 nnzs=557, refcount: 9>
  <dData2D:(new in restruct) n=557 m=8, refcount: 1>
refcount: 1>
     spin moment: S , {S} =   15.98278  -0.18248   0.02758  15.98172
No. of atoms with KB's overlaping orbs in proc 0. Max # of overlaps:       5      39

Initializing spin-orbit part of the Hamiltonian
  Adding spin-orbit effects for H 
  Adding spin-orbit effects for N 
  Adding spin-orbit effects for Si
  Adding spin-orbit effects for O 


New grid distribution:   1
           1       1:  144    1:   48    1:    8
           2       1:  144    1:   48    9:   16
           3       1:  144    1:   48   17:   24
           4       1:  144    1:   48   25:   32
           5       1:  144    1:   48   33:   39
           6       1:  144    1:   48   40:   46
           7       1:  144    1:   48   47:   53
           8       1:  144    1:   48   54:   60
           9       1:  144   49:   96    1:    8
          10       1:  144   49:   96    9:   16
          11       1:  144   49:   96   17:   24
          12       1:  144   49:   96   25:   32
          13       1:  144   49:   96   33:   39
          14       1:  144   49:   96   40:   46
          15       1:  144   49:   96   47:   53
          16       1:  144   49:   96   54:   60
          17       1:  144   97:  144    1:    8
          18       1:  144   97:  144    9:   16
          19       1:  144   97:  144   17:   24
          20       1:  144   97:  144   25:   32
          21       1:  144   97:  144   33:   39
          22       1:  144   97:  144   40:   46
          23       1:  144   97:  144   47:   53
          24       1:  144   97:  144   54:   60
          25       1:  144  145:  192    1:    8
          26       1:  144  145:  192    9:   16
          27       1:  144  145:  192   17:   24
          28       1:  144  145:  192   25:   32
          29       1:  144  145:  192   33:   39
          30       1:  144  145:  192   40:   46
          31       1:  144  145:  192   47:   53
          32       1:  144  145:  192   54:   60

InitMesh: MESH =   288 x   384 x   120 =    13271040
InitMesh: (bp) =   144 x   192 x    60 =     1658880
InitMesh: Mesh cutoff (required, used) =   340.000   352.478 Ry
ExtMesh (bp) on 0 =   248 x   152 x   120 =     4523520
New grid distribution:   2
           1       1:   30    1:  102    1:   19
           2       1:   22  130:  156   26:   60
           3      45:   60   98:  129    1:   24
           4      59:  144    1:   97   25:   60
           5       1:   30    1:  102   20:   60
           6      45:   58    1:   97   25:   60
           7      45:   60   98:  129   25:   60
           8      27:   44  103:  129    1:   23
           9      59:  144    1:   97    1:   24
          10       1:   26  103:  129    1:   25
          11      52:   62  152:  192    1:   23
          12      31:   44    1:  102   24:   60
          13      63:  144  152:  192    1:   20
          14      31:   44    1:  102    1:   23
          15      32:   51  157:  192    1:   24
          16      52:   68  130:  151    1:   20
          17      69:  144  130:  151    1:   22
          18      23:   51  130:  156    1:   21
          19      27:   44  103:  129   24:   60
          20      61:  144   98:  129   23:   60
          21      69:  144  130:  151   23:   60
          22      45:   58    1:   97    1:   24
          23       1:   26  103:  129   26:   60
          24      52:   68  130:  151   21:   60
          25       1:   31  157:  192    1:   18
          26       1:   22  130:  156    1:   25
          27      23:   51  130:  156   22:   60
          28      63:  144  152:  192   21:   60
          29      61:  144   98:  129    1:   22
          30       1:   31  157:  192   19:   60
          31      32:   51  157:  192   25:   60
          32      52:   62  152:  192   24:   60
New grid distribution:   3
           1      26:   48  156:  192   26:   60
           2      50:   61    1:   88    1:   25
           3       1:   25  156:  192    1:   20
           4      62:  144    1:   88   21:   60
           5       1:   38    1:   95   24:   60
           6      50:   61    1:   88   26:   60
           7      49:   66  154:  192   27:   60
           8      49:   66  154:  192    1:   26
           9      62:  144    1:   88    1:   20
          10      39:   49    1:   95    1:   26
          11      50:   68   89:  125    1:   26
          12      27:   49   96:  125   27:   60
          13       1:   38    1:   95    1:   23
          14      39:   49    1:   95   27:   60
          15      50:   68   89:  125   27:   60
          16      49:   74  126:  153    1:   25
          17      69:  144   89:  125    1:   20
          18       1:   21  126:  155   27:   60
          19       1:   26   96:  125    1:   26
          20      69:  144   89:  125   21:   60
          21      75:  144  126:  153   25:   60
          22      22:   48  126:  155   25:   60
          23       1:   26   96:  125   27:   60
          24      27:   49   96:  125    1:   26
          25      75:  144  126:  153    1:   24
          26      26:   48  156:  192    1:   25
          27      22:   48  126:  155    1:   24
          28      67:  144  154:  192   21:   60
          29      67:  144  154:  192    1:   20
          30       1:   25  156:  192   21:   60
          31      49:   74  126:  153   26:   60
          32       1:   21  126:  155    1:   26
Setting up quadratic distribution...
ExtMesh (bp) on 0 =   134 x   206 x   131 =     3616124
PhiOnMesh: Number of (b)points on node 0 =                58140
PhiOnMesh: nlist on node 0 =               156586

stepf: Fermi-Dirac step function

siesta: Program's energy decomposition (eV):
siesta: Ebs     =      -543.974048
siesta: Eions   =      2040.955082
siesta: Ena     =       176.651419
siesta: Ekin    =      1551.335113
siesta: Enl     =     -1437.430400
siesta: Eso     =        -0.008438
siesta: Edftu   =         0.000000
siesta: DEna    =         4.457452
siesta: DUscf   =         2.950815
siesta: DUext   =         0.000000
siesta: Exc     =      -598.362191
siesta: eta*DQ  =         0.000000
siesta: Emadel  =         0.000000
siesta: Emeta   =         0.000000
siesta: Emolmec =         0.000000
siesta: Ekinion =         0.000000
siesta: Eharris =     -2339.827484
siesta: Etot    =     -2341.361312
siesta: FreeEng =     -2341.434261

        iscf     Eharris(eV)        E_KS(eV)     FreeEng(eV)     dDmax    Ef(eV) dHmax(eV)
   scf:    1    -2339.827484    -2341.361312    -2341.434261  0.309682 -4.701213  6.656126
     spin moment: S , {S} =   15.98221  -0.18766   0.03119  15.98107
timer: Routine,Calls,Time,% = IterSCF        1       4.471  30.73
   scf:    2    -2273.019901    -2321.103581    -2321.170766  0.784849 -4.714574 27.389722
     spin moment: S , {S} =   15.98235  -0.21345   0.03514  15.98088
   scf:    3    -2333.112069    -2340.331801    -2340.395447  0.755399 -4.690221  5.475374
     spin moment: S , {S} =   15.98203  -0.18925   0.03271  15.98088
   scf:    4    -2340.751098    -2341.551545    -2341.627548  0.230144 -4.726220  3.561751
     spin moment: S , {S} =   15.98240  -0.19522   0.03375  15.98117
   scf:    5    -2342.030133    -2341.878658    -2341.952408  0.060457 -4.724084  3.583449
     spin moment: S , {S} =   15.98216  -0.19575   0.03380  15.98092
   scf:    6    -2341.869418    -2341.919852    -2341.991943  0.069472 -4.718830  3.024423
     spin moment: S , {S} =   15.98201  -0.19349   0.03358  15.98081
   scf:    7    -2342.053569    -2342.040672    -2342.112711  0.066825 -4.714634  2.120146
     spin moment: S , {S} =   15.98191  -0.19668   0.03433  15.98066
   scf:    8    -2342.110926    -2342.083210    -2342.156093  0.031906 -4.714444  1.372984
     spin moment: S , {S} =   15.98185  -0.19708   0.03477  15.98059
   scf:    9    -2342.097175    -2342.090435    -2342.163207  0.005089 -4.714227  1.232148
     spin moment: S , {S} =   15.98181  -0.19737   0.03500  15.98056
   scf:   10    -2342.114144    -2342.103753    -2342.176853  0.023283 -4.713647  0.704096
     spin moment: S , {S} =   15.98162  -0.19975   0.03639  15.98033
   scf:   11    -2342.090260    -2342.099869    -2342.172558  0.018858 -4.713484  1.057166
     spin moment: S , {S} =   15.98221  -0.19227   0.03221  15.98102
   scf:   12    -2342.098283    -2342.100525    -2342.173334  0.004503 -4.713051  1.094224
     spin moment: S , {S} =   15.98273  -0.18601   0.02858  15.98162
   scf:   13    -2342.091870    -2342.097449    -2342.170176  0.007716 -4.712621  1.209811
     spin moment: S , {S} =   15.98363  -0.17591   0.02262  15.98264
   scf:   14    -2342.096950    -2342.097243    -2342.169964  0.000324 -4.712635  1.218465
     spin moment: S , {S} =   15.98360  -0.17624   0.02282  15.98261
   scf:   15    -2342.096496    -2342.096870    -2342.169573  0.000501 -4.712649  1.230866
     spin moment: S , {S} =   15.98360  -0.17625   0.02282  15.98261
   scf:   16    -2342.099582    -2342.098077    -2342.170729  0.001941 -4.712889  1.200527
     spin moment: S , {S} =   15.98371  -0.17564   0.02225  15.98273
   scf:   17    -2342.101836    -2342.100098    -2342.172741  0.001852 -4.712873  1.154303
     spin moment: S , {S} =   15.98364  -0.17635   0.02268  15.98265
   scf:   18    -2342.099431    -2342.099748    -2342.172406  0.002784 -4.713004  1.162727
     spin moment: S , {S} =   15.98366  -0.17692   0.02287  15.98266
   scf:   19    -2342.115295    -2342.108159    -2342.180883  0.009940 -4.712692  0.886480
     spin moment: S , {S} =   15.98353  -0.17587   0.02229  15.98255
   scf:   20    -2342.111056    -2342.109531    -2342.182250  0.012373 -4.712092  0.822868
     spin moment: S , {S} =   15.98348  -0.17343   0.02087  15.98252
   scf:   21    -2342.115371    -2342.112631    -2342.185322  0.009834 -4.711070  0.691566
     spin moment: S , {S} =   15.98336  -0.17284   0.01953  15.98241
   scf:   22    -2342.121368    -2342.114987    -2342.187712  0.051712 -4.707864  0.300989
     spin moment: S , {S} =   15.98286  -0.16887   0.01044  15.98197
   scf:   23    -2342.116731    -2342.116374    -2342.188857  0.023610 -4.709484  0.413010
     spin moment: S , {S} =   15.98313  -0.17073   0.01531  15.98221
   scf:   24    -2342.118310    -2342.117605    -2342.190194  0.005321 -4.709463  0.359905
     spin moment: S , {S} =   15.98324  -0.17074   0.01720  15.98231
   scf:   25    -2342.116902    -2342.117266    -2342.189734  0.002373 -4.709328  0.401605
     spin moment: S , {S} =   15.98329  -0.17008   0.01905  15.98237
   scf:   26    -2342.118370    -2342.117540    -2342.190167  0.006025 -4.709045  0.248347
     spin moment: S , {S} =   15.98338  -0.16727   0.02137  15.98249
   scf:   27    -2342.123904    -2342.120847    -2342.193477  0.033621 -4.710762  0.101920
     spin moment: S , {S} =   15.98330  -0.17686   0.02020  15.98231
   scf:   28    -2342.121481    -2342.120996    -2342.193702  0.012391 -4.710701  0.036694
     spin moment: S , {S} =   15.98339  -0.17825   0.02063  15.98238

SCF Convergence by DM+H criterion
max |DM_out - DM_in|         :     0.0123911699
max |H_out - H_in|      (eV) :     0.0366937330
SCF cycle converged after 28 iterations

Using DM_out to compute the final energy and forces
No. of atoms with KB's overlaping orbs in proc 0. Max # of overlaps:       5      39

siesta: E_KS(eV) =            -2342.1210

siesta: E_KS - E_eggbox =     -2342.1210
     spin moment: S , {S} =   15.98339  -0.17825   0.02063  15.98238

siesta: Atomic forces (eV/Ang):
     1   -0.167628    0.004855    0.000007
     2    0.218360   -0.057128   -0.000012
     3    0.048591   -0.123985   -0.000019
     4   -0.085922    0.087157    0.000008
     5    0.013422   -0.015898    0.000027
     6    0.081717    0.122166    0.000001
     7   -0.270002   -0.000980    0.000000
     8    0.246724    2.956974    0.000005
     9   -0.098970    0.191982    0.000006
    10    0.109476   -0.170355   -0.000002
    11    0.057250   -0.066645   -0.000016
    12    0.113337    0.225448    0.000007
    13    0.108267   -0.204829   -0.000000
    14   -0.350066   -0.015330    0.000001
    15   -0.094730   -0.045121    0.000913
    16   -0.042064    0.121976    0.000038
----------------------------------------
   Tot   -0.112238    3.010287    0.000965
----------------------------------------
   Max    2.956974
   Res    0.441929    sqrt( Sum f_i^2 / 3N )
----------------------------------------
   Max    2.956974    constrained

Stress tensor Voigt[x,y,z,yz,xz,xy] (kbar):        0.88        0.63       -0.00        0.00        0.00       -0.18
(Free)E + p*V (eV/cell)    -2344.8431
Target enthalpy (eV/cell)    -2342.1937

siesta: Eigenvalues (eV):
ik =     1
  -22.6251  -20.1164  -19.9792  -19.8969  -19.7445  -19.5140  -17.5518  -15.6704  -15.3601  -15.3108
  -15.2208  -15.1637  -11.5295  -11.5104  -11.5087  -11.4916  -11.4901   -9.9611   -9.9454   -9.9328
   -9.8198   -9.7711   -8.7254   -8.6158   -8.5889   -8.5879   -8.4930   -8.4799   -8.4658   -8.4088
   -8.3971   -8.3834   -8.3191   -8.2804   -8.2681   -8.2471   -7.9010   -7.8475   -7.8381   -7.7045
   -7.4673   -6.9967   -6.9446   -6.6815   -6.1787   -5.5837   -4.8807   -4.8482   -4.8291   -4.8049
   -4.8020   -4.8008   -4.7861   -4.7644   -4.7543   -4.7467   -4.7196   -4.6139   -4.5869   -4.5390
   -4.4965   -4.4006   -4.2257   -4.2111   -4.1057   -4.0768   -3.9418   -3.9006   -3.8738   -3.8372
   -3.7985   -3.7813   -3.7342   -3.6976   -3.6257   -3.6121   -3.6004   -3.5946   -3.5888   -3.4539
   -3.2739   -3.2194   -3.1355   -3.0301   -3.0186   -2.9829   -2.9472   -2.9061   -2.8539   -2.8348
   -2.8182   -2.7834   -2.7726   -2.1368   -1.4433   -1.3958   -1.2874   -1.2152    2.1921    2.3277
    2.4723    2.5109    2.5362    2.6395    2.6781    2.6979    2.7248    2.7255    2.7562    2.7587
    2.7714    2.7797    2.7987    2.7995    2.8913    2.8982    2.9926    3.0154    3.0613    3.0757
    3.1149    3.2431    3.3915    3.4216    3.6190    3.7335    3.7746    3.8316    3.8659    3.8742
    3.9223    3.9650    3.9700    3.9824    4.1045    4.3014    4.3249    4.3365    4.4005    4.4072
    4.4338    4.4555    4.4826    4.5573    4.5853    4.5942    4.6590    4.7072    5.7747    5.9206
    6.3325    6.3485    6.3722    6.4021    6.4672    6.4807    6.4993    6.5057    6.5260    6.5321
    6.5492    6.5673    6.5735    6.5769    6.5893    6.6454    6.6682    6.6792    6.7746    6.8262
    6.8543    6.8942    6.9095    6.9508    7.1678    7.4145    7.5529    7.5696    7.6077    7.6232
    7.7494    7.8092    7.8758    7.8976    7.9283    8.0569    8.0754    8.1201    8.1795    8.2548
    8.5644    9.1247    9.7839    9.8668   10.2240   10.2276   10.2446   10.3264   10.3361   10.3703
   10.5247   10.5258   10.5593   10.5671   10.7463   10.7703   10.8017   11.3150   12.1725   12.2609
   12.5038   12.6709   13.3637   13.4837   13.6928   13.9235   14.2885   14.6148   23.0659   23.1567
   23.1687   23.1918   23.4456   23.4645   23.4762   23.5124   23.8290   24.0052   24.3318   24.3370
   24.3931   24.5741   24.7200   25.0873   25.3797   25.5797   25.7533   26.0436   26.3170   26.4118
   26.5332   26.6665   26.9133   26.9969   27.0269   27.0276   27.0704   27.1412   27.1727   27.3548
   27.4178   27.4256   27.5019   27.6229   27.6352   27.7085   27.8084   27.8578   28.0401   28.0434
   28.0598   28.0755   28.1468   28.1570   28.1995   28.2116   28.4359   28.4417   28.5205   28.5774
   28.7875   28.8398   28.8671   28.9396   29.0162   29.0193   29.0671   29.2197   29.2827   29.2899
   29.3947   29.4817   29.5284   29.5498   29.6088   29.6305   29.6570   29.7030   29.7807   29.8585
   29.8700   29.8960   29.9653   29.9807   29.9811   30.1800   30.3352   30.5714   30.5924   30.7169
   30.7313   30.7368   30.8113   30.8129   30.8967   31.1461   31.2696   31.2929   31.4215   31.7845
   31.8185   31.9628   32.3548   32.4278   32.6060   32.8241   33.4611   33.4741   34.3162   34.6215
   35.5417   35.7396   35.7600   35.9930   36.0600   36.7683   39.0445   39.0625   39.3745   39.4500
   39.5919   39.5980   40.9852   41.1224   55.8340   57.8426
siesta: Fermi energy =      -4.710701 eV

siesta: Program's energy decomposition (eV):
siesta: Ebs     =      -560.471204
siesta: Eions   =      2040.955082
siesta: Ena     =       176.651419
siesta: Ekin    =      1537.087760
siesta: Enl     =     -1423.298755
siesta: Eso     =        -0.008667
siesta: Edftu   =         0.000000
siesta: DEna    =         3.108950
siesta: DUscf   =         1.489665
siesta: DUext   =         0.000000
siesta: Exc     =      -596.196286
siesta: eta*DQ  =         0.000000
siesta: Emadel  =         0.000000
siesta: Emeta   =         0.000000
siesta: Emolmec =         0.000000
siesta: Ekinion =         0.000000
siesta: Eharris =     -2342.121481
siesta: Etot    =     -2342.120996
siesta: FreeEng =     -2342.193702

siesta: Final energy (eV):
siesta:  Band Struct. =    -560.471204
siesta:       Kinetic =    1537.087760
siesta:       Hartree =    2242.388854
siesta:       Edftu   =       0.000000
siesta:       Eso     =      -0.008667
siesta:    Ext. field =       0.000000
siesta:   Exch.-corr. =    -596.196286
siesta:  Ion-electron =   -5810.893870
siesta:       Ion-ion =     285.501213
siesta:       Ekinion =       0.000000
siesta:         Total =   -2342.120996
siesta:         Fermi =      -4.710701

siesta: Atomic forces (eV/Ang):
siesta:      1   -0.167628    0.004855    0.000007
siesta:      2    0.218360   -0.057128   -0.000012
siesta:      3    0.048591   -0.123985   -0.000019
siesta:      4   -0.085922    0.087157    0.000008
siesta:      5    0.013422   -0.015898    0.000027
siesta:      6    0.081717    0.122166    0.000001
siesta:      7   -0.270002   -0.000980    0.000000
siesta:      8    0.246724    2.956974    0.000005
siesta:      9   -0.098970    0.191982    0.000006
siesta:     10    0.109476   -0.170355   -0.000002
siesta:     11    0.057250   -0.066645   -0.000016
siesta:     12    0.113337    0.225448    0.000007
siesta:     13    0.108267   -0.204829   -0.000000
siesta:     14   -0.350066   -0.015330    0.000001
siesta:     15   -0.094730   -0.045121    0.000913
siesta:     16   -0.042064    0.121976    0.000038
siesta: ----------------------------------------
siesta:    Tot   -0.112238    3.010287    0.000965

siesta: Stress tensor (static) (eV/Ang**3):
siesta:     0.000549   -0.000111    0.000000
siesta:    -0.000109    0.000393    0.000000
siesta:     0.000000    0.000000   -0.000001

siesta: Cell volume =       8442.643395 Ang**3

siesta: Pressure (static):
siesta:                Solid            Molecule  Units
siesta:          -0.00000342         -0.00000385  Ry/Bohr**3
siesta:          -0.00031381         -0.00035318  eV/Ang**3
siesta:          -0.50278693         -0.56586353  kBar
(Free)E+ p_basis*V_orbitals  =       -2331.204027
(Free)Eharris+ p_basis*V_orbitals  =       -2331.204512
     spin moment: S , {S} =   15.98339  -0.17825   0.02063  15.98238

siesta: Electric dipole (a.u.)  =    1.420048   -0.410068   -0.000007
siesta: Electric dipole (Debye) =    3.609406   -1.042291   -0.000017

cite: Please see "Guanine.bib" for an exhaustive BiBTeX file.
cite: Please clearly indicate Siesta version in published work: v4.1.5-1-g384057250
cite: This calculation has made use of the following articles
cite: which are encouraged to be cited in a published work.
        Primary SIESTA paper
          DOI: www.doi.org/10.1088/0953-8984/14/11/302
        Spin-orbit coupling (on-site approximation)
          DOI: www.doi.org/10.1088/0953-8984/19/19/489001


WARNING: alloc-realloc-dealloc name mismatch
         Name: atomlist isa
         Size:               -64. Bytes
         Node:     0
         Subsequent mismatches will not be reported
>> End of run:  16-OCT-2023   2:54:38
Job completed
