<?xml version="1.0" encoding="UTF-8" ?>
<psml version="1.1" energy_unit="hartree" length_unit="bohr"
 uuid="926aa590-3f24-11ef-4702-6678fbbf44ea"
 xmlns="http://esl.cecam.org/PSML/ns/1.1">
<provenance creator="ATM4.2.7" date="11-JUL-24">
<annotation action="semilocal-pseudopotential-generation" />
<input-file name="INP">
<![CDATA[   pg   Oxygen
        tm2    2.000
   O    vwr 00000000
       0.0
    1    3
    2    0     1.000     1.000
    2    1     3.000     1.000
    3    2     0.000     0.000
   0.89467   1.04264   1.65437   0.00000   1.00000   0.00000
]]>
</input-file>
</provenance>
<pseudo-atom-spec atomic-label="O" atomic-number="8" z-pseudo="6"
 flavor="Troullier-Martins" relativity="dirac" spin-dft="no"
 core-corrections="no">
<annotation pseudo-energy="-15.8626963412" />
<exchange-correlation>
<annotation atom-xc-code="vw" siesta-xc-type="VDW" siesta-xc-authors="DRSLL" />
<libxc-info number-of-functionals="2">
<functional name="XC_GGA_X_OPTB88_VDW" type="XC_EXCHANGE" id="139" />
<functional name="XC_NOT_IMPL" type="XC_EXCHANGE_CORRELATION" id="-1" />
</libxc-info>
</exchange-correlation>
<valence-configuration total-valence-charge="6">
<shell n="2" l="s" occupation="2" />
<shell n="2" l="p" occupation="4" />
</valence-configuration>
</pseudo-atom-spec>
<grid npts="376">
<annotation type="sampled-log-atom"
 recipe="r(i:1..N) = a*(exp(b*(i-1))-1); resampled"
 recipe-cont="a: scale; b: step" scale="0.309844022083E-03"
 step="0.125000000000E-01" delta="0.500000000000E-02" rmax="20" />
<grid-data>
  0.000000000000E+00  5.046671836297E-03  1.007984357808E-02  1.518974854062E-02
  2.035251700562E-02  2.556610006306E-02  3.090250246574E-02  3.595372892337E-02
  4.129904144018E-02  4.683920017331E-02  5.245334327694E-02  5.800249612577E-02
  6.333470855386E-02  6.915451056086E-02  7.456468283430E-02  8.039622178140E-02
  8.560131582679E-02  9.114210959625E-02  9.704025386184E-02  1.033187957505E-01
  1.086319497276E-01  1.142175149343E-01  1.200894581930E-01  1.262624624205E-01
  1.327519633426E-01  1.378365207374E-01  1.431153692244E-01  1.485959330545E-01
  1.542859201736E-01  1.601933330639E-01  1.663264799983E-01  1.726939867255E-01
  1.793048086012E-01  1.861682431831E-01  1.932939433072E-01  2.006919306636E-01
  2.057803148154E-01  2.109975120253E-01  2.163467832113E-01  2.218314718422E-01
  2.274550060267E-01  2.332209006569E-01  2.391327596047E-01  2.451942779741E-01
  2.514092444117E-01  2.577815434737E-01  2.643151580545E-01  2.710141718758E-01
  2.778827720395E-01  2.849252516441E-01  2.921460124687E-01  2.995495677238E-01
  3.071405448725E-01  3.149236885227E-01  3.229038633924E-01  3.310860573507E-01
  3.394753845353E-01  3.480770885486E-01  3.568965457358E-01  3.659392685446E-01
  3.752109089712E-01  3.847172620927E-01  3.944642696891E-01  4.044580239577E-01
  4.095493769703E-01  4.147047713200E-01  4.199250125477E-01  4.252109163268E-01
  4.305633085904E-01  4.359830256606E-01  4.414709143795E-01  4.470278322406E-01
  4.526546475238E-01  4.583522394303E-01  4.641214982206E-01  4.699633253529E-01
  4.758786336247E-01  4.818683473150E-01  4.879334023287E-01  4.940747463430E-01
  5.002933389553E-01  5.065901518335E-01  5.129661688673E-01  5.194223863224E-01
  5.259598129959E-01  5.325794703740E-01  5.392823927917E-01  5.460696275941E-01
  5.529422353007E-01  5.599012897702E-01  5.669478783691E-01  5.740831021413E-01
  5.813080759799E-01  5.886239288018E-01  5.960318037239E-01  6.035328582417E-01
  6.111282644103E-01  6.188192090273E-01  6.266068938185E-01  6.344925356254E-01
  6.424773665957E-01  6.505626343754E-01  6.587496023041E-01  6.670395496121E-01
  6.754337716206E-01  6.839335799438E-01  6.925403026942E-01  7.012552846896E-01
  7.100798876637E-01  7.190154904786E-01  7.280634893406E-01  7.372252980178E-01
  7.465023480615E-01  7.558960890295E-01  7.654079887132E-01  7.750395333660E-01
  7.847922279366E-01  7.946675963031E-01  8.046671815122E-01  8.147925460192E-01
  8.250452719330E-01  8.354269612628E-01  8.459392361688E-01  8.565837392153E-01
  8.673621336275E-01  8.782761035516E-01  8.893273543174E-01  9.005176127055E-01
  9.118486272164E-01  9.233221683442E-01  9.349400288532E-01  9.467040240575E-01
  9.586159921055E-01  9.706777942663E-01  9.828913152210E-01  9.952584633573E-01
  1.007781171067E+00  1.020461395049E+00  1.033301116614E+00  1.046302341994E+00
  1.059467102657E+00  1.072797455625E+00  1.086295483792E+00  1.099963296251E+00
  1.113803028628E+00  1.127816843407E+00  1.142006930277E+00  1.156375506466E+00
  1.170924817095E+00  1.185657135523E+00  1.200574763704E+00  1.215680032548E+00
  1.230975302284E+00  1.246462962830E+00  1.262145434163E+00  1.278025166702E+00
  1.294104641687E+00  1.310386371569E+00  1.326872900401E+00  1.343566804237E+00
  1.360470691534E+00  1.377587203558E+00  1.394919014799E+00  1.412468833388E+00
  1.430239401519E+00  1.448233495881E+00  1.466453928086E+00  1.484903545115E+00
  1.503585229758E+00  1.522501901066E+00  1.541656514807E+00  1.561052063929E+00
  1.580691579025E+00  1.600578128811E+00  1.620714820599E+00  1.641104800789E+00
  1.661751255357E+00  1.682657410353E+00  1.703826532407E+00  1.725261929236E+00
  1.746966950166E+00  1.768944986650E+00  1.791199472801E+00  1.813733885927E+00
  1.836551747077E+00  1.859656621587E+00  1.883052119642E+00  1.906741896835E+00
  1.930729654743E+00  1.955019141501E+00  1.979614152392E+00  2.004518530435E+00
  2.029736166990E+00  2.055271002365E+00  2.081127026429E+00  2.107308279239E+00
  2.133818851669E+00  2.160662886049E+00  2.187844576815E+00  2.215368171161E+00
  2.243237969704E+00  2.271458327158E+00  2.300033653011E+00  2.328968412215E+00
  2.358267125886E+00  2.387934372007E+00  2.417974786145E+00  2.448393062177E+00
  2.479193953020E+00  2.510382271376E+00  2.541962890483E+00  2.573940744877E+00
  2.606320831163E+00  2.639108208795E+00  2.672308000868E+00  2.705925394917E+00
  2.739965643727E+00  2.774434066158E+00  2.809336047970E+00  2.844677042669E+00
  2.880462572357E+00  2.916698228596E+00  2.953389673281E+00  2.990542639525E+00
  3.028162932554E+00  3.066256430617E+00  3.104829085898E+00  3.143886925455E+00
  3.183436052154E+00  3.223482645627E+00  3.264032963235E+00  3.305093341048E+00
  3.346670194834E+00  3.388770021060E+00  3.431399397910E+00  3.474564986312E+00
  3.518273530975E+00  3.562531861449E+00  3.607346893188E+00  3.652725628632E+00
  3.698675158301E+00  3.745202661903E+00  3.792315409453E+00  3.840020762416E+00
  3.888326174849E+00  3.937239194571E+00  3.986767464342E+00  4.036918723054E+00
  4.087700806944E+00  4.139121650814E+00  4.191189289278E+00  4.243911858009E+00
  4.297297595016E+00  4.351354841928E+00  4.406092045301E+00  4.461517757935E+00
  4.517640640209E+00  4.574469461438E+00  4.632013101240E+00  4.690280550928E+00
  4.749280914908E+00  4.809023412107E+00  4.869517377412E+00  4.930772263128E+00
  4.992797640456E+00  5.055603200986E+00  5.119198758217E+00  5.183594249082E+00
  5.248799735508E+00  5.314825405986E+00  5.381681577160E+00  5.449378695443E+00
  5.517927338649E+00  5.587338217641E+00  5.657622178010E+00  5.728790201770E+00
  5.800853409067E+00  5.873823059925E+00  5.947710556001E+00  6.022527442365E+00
  6.098285409309E+00  6.174996294169E+00  6.252672083177E+00  6.331324913333E+00
  6.410967074301E+00  6.491611010332E+00  6.573269322204E+00  6.655954769195E+00
  6.739680271074E+00  6.824458910121E+00  6.910303933171E+00  6.997228753683E+00
  7.085246953838E+00  7.174372286659E+00  7.264618678159E+00  7.356000229521E+00
  7.448531219299E+00  7.542226105648E+00  7.637099528585E+00  7.733166312274E+00
  7.830441467347E+00  7.928940193243E+00  8.028677880591E+00  8.129670113605E+00
  8.231932672528E+00  8.335481536094E+00  8.440332884021E+00  8.546503099548E+00
  8.654008771985E+00  8.762866699314E+00  8.873093890806E+00  8.984707569685E+00
  9.097725175815E+00  9.212164368427E+00  9.328043028878E+00  9.445379263444E+00
  9.564191406150E+00  9.684498021636E+00  9.806317908054E+00  9.929670100011E+00
  1.005457387154E+01  1.018104873910E+01  1.030911446465E+01  1.043879105873E+01
  1.057009878357E+01  1.070305815625E+01  1.083768995197E+01  1.097401520720E+01
  1.111205522305E+01  1.125183156854E+01  1.139336608403E+01  1.153668088456E+01
  1.168179836336E+01  1.182874119534E+01  1.197753234061E+01  1.212819504809E+01
  1.228075285914E+01  1.243522961122E+01  1.259164944164E+01  1.275003679132E+01
  1.291041640859E+01  1.307281335312E+01  1.323725299974E+01  1.340376104248E+01
  1.357236349858E+01  1.374308671249E+01  1.391595736008E+01  1.409100245274E+01
  1.426824934161E+01  1.444772572188E+01  1.462945963710E+01  1.481347948357E+01
  1.499981401476E+01  1.518849234582E+01  1.537954395812E+01  1.557299870388E+01
  1.576888681077E+01  1.596723888673E+01  1.616808592466E+01  1.637145930733E+01
  1.657739081223E+01  1.678591261659E+01  1.699705730237E+01  1.721085786134E+01
  1.742734770027E+01  1.764656064616E+01  1.786853095147E+01  1.809329329950E+01
  1.832088280984E+01  1.855133504380E+01  1.878468601002E+01  1.902097217006E+01
  1.926023044412E+01  1.950249821678E+01  1.974781334288E+01  1.999621415340E+01
</grid-data>
</grid>
<valence-charge total-charge="6" is-unscreening-charge="yes"
 rescaled-to-z-pseudo="no">
<radfunc>
<data>
  1.992939767288E+00  1.996736542561E+00  2.008080194231E+00  2.027298425853E+00
  2.054563969809E+00  2.090056943174E+00  2.134605402776E+00  2.184361764742E+00
  2.244961621290E+00  2.316279175959E+00  2.397244431166E+00  2.485717292841E+00
  2.578481238632E+00  2.688198787693E+00  2.797924993571E+00  2.924301929423E+00
  3.043991478165E+00  3.178303437045E+00  3.328816210498E+00  3.497218758909E+00
  3.646020354181E+00  3.808368503360E+00  3.985241602382E+00  4.177630228867E+00
  4.386521192188E+00  4.554599721318E+00  4.732892280837E+00  4.921764826921E+00
  5.121551684559E+00  5.332545646052E+00  5.554986635474E+00  5.789048841278E+00
  6.034826238566E+00  6.292316451752E+00  6.561402949758E+00  6.841835622247E+00
  7.034901380855E+00  7.232671121523E+00  7.434944351469E+00  7.641479557635E+00
  7.851991083955E+00  8.066146021624E+00  8.283561159113E+00  8.503800046856E+00
  8.726370240104E+00  8.950720792423E+00  9.176240081369E+00  9.402254056838E+00
  9.628025011028E+00  9.852750976463E+00  1.007556586458E+01  1.029554046137E+01
  1.051168439765E+01  1.072294920931E+01  1.092823259580E+01  1.112638397310E+01
  1.131621139919E+01  1.149648992487E+01  1.166597139003E+01  1.182339564573E+01
  1.196750313432E+01  1.209704870589E+01  1.221081648934E+01  1.230763557432E+01
  1.234933971808E+01  1.238639619762E+01  1.241867852675E+01  1.244606607053E+01
  1.246844453393E+01  1.248570643565E+01  1.249775156384E+01  1.250448740985E+01
  1.250582957692E+01  1.250170216045E+01  1.249203809710E+01  1.247677947996E+01
  1.245587783784E+01  1.242929437690E+01  1.239700018360E+01  1.235897638839E+01
  1.231521429051E+01  1.226571544452E+01  1.221049171043E+01  1.214956526959E+01
  1.208296860935E+01  1.201074448023E+01  1.193294582963E+01  1.184963571678E+01
  1.176088721383E+01  1.166678329785E+01  1.156741673884E+01  1.146288998791E+01
  1.135331506957E+01  1.123881348093E+01  1.111951609932E+01  1.099556309844E+01
  1.086710387131E+01  1.073429695607E+01  1.059730995878E+01  1.045631946456E+01
  1.031151092662E+01  1.016307851984E+01  1.001122494387E+01  9.856161158856E+00
  9.698106035546E+00  9.537285901037E+00  9.373933961414E+00  9.208289583655E+00
  9.040597421174E+00  8.871106370559E+00  8.700068351323E+00  8.527736906039E+00
  8.354365624879E+00  8.180206406405E+00  8.005507575327E+00  7.830511887857E+00
  7.655454465962E+00  7.480560713456E+00  7.306044279097E+00  7.132105144908E+00
  6.958927931651E+00  6.786680527972E+00  6.615513165169E+00  6.445558076043E+00
  6.276929893901E+00  6.109726966509E+00  5.944033779450E+00  5.779924603014E+00
  5.617467702224E+00  5.456728128998E+00  5.297768923584E+00  5.140653117627E+00
  4.985445171383E+00  4.832212243510E+00  4.681025129033E+00  4.531958743270E+00
  4.385091950627E+00  4.240506622112E+00  4.098285684205E+00  3.958510038982E+00
  3.821255083495E+00  3.686589260031E+00  3.554574828520E+00  3.425267393731E+00
  3.298716131222E+00  3.174963877524E+00  3.054047228764E+00  2.935996650073E+00
  2.820836633921E+00  2.708585929247E+00  2.599257719741E+00  2.492859786826E+00
  2.389394693680E+00  2.288859975514E+00  2.191248330898E+00  2.096547817862E+00
  2.004742052454E+00  1.915810400396E+00  1.829728212829E+00  1.746467126967E+00
  1.665995291743E+00  1.588277575520E+00  1.513275798014E+00  1.440948930295E+00
  1.371253304635E+00  1.304142819890E+00  1.239569122897E+00  1.177481846478E+00
  1.117828878130E+00  1.060556569726E+00  1.005609929806E+00  9.529328051572E-01
  9.024680411742E-01  8.541576645131E-01  8.079430225600E-01  7.637649271790E-01
  7.215638673166E-01  6.812801921091E-01  6.428542510680E-01  6.062265268379E-01
  5.713377371426E-01  5.381289548774E-01  5.065417078410E-01  4.765180523406E-01
  4.480007025527E-01  4.209331565344E-01  3.952597839198E-01  3.709258960916E-01
  3.478778021158E-01  3.260628605886E-01  3.054295333715E-01  2.859274166895E-01
  2.675072886213E-01  2.501211753930E-01  2.337223927020E-01  2.182655679204E-01
  2.037066549789E-01  1.900029392005E-01  1.771130475693E-01  1.649969508028E-01
  1.536159584387E-01  1.429327298557E-01  1.329112806181E-01  1.235169750720E-01
  1.147165114197E-01  1.064779028777E-01  9.877045611014E-02  9.156474942988E-02
  8.483261026739E-02  7.854708899586E-02  7.268243518549E-02  6.721407513955E-02
  6.211858403750E-02  5.737365439718E-02  5.295806323008E-02  4.885163852728E-02
  4.503522540259E-02  4.149065204084E-02  3.820069585343E-02  3.514904961172E-02
  3.232028733962E-02  2.969983074983E-02  2.727391600469E-02  2.502956014819E-02
  2.295452772812E-02  2.103729778355E-02  1.926703129954E-02  1.763353943293E-02
  1.612725247836E-02  1.473918963521E-02  1.346092960011E-02  1.228458202058E-02
  1.120275983082E-02  1.020855249526E-02  9.295500177571E-03  8.457568839630E-03
  7.689126320713E-03  6.984919358064E-03  6.340051548492E-03  5.749962301753E-03
  5.210406751725E-03  4.717436567736E-03  4.267381726169E-03  3.856833206692E-03
  3.482626502340E-03  3.141826061267E-03  2.831710555246E-03  2.549758873108E-03
  2.293636963737E-03  2.061185606393E-03  1.850408425314E-03  1.659461100483E-03
  1.486641448868E-03  1.330379446886E-03  1.189227944716E-03  1.061853879968E-03
  9.470306117410E-04  8.436300438314E-04  7.506154302519E-04  6.670356140225E-04
  5.920185708462E-04  5.247652219009E-04  4.645438045677E-04  4.106846580182E-04
  3.625759140603E-04  3.196591041227E-04  2.814246696065E-04  2.474079845447E-04
  2.171859165833E-04  1.903734781613E-04  1.666206952666E-04  1.456097985873E-04
  1.270524745728E-04  1.106874701866E-04  9.627846203326E-05  8.361184680638E-05
  7.249483654825E-05  6.275379022361E-05  5.423246853420E-05  4.679054769809E-05
  4.030224705511E-05  3.465496736302E-05  2.974812205408E-05  2.549201027787E-05
  2.180677872151E-05  1.862148131172E-05  1.587319611687E-05  1.350622750793E-05
  1.147136712332E-05  9.725221960605E-06  8.229600354179E-06  6.950952726843E-06
  5.859865353326E-06  4.930600216610E-06  4.140681136843E-06  3.470520298951E-06
  2.903080428992E-06  2.423572031385E-06  2.019183246366E-06  1.678838416147E-06
  1.392982750123E-06  1.153390656923E-06  9.529957380346E-07  7.857404757626E-07
  6.464434691741E-07  5.306823931151E-07  4.346911025550E-07  3.552694007581E-07
  2.897041005555E-07  2.357001299520E-07  1.913205485163E-07  1.549344485547E-07
  1.251718151262E-07  1.008845117712E-07  8.111264425467E-08  6.505563436864E-08
  5.204740401291E-08  4.153515397524E-08  3.306118463561E-08  2.624774621523E-08
  2.078297056775E-08  1.641233731810E-08  1.292460726243E-08  1.014997677223E-08
  7.949615086588E-09  6.209495041556E-09  4.837049363840E-09  3.757539416221E-09
  2.910783580215E-09  2.248453977655E-09  1.731848841586E-09  1.330061879227E-09
  1.018482061619E-09  7.775676650688E-10  5.918472926621E-10  4.491082106416E-10
  3.397388142475E-10  2.561975410326E-10  1.925852097675E-10  1.443016969435E-10
  1.077711734181E-10  8.022290092926E-11  5.951691051995E-11  4.400582057260E-11
  3.242566024523E-11  2.380989561360E-11  1.742195461678E-11  1.270245055505E-11
  9.228044487531E-12  6.679491717885E-12  4.816909772625E-12  3.460704401775E-12
  2.476912593027E-12  1.765981154773E-12  1.254207578836E-12  8.872361916468E-13
  6.251349518570E-13  4.386831752735E-13  3.065833217103E-13  2.133751450971E-13
  1.478815574454E-13  1.020553846361E-13  7.012713621896E-14  4.797785345728E-14
  3.267954593425E-14  2.215987796887E-14  1.495857497580E-14  1.005123984218E-14
  6.722492739908E-15  4.475038335438E-15  2.964783544175E-15  1.954757161328E-15
  1.282536320918E-15  8.373300713746E-16  5.439345424953E-16  3.515539368157E-16
</data>
</radfunc>
</valence-charge>
<semilocal-potentials set="scalar_relativistic">
<slps n="2" l="s" rc="0.889327354317" flavor="Troullier-Martins">
<radfunc>
<data>
 -9.980260344550E+00 -9.735590339622E+00 -9.087321808520E+00 -8.183098855630E+00
 -7.210126983037E+00 -6.307863314514E+00 -5.538668195650E+00 -4.966502250648E+00
 -4.504707133206E+00 -4.150769470590E+00 -3.890123320278E+00 -3.701002871117E+00
 -3.565431517586E+00 -3.454745672889E+00 -3.376801643019E+00 -3.311663445794E+00
 -3.264985274841E+00 -3.223904547964E+00 -3.186959156536E+00 -3.152660693656E+00
 -3.126129313171E+00 -3.099600373453E+00 -3.072372648579E+00 -3.043814362194E+00
 -3.013402677280E+00 -2.989150681495E+00 -2.963569274083E+00 -2.936663673851E+00
 -2.908536258353E+00 -2.879400423891E+00 -2.849592739993E+00 -2.819582488115E+00
 -2.789977800055E+00 -2.761527849527E+00 -2.735120883821E+00 -2.711778274028E+00
 -2.698479706882E+00 -2.687417190679E+00 -2.678978587643E+00 -2.673570361662E+00
 -2.671615807784E+00 -2.673553361458E+00 -2.679835035292E+00 -2.690925013706E+00
 -2.707298414707E+00 -2.729440203759E+00 -2.757844218418E+00 -2.793012214503E+00
 -2.835452739619E+00 -2.885685509496E+00 -2.944225951728E+00 -3.011590920664E+00
 -3.088301032396E+00 -3.174872729253E+00 -3.271813499508E+00 -3.379615674405E+00
 -3.498748573934E+00 -3.629648750078E+00 -3.772708065565E+00 -3.928259353526E+00
 -4.096559422195E+00 -4.277769202976E+00 -4.471930894521E+00 -4.678942035675E+00
 -4.787187509670E+00 -4.898526552780E+00 -5.012892313478E+00 -5.130202979328E+00
 -5.250360659607E+00 -5.373250246065E+00 -5.498738259997E+00 -5.626671695293E+00
 -5.756876868827E+00 -5.889158291267E+00 -6.023297573334E+00 -6.159052384615E+00
 -6.296155484134E+00 -6.434313844226E+00 -6.573207891576E+00 -6.712490891704E+00
 -6.851788505619E+00 -6.990698549779E+00 -7.128790992831E+00 -7.265608224832E+00
 -7.400665636638E+00 -7.533452548901E+00 -7.663433531442E+00 -7.790050154612E+00
 -7.912723214542E+00 -8.030855473678E+00 -8.143834956642E+00 -8.251038839108E+00
 -8.351837963764E+00 -8.445602012556E+00 -8.531705357897E+00 -8.609533607935E+00
 -8.678490844832E+00 -8.738007561265E+00 -8.787549350506E+00 -8.826625580891E+00
 -8.854803185960E+00 -8.871711921151E+00 -8.877053103015E+00 -8.870616518666E+00
 -8.852288685218E+00 -8.822064128623E+00 -8.780054962725E+00 -8.726508054275E+00
 -8.661804754474E+00 -8.586454544041E+00 -8.501133327441E+00 -8.406664211765E+00
 -8.304024276174E+00 -8.194338843063E+00 -8.078873060071E+00 -7.959017269214E+00
 -7.836265352558E+00 -7.712184619366E+00 -7.588374596364E+00 -7.466417211834E+00
 -7.347796565199E+00 -7.233827717768E+00 -7.125559628966E+00 -7.023619777819E+00
 -6.928060937158E+00 -6.838150827873E+00 -6.752151965251E+00 -6.667719947135E+00
 -6.584285427641E+00 -6.501867362443E+00 -6.420475248432E+00 -6.340115596015E+00
 -6.260814472436E+00 -6.182572895512E+00 -6.105395647180E+00 -6.029278664298E+00
 -5.954207490793E+00 -5.880126185454E+00 -5.807020197100E+00 -5.734836263572E+00
 -5.663550668711E+00 -5.593153725361E+00 -5.523634077358E+00 -5.454980534882E+00
 -5.387182212042E+00 -5.320228140168E+00 -5.254107481626E+00 -5.188809724206E+00
 -5.124321747328E+00 -5.060629854606E+00 -4.997731273900E+00 -4.935616211225E+00
 -4.874274817957E+00 -4.813697395197E+00 -4.753874351173E+00 -4.694796199823E+00
 -4.636453558116E+00 -4.578837188193E+00 -4.521937967606E+00 -4.465746872769E+00
 -4.410255008281E+00 -4.355453565964E+00 -4.301333936629E+00 -4.247887678844E+00
 -4.195106148728E+00 -4.142980968745E+00 -4.091503918109E+00 -4.040666886953E+00
 -3.990461864982E+00 -3.940880949092E+00 -3.891916340677E+00 -3.843560343823E+00
 -3.795805364174E+00 -3.748643905000E+00 -3.702068569899E+00 -3.656072027266E+00
 -3.610647053126E+00 -3.565786591965E+00 -3.521483625536E+00 -3.477731218090E+00
 -3.434522522277E+00 -3.391850776053E+00 -3.349709302171E+00 -3.308091506111E+00
 -3.266990875348E+00 -3.226400980107E+00 -3.186315481535E+00 -3.146728098002E+00
 -3.107632631137E+00 -3.069022965197E+00 -3.030893061003E+00 -2.993236954893E+00
 -2.956048756841E+00 -2.919322650625E+00 -2.883052893099E+00 -2.847233811721E+00
 -2.811859804582E+00 -2.776925342711E+00 -2.742424963456E+00 -2.708353272220E+00
 -2.674704941211E+00 -2.641474708617E+00 -2.608657378254E+00 -2.576247818542E+00
 -2.544240962225E+00 -2.512631803725E+00 -2.481415400229E+00 -2.450586870502E+00
 -2.420141394009E+00 -2.390074210168E+00 -2.360380617528E+00 -2.331055973068E+00
 -2.302095691527E+00 -2.273495244827E+00 -2.245250161028E+00 -2.217356023777E+00
 -2.189808471617E+00 -2.162603197306E+00 -2.135735947159E+00 -2.109202520351E+00
 -2.082998768252E+00 -2.057120593845E+00 -2.031563951036E+00 -2.006324844041E+00
 -1.981399326747E+00 -1.956783502097E+00 -1.932473521496E+00 -1.908465584181E+00
 -1.884755936640E+00 -1.861340872022E+00 -1.838216729555E+00 -1.815379893983E+00
 -1.792826794984E+00 -1.770553906621E+00 -1.748557746792E+00 -1.726834876680E+00
 -1.705381900216E+00 -1.684195463546E+00 -1.663272254510E+00 -1.642609002120E+00
 -1.622202476047E+00 -1.602049486119E+00 -1.582146881815E+00 -1.562491551781E+00
 -1.543080423335E+00 -1.523910461988E+00 -1.504978670973E+00 -1.486282090770E+00
 -1.467817798647E+00 -1.449582908199E+00 -1.431574568901E+00 -1.413789965657E+00
 -1.396226318361E+00 -1.378880881462E+00 -1.361750943535E+00 -1.344833826857E+00
 -1.328126886985E+00 -1.311627512344E+00 -1.295333123818E+00 -1.279241174350E+00
 -1.263349148534E+00 -1.247654562233E+00 -1.232154962180E+00 -1.216847925601E+00
 -1.201731059834E+00 -1.186802001951E+00 -1.172058418394E+00 -1.157498004606E+00
 -1.143118484672E+00 -1.128917610961E+00 -1.114893163777E+00 -1.101042951010E+00
 -1.087364807792E+00 -1.073856596162E+00 -1.060516204727E+00 -1.047341548334E+00
 -1.034330567744E+00 -1.021481229310E+00 -1.008791524656E+00 -9.962594703667E-01
 -9.838831076750E-01 -9.716605021554E-01 -9.595897434224E-01 -9.476689448310E-01
 -9.358962431817E-01 -9.242697984292E-01 -9.127877933941E-01 -9.014484334793E-01
 -8.902499463886E-01 -8.791905818499E-01 -8.682686113412E-01 -8.574823278204E-01
 -8.468300454580E-01 -8.363100993738E-01 -8.259208453761E-01 -8.156606597048E-01
 -8.055279387772E-01 -7.955210989375E-01 -7.856385762085E-01 -7.758788260479E-01
 -7.662403231057E-01 -7.567215609865E-01 -7.473210520134E-01 -7.380373269955E-01
 -7.288689349979E-01 -7.198144431152E-01 -7.108724362470E-01 -7.020415168769E-01
 -6.933203048538E-01 -6.847074371758E-01 -6.762015677775E-01 -6.678013673193E-01
 -6.595055229795E-01 -6.513127382490E-01 -6.432217327284E-01 -6.352312419282E-01
 -6.273400170705E-01 -6.195468248944E-01 -6.118504474623E-01 -6.042496819702E-01
 -5.967433405592E-01 -5.893302501301E-01 -5.820092521595E-01 -5.747792025189E-01
 -5.676389712959E-01 -5.605874426175E-01 -5.536235144752E-01 -5.467460985533E-01
 -5.399541200584E-01 -5.332465175514E-01 -5.266222427813E-01 -5.200802605219E-01
 -5.136195484093E-01 -5.072390967825E-01 -5.009379085252E-01 -4.947149989101E-01
 -4.885693954450E-01 -4.825001377205E-01 -4.765062772601E-01 -4.705868773717E-01
 -4.647410130014E-01 -4.589677705885E-01 -4.532662479231E-01 -4.476355540048E-01
 -4.420748089033E-01 -4.365831436213E-01 -4.311596999579E-01 -4.258036303751E-01
 -4.205140978651E-01 -4.152902758193E-01 -4.101313478992E-01 -4.050365079086E-01
 -4.000049596679E-01 -3.950359168895E-01 -3.901286030546E-01 -3.852822512922E-01
 -3.804961042589E-01 -3.757694140210E-01 -3.711014419367E-01 -3.664914585417E-01
 -3.619387434343E-01 -3.574425851632E-01 -3.530022811163E-01 -3.486171374106E-01
 -3.442864687841E-01 -3.400095984882E-01 -3.357858581826E-01 -3.316145878299E-01
 -3.274951355935E-01 -3.234268577347E-01 -3.194091185128E-01 -3.154412900853E-01
 -3.115227524099E-01 -3.076528931477E-01 -3.038311075674E-01 -3.000567984505E-01
</data>
</radfunc>
</slps>
<slps n="2" l="p" rc="1.03330111661" flavor="Troullier-Martins">
<radfunc>
<data>
 -2.776465543974E+01 -2.751998520334E+01 -2.687171322060E+01 -2.596747496325E+01
 -2.499446090692E+01 -2.409210618605E+01 -2.332273859077E+01 -2.275030287761E+01
 -2.228806832841E+01 -2.193345595679E+01 -2.167183486055E+01 -2.148139152698E+01
 -2.134413996238E+01 -2.123107292475E+01 -2.115031279110E+01 -2.108138144000E+01
 -2.103055669732E+01 -2.098416613476E+01 -2.094042472400E+01 -2.089743299277E+01
 -2.086223425372E+01 -2.082516107971E+01 -2.078511221601E+01 -2.074097280941E+01
 -2.069163743797E+01 -2.065058219684E+01 -2.060557851739E+01 -2.055623351025E+01
 -2.050219349587E+01 -2.044315009527E+01 -2.037884375198E+01 -2.030906373053E+01
 -2.023364377710E+01 -2.015245288875E+01 -2.006538100288E+01 -1.997231985517E+01
 -1.990688931768E+01 -1.983869111421E+01 -1.976766308075E+01 -1.969372626410E+01
 -1.961678126200E+01 -1.953670471696E+01 -1.945334605752E+01 -1.936652457311E+01
 -1.927602689827E+01 -1.918160497064E+01 -1.908297451481E+01 -1.897981407235E+01
 -1.887176451103E+01 -1.875843483584E+01 -1.863938913428E+01 -1.851415585114E+01
 -1.838223505659E+01 -1.824309705700E+01 -1.809618603882E+01 -1.794092445529E+01
 -1.777671823633E+01 -1.760296289474E+01 -1.741905060016E+01 -1.722437829771E+01
 -1.701835695036E+01 -1.680042198235E+01 -1.657004499348E+01 -1.632674679994E+01
 -1.620011948007E+01 -1.607011183545E+01 -1.593668444689E+01 -1.579980391468E+01
 -1.565944342234E+01 -1.551558331867E+01 -1.536821171658E+01 -1.521732510718E+01
 -1.506292898690E+01 -1.490503849515E+01 -1.474367905990E+01 -1.457888704756E+01
 -1.441071041365E+01 -1.423920934978E+01 -1.406445692229E+01 -1.388653969709E+01
 -1.370555834478E+01 -1.352162821957E+01 -1.333487990473E+01 -1.314545971699E+01
 -1.295353016125E+01 -1.275927032680E+01 -1.256287621524E+01 -1.236456099005E+01
 -1.216455513679E+01 -1.196310652289E+01 -1.176048034506E+01 -1.155695895226E+01
 -1.135284153183E+01 -1.114844364587E+01 -1.094409660531E+01 -1.074014666927E+01
 -1.053695405144E+01 -1.033489173405E+01 -1.013434415471E+01 -9.935705024147E+00
 -9.739379453744E+00 -9.545776814107E+00 -9.355306437345E+00 -9.168380977055E+00
 -8.985410765403E+00 -8.806801033749E+00 -8.632947516858E+00 -8.464240013225E+00
 -8.301049222977E+00 -8.143708613363E+00 -7.992542522462E+00 -7.847838896103E+00
 -7.709850823754E+00 -7.578789164754E+00 -7.454816999787E+00 -7.338043486739E+00
 -7.228517629058E+00 -7.126222103048E+00 -7.031066406082E+00 -6.942884100641E+00
 -6.861415087988E+00 -6.786315628864E+00 -6.717165144336E+00 -6.653441962945E+00
 -6.594533916707E+00 -6.539730847774E+00 -6.488253666086E+00 -6.439241843333E+00
 -6.391720234831E+00 -6.344671918921E+00 -6.297051148985E+00 -6.247833210968E+00
 -6.196048173884E+00 -6.140862875853E+00 -6.081660755080E+00 -6.018158936666E+00
 -5.950551608194E+00 -5.879650653480E+00 -5.807020197100E+00 -5.734836263572E+00
 -5.663550668711E+00 -5.593153725361E+00 -5.523634077358E+00 -5.454980534882E+00
 -5.387182212042E+00 -5.320228140168E+00 -5.254107481626E+00 -5.188809724206E+00
 -5.124321747328E+00 -5.060629854606E+00 -4.997731273900E+00 -4.935616211225E+00
 -4.874274817957E+00 -4.813697395197E+00 -4.753874351173E+00 -4.694796199823E+00
 -4.636453558116E+00 -4.578837188193E+00 -4.521937967606E+00 -4.465746872769E+00
 -4.410255008281E+00 -4.355453565964E+00 -4.301333936629E+00 -4.247887678844E+00
 -4.195106148728E+00 -4.142980968745E+00 -4.091503918109E+00 -4.040666886953E+00
 -3.990461864982E+00 -3.940880949092E+00 -3.891916340677E+00 -3.843560343823E+00
 -3.795805364174E+00 -3.748643905000E+00 -3.702068569899E+00 -3.656072027266E+00
 -3.610647053126E+00 -3.565786591965E+00 -3.521483625536E+00 -3.477731218090E+00
 -3.434522522277E+00 -3.391850776053E+00 -3.349709302171E+00 -3.308091506111E+00
 -3.266990875348E+00 -3.226400980107E+00 -3.186315481535E+00 -3.146728098002E+00
 -3.107632631137E+00 -3.069022965197E+00 -3.030893061003E+00 -2.993236954893E+00
 -2.956048756841E+00 -2.919322650625E+00 -2.883052893099E+00 -2.847233811721E+00
 -2.811859804582E+00 -2.776925342711E+00 -2.742424963456E+00 -2.708353272220E+00
 -2.674704941211E+00 -2.641474708617E+00 -2.608657378254E+00 -2.576247818542E+00
 -2.544240962225E+00 -2.512631803725E+00 -2.481415400229E+00 -2.450586870502E+00
 -2.420141394009E+00 -2.390074210168E+00 -2.360380617528E+00 -2.331055973068E+00
 -2.302095691527E+00 -2.273495244827E+00 -2.245250161028E+00 -2.217356023777E+00
 -2.189808471617E+00 -2.162603197306E+00 -2.135735947159E+00 -2.109202520351E+00
 -2.082998768252E+00 -2.057120593845E+00 -2.031563951036E+00 -2.006324844041E+00
 -1.981399326747E+00 -1.956783502097E+00 -1.932473521496E+00 -1.908465584181E+00
 -1.884755936640E+00 -1.861340872022E+00 -1.838216729555E+00 -1.815379893983E+00
 -1.792826794984E+00 -1.770553906621E+00 -1.748557746792E+00 -1.726834876680E+00
 -1.705381900216E+00 -1.684195463546E+00 -1.663272254510E+00 -1.642609002120E+00
 -1.622202476047E+00 -1.602049486119E+00 -1.582146881815E+00 -1.562491551781E+00
 -1.543080423335E+00 -1.523910461988E+00 -1.504978670973E+00 -1.486282090770E+00
 -1.467817798647E+00 -1.449582908199E+00 -1.431574568901E+00 -1.413789965657E+00
 -1.396226318361E+00 -1.378880881462E+00 -1.361750943535E+00 -1.344833826857E+00