Siesta Version  : v4.1.5-1-g384057250
Architecture    : gcc
Compiler version: GNU Fortran (Debian 10.2.1-6) 10.2.1 20210110
Compiler flags  : mpifort -O2 -fPIC -ftree-vectorize -fallow-argument-mismatch
PP flags        : -DFC_HAVE_ABORT -DMPI -DSIESTA__FLOOK -DSIESTA__METIS -DSIESTA__MUMPS -DCDF -DNCDF -DNCDF_4 -DNCDF_PARALLEL -DSIESTA__MRRR -DSIESTA__ELPA
Libraries       : libncdf.a libfdict.a  -lflookall -ldl -lnetcdff -lnetcdf -lhdf5_hl -lhdf5 -lhdf5_fortran -lz -lscalapack-openmpi -lopenblas -lmetis -lzmumps -lcmumps -ldmumps -lmumps_common -lpord -lsmumps -lesmumps -lscotch -lscotcherr -fopenmp -lelpa
PARALLEL version
NetCDF support
NetCDF-4 support
NetCDF-4 MPI-IO support
METIS ordering support
Lua support

* Running on 6 nodes in parallel
>> Start of run:  16-OCT-2023  18:02:06

                           ***********************       
                           *  WELCOME TO SIESTA  *       
                           ***********************       

reinit: Reading from standard input
reinit: Dumped input in INPUT_TMP.81556
************************** Dump of input data file ****************************
# mpirun -np 4 siesta-4.1.5 < GC.fdf > GC.out &
SystemLabel      GC
NumberOfAtoms    29
NumberOfSpecies  4
%block ChemicalSpeciesLabel
    1    1  H
    2    7  N
    3   14  Si
    4    8  O
%endblock ChemicalSpeciesLabel
############################################
# This overrides Defaults.fdf configuration
############################################
MD.TypeOfRun                CG # CG, Verlet
MD.Steps                    0
MaxSCFIterations            600
AtomicCoordinatesFormat NotScaledCartesianAng
%block AtomicCoordinatesAndAtomicSpecies
    1.5971375844679638 2.759971532428453 -0.0  1  1  H
    0.890650854467964 1.969935352428453 -0.0  2  2  N
    -0.839636055532036 2.411299262428453 0.0  3  3  Si
    -0.995415735532036 3.901291522428453 0.0  1  4  H
    -2.3629576755320363 0.8523917424284527 -0.0  3  5  Si
    -3.8461453055320365 1.095222102428453 -0.0  1  6  H
    -1.164566815532036 -1.0608844175715473 -0.0  3  7  Si
    -1.9305922755320362 -2.5936011575715474 -0.0  2  8  N
    -1.340345725532036 -3.550814187571547 0.0  1  9  H
    -2.982214595532036 -2.6740613875715473 -0.0  1  10  H
    0.551633244467964 -1.0057101075715473 0.0  2  11  N
    1.6266558644679638 0.3246287324284528 -0.0  3  12  Si
    3.2353291844679637 0.30581847242845284 -0.0  4  13  O
    5.6164483 -7.44953905 0.0  1  14  H
    4.58206954 -7.2320376 0.0  2  15  N
    3.29666389 -8.492636 0.0  3  16  Si
    3.80117524 -9.90371886 -0.0  1  17  H
    1.65934232 -8.01362137 0.0  2  18  N
    1.68097912 -6.20463398 -0.0  3  19  Si
    0.54543521 -4.28636135 0.0  3  20  Si
    -1.03431493 -3.94450034 0.0  4  21  O
    1.73226934 -2.87719605 0.0  2  22  N
    1.20957366 -1.92961761 -0.0  1  23  H
    3.50853448 -2.77677601 0.0  3  24  Si
    4.13684451 -1.17938608 0.0  2  25  N
    3.54296161 -0.26248101 0.0  1  26  H
    5.18364407 -1.05231197 -0.0  1  27  H
    4.63288658 -4.07521596 -0.0  2  28  N
    3.79410501 -5.58634043 0.0  3  29  Si
%endblock AtomicCoordinatesAndAtomicSpecies
%include ../../../../Defaults.fdf
************************** End of input data file *****************************

reinit: -----------------------------------------------------------------------
reinit: System Name: 
reinit: -----------------------------------------------------------------------
reinit: System Label: GC
reinit: -----------------------------------------------------------------------

initatom: Reading input for the pseudopotentials and atomic orbitals ----------
Species number:   1 Atomic number:    1 Label: H
Species number:   2 Atomic number:    7 Label: N
Species number:   3 Atomic number:   14 Label: Si
Species number:   4 Atomic number:    8 Label: O

Ground state valence configuration:   1s01
Reading pseudopotential information in formatted form from H.psf

Pseudopotential generated from a relativistic atomic calculation

Valence configuration for pseudopotential generation:
1s( 1.00) rc: 0.01
2p( 0.00) rc: 0.60
3d( 0.00) rc: 1.99
4f( 0.00) rc: 2.49
Ground state valence configuration:   2s02  2p03
Reading pseudopotential information in formatted form from N.psf

Pseudopotential generated from a relativistic atomic calculation

Valence configuration for pseudopotential generation:
2s( 2.00) rc: 0.94
2p( 3.00) rc: 0.59
3d( 0.00) rc: 3.46
4f( 0.00) rc: 2.47
Ground state valence configuration:   3s02  3p02
Reading pseudopotential information in formatted form from Si.psf

Pseudopotential generated from a relativistic atomic calculation

Valence configuration for pseudopotential generation:
3s( 2.00) rc: 1.67
3p( 2.00) rc: 2.04
3d( 0.00) rc: 2.89
4f( 0.00) rc: 2.49
Ground state valence configuration:   2s02  2p04
Reading pseudopotential information in formatted form from O.psf

Pseudopotential generated from a relativistic atomic calculation

Valence configuration for pseudopotential generation:
2s( 2.00) rc: 0.45
2p( 4.00) rc: 0.92
3d( 0.00) rc: 2.24
4f( 0.00) rc: 0.25
For H, standard SIESTA heuristics set lmxkb to 2
 (one more than the basis l, including polarization orbitals).
Use PS.lmax or PS.KBprojectors blocks to override.
For N, standard SIESTA heuristics set lmxkb to 3
 (one more than the basis l, including polarization orbitals).
Use PS.lmax or PS.KBprojectors blocks to override.
For Si, standard SIESTA heuristics set lmxkb to 3
 (one more than the basis l, including polarization orbitals).
Use PS.lmax or PS.KBprojectors blocks to override.
For O, standard SIESTA heuristics set lmxkb to 3
 (one more than the basis l, including polarization orbitals).
Use PS.lmax or PS.KBprojectors blocks to override.

<basis_specs>
===============================================================================
H                    Z=   1    Mass=  1.0100        Charge= 0.17977+309
Lmxo=0 Lmxkb= 2    BasisType=split      Semic=F
L=0  Nsemic=0  Cnfigmx=1
          i=1  nzeta=2  polorb=1  (1s)
            splnorm:   0.62000    
               vcte:    0.0000    
               rinn:    0.0000    
               qcoe:    0.0000    
               qyuk:    0.0000    
               qwid:   0.10000E-01
                rcs:    0.0000      0.0000    
            lambdas:    1.0000      1.0000    
-------------------------------------------------------------------------------
L=0  Nkbl=1  erefs: 0.17977+309
L=1  Nkbl=1  erefs: 0.17977+309
L=2  Nkbl=1  erefs: 0.17977+309
===============================================================================
</basis_specs>

atom: Called for H                     (Z =   1)

read_vps: Pseudopotential generation method:
read_vps: ATM4.2.7  Troullier-Martins                       
Valence charge for ps generation:    1.00000

xc_check: Exchange-correlation functional:
xc_check: GGA Perdew, Burke & Ernzerhof 1996
V l=0 = -2*Zval/r beyond r=  0.0098
V l=1 = -2*Zval/r beyond r=  0.5817
V l=2 = -2*Zval/r beyond r=  1.9372
All V_l potentials equal beyond r=  1.9372
This should be close to max(r_c) in ps generation
All pots = -2*Zval/r beyond r=  1.9372

VLOCAL1: 99.0% of the norm of Vloc inside     11.567 Ry
VLOCAL1: 99.9% of the norm of Vloc inside     26.362 Ry
atom: Maximum radius for 4*pi*r*r*local-pseudopot. charge    2.25106
atom: Maximum radius for r*vlocal+2*Zval:    1.91306
GHOST: No ghost state for L =  0
GHOST: No ghost state for L =  1
GHOST: No ghost state for L =  2

KBgen: Kleinman-Bylander projectors: 
   l= 0   rc=  2.036604   el= -0.477180   Ekb= -6.081590   kbcos= -0.277285
   l= 1   rc=  2.195416   el=  0.001076   Ekb= -0.926943   kbcos= -0.034643
   l= 2   rc=  2.251056   el=  0.002010   Ekb= -0.130941   kbcos= -0.009788

KBgen: Total number of Kleinman-Bylander projectors:    9
atom: -------------------------------------------------------------------------

atom: SANKEY-TYPE ORBITALS:
atom: Selected multiple-zeta basis: split     

SPLIT: Orbitals with angular momentum L= 0

SPLIT: Basis orbitals for state 1s

SPLIT: PAO cut-off radius determined from an
SPLIT: energy shift=  0.002000 Ry

   izeta = 1
                 lambda =    1.000000
                     rc =    6.518340
                 energy =   -0.475305
                kinetic =    0.912139
    potential(screened) =   -1.387444
       potential(ionic) =   -1.907295

   izeta = 2
                 rmatch =    2.141150
              splitnorm =    0.620000
                 energy =    0.566467
                kinetic =    3.772856
    potential(screened) =   -3.206389
       potential(ionic) =   -3.759093

POLgen: Perturbative polarization orbital with L=  1

POLgen: Polarization orbital for state 1s

   izeta = 1
                     rc =    6.518340
                 energy =    0.533861
                kinetic =    1.121086
    potential(screened) =   -0.587225
       potential(ionic) =   -1.053027
atom: Total number of Sankey-type orbitals:  5

atm_pop: Valence configuration (for local Pseudopot. screening):
 1s( 1.00)                                                            
Vna: chval, zval:    1.00000   1.00000

Vna:  Cut-off radius for the neutral-atom potential:   6.518340

atom: _________________________________________________________________________

<basis_specs>
===============================================================================
N                    Z=   7    Mass=  14.010        Charge= 0.17977+309
Lmxo=1 Lmxkb= 3    BasisType=split      Semic=F
L=0  Nsemic=0  Cnfigmx=2
          i=1  nzeta=2  polorb=0  (2s)
            splnorm:   0.28000    
               vcte:    0.0000    
               rinn:    0.0000    
               qcoe:    0.0000    
               qyuk:    0.0000    
               qwid:   0.10000E-01
                rcs:    0.0000      0.0000    
            lambdas:    1.0000      1.0000    
L=1  Nsemic=0  Cnfigmx=2
          i=1  nzeta=2  polorb=1  (2p)
            splnorm:   0.28000    
               vcte:    0.0000    
               rinn:    0.0000    
               qcoe:    0.0000    
               qyuk:    0.0000    
               qwid:   0.10000E-01
                rcs:    0.0000      0.0000    
            lambdas:    1.0000      1.0000    
-------------------------------------------------------------------------------
L=0  Nkbl=1  erefs: 0.17977+309
L=1  Nkbl=1  erefs: 0.17977+309
L=2  Nkbl=1  erefs: 0.17977+309
L=3  Nkbl=1  erefs: 0.17977+309
===============================================================================
</basis_specs>

atom: Called for N                     (Z =   7)

read_vps: Pseudopotential generation method:
read_vps: ATM4.2.7  Troullier-Martins                       
Valence charge for ps generation:    5.00000

xc_check: Exchange-correlation functional:
xc_check: GGA Perdew, Burke & Ernzerhof 1996
V l=0 = -2*Zval/r beyond r=  1.2889
V l=1 = -2*Zval/r beyond r=  1.2889
V l=2 = -2*Zval/r beyond r=  3.4178
V l=3 = -2*Zval/r beyond r=  2.4084
All V_l potentials equal beyond r=  3.3753
This should be close to max(r_c) in ps generation
All pots = -2*Zval/r beyond r=  3.4178

VLOCAL1: 99.0% of the norm of Vloc inside      3.810 Ry
VLOCAL1: 99.9% of the norm of Vloc inside      8.683 Ry
atom: Maximum radius for 4*pi*r*r*local-pseudopot. charge    4.02088
atom: Maximum radius for r*vlocal+2*Zval:    3.54838
GHOST: No ghost state for L =  0
GHOST: No ghost state for L =  1
GHOST: No ghost state for L =  2
GHOST: No ghost state for L =  3

KBgen: Kleinman-Bylander projectors: 
   l= 0   rc=  3.417763   el= -1.365098   Ekb= -4.433130   kbcos= -0.707855
   l= 1   rc=  3.375302   el= -0.521201   Ekb=-13.264039   kbcos= -0.535594
   l= 2   rc=  3.872880   el=  0.001991   Ekb= -0.641094   kbcos= -0.062456
   l= 3   rc=  3.970931   el=  0.003093   Ekb= -0.474517   kbcos= -0.018236

KBgen: Total number of Kleinman-Bylander projectors:   16
atom: -------------------------------------------------------------------------

atom: SANKEY-TYPE ORBITALS:
atom: Selected multiple-zeta basis: split     

SPLIT: Orbitals with angular momentum L= 0

SPLIT: Basis orbitals for state 2s

SPLIT: PAO cut-off radius determined from an
SPLIT: energy shift=  0.002000 Ry

   izeta = 1
                 lambda =    1.000000
                     rc =    4.730425
                 energy =   -1.363399
                kinetic =    1.245246
    potential(screened) =   -2.608645
       potential(ionic) =   -8.121105

   izeta = 2
                 rmatch =    2.531849
              splitnorm =    0.280000
                 energy =   -0.959908
                kinetic =    2.409435
    potential(screened) =   -3.369343
       potential(ionic) =   -9.427975

SPLIT: Orbitals with angular momentum L= 1

SPLIT: Basis orbitals for state 2p

SPLIT: PAO cut-off radius determined from an
SPLIT: energy shift=  0.002000 Ry

   izeta = 1
                 lambda =    1.000000
                     rc =    5.924108
                 energy =   -0.519262
                kinetic =    3.672940
    potential(screened) =   -4.192202
       potential(ionic) =   -9.518354

   izeta = 2
                 rmatch =    2.531849
              splitnorm =    0.280000
                 energy =   -0.104258
                kinetic =    6.807538
    potential(screened) =   -6.911796
       potential(ionic) =  -13.149920

POLgen: Perturbative polarization orbital with L=  2

POLgen: Polarization orbital for state 2p

   izeta = 1
                     rc =    5.924108
                 energy =    1.427508
                kinetic =    2.872379
    potential(screened) =   -1.444871
       potential(ionic) =   -5.563644
atom: Total number of Sankey-type orbitals: 13

atm_pop: Valence configuration (for local Pseudopot. screening):
 2s( 2.00)                                                            
 2p( 3.00)                                                            
Vna: chval, zval:    5.00000   5.00000

Vna:  Cut-off radius for the neutral-atom potential:   5.924108

atom: _________________________________________________________________________

<basis_specs>
===============================================================================
Si                   Z=  14    Mass=  28.090        Charge= 0.17977+309
Lmxo=1 Lmxkb= 3    BasisType=split      Semic=F
L=0  Nsemic=0  Cnfigmx=3
          i=1  nzeta=2  polorb=0  (3s)
            splnorm:   0.28000    
               vcte:    0.0000    
               rinn:    0.0000    
               qcoe:    0.0000    
               qyuk:    0.0000    
               qwid:   0.10000E-01
                rcs:    0.0000      0.0000    
            lambdas:    1.0000      1.0000    
L=1  Nsemic=0  Cnfigmx=3
          i=1  nzeta=2  polorb=1  (3p)
            splnorm:   0.28000    
               vcte:    0.0000    
               rinn:    0.0000    
               qcoe:    0.0000    
               qyuk:    0.0000    
               qwid:   0.10000E-01
                rcs:    0.0000      0.0000    
            lambdas:    1.0000      1.0000    
-------------------------------------------------------------------------------
L=0  Nkbl=1  erefs: 0.17977+309
L=1  Nkbl=1  erefs: 0.17977+309
L=2  Nkbl=1  erefs: 0.17977+309
L=3  Nkbl=1  erefs: 0.17977+309
===============================================================================
</basis_specs>

atom: Called for Si                    (Z =  14)

read_vps: Pseudopotential generation method:
read_vps: ATM4.2.7  Troullier-Martins                       
Valence charge for ps generation:    4.00000

xc_check: Exchange-correlation functional:
xc_check: GGA Perdew, Burke & Ernzerhof 1996
V l=0 = -2*Zval/r beyond r=  2.7826
V l=1 = -2*Zval/r beyond r=  2.7826
V l=2 = -2*Zval/r beyond r=  2.9253
V l=3 = -2*Zval/r beyond r=  2.7826
All V_l potentials equal beyond r=  2.8530
This should be close to max(r_c) in ps generation
All pots = -2*Zval/r beyond r=  2.9253

VLOCAL1: 99.0% of the norm of Vloc inside      5.333 Ry
VLOCAL1: 99.9% of the norm of Vloc inside     12.154 Ry
atom: Maximum radius for 4*pi*r*r*local-pseudopot. charge    3.39869
atom: Maximum radius for r*vlocal+2*Zval:    2.96205
GHOST: No ghost state for L =  0
GHOST: No ghost state for L =  1
GHOST: No ghost state for L =  2
GHOST: No ghost state for L =  3

KBgen: Kleinman-Bylander projectors: 
   l= 0   rc=  3.075247   el= -0.794092   Ekb=  5.879390   kbcos=  0.167461
   l= 1   rc=  3.153101   el= -0.300068   Ekb=  2.642817   kbcos=  0.058301
   l= 2   rc=  3.273594   el=  0.001958   Ekb= -1.185135   kbcos= -0.104411
   l= 3   rc=  3.232927   el=  0.003046   Ekb= -0.497174   kbcos= -0.015889

KBgen: Total number of Kleinman-Bylander projectors:   16
atom: -------------------------------------------------------------------------

atom: SANKEY-TYPE ORBITALS:
atom: Selected multiple-zeta basis: split     

SPLIT: Orbitals with angular momentum L= 0

SPLIT: Basis orbitals for state 3s

SPLIT: PAO cut-off radius determined from an
SPLIT: energy shift=  0.002000 Ry

   izeta = 1
                 lambda =    1.000000
                     rc =    6.429618
                 energy =   -0.792283
                kinetic =    0.525293
    potential(screened) =   -1.317576
       potential(ionic) =   -3.744923

   izeta = 2
                 rmatch =    3.998416
              splitnorm =    0.280000
                 energy =   -0.583081
                kinetic =    1.069570
    potential(screened) =   -1.652651
       potential(ionic) =   -4.235185

SPLIT: Orbitals with angular momentum L= 1

SPLIT: Basis orbitals for state 3p

SPLIT: PAO cut-off radius determined from an
SPLIT: energy shift=  0.002000 Ry

   izeta = 1
                 lambda =    1.000000
                     rc =    8.464845
                 energy =   -0.298236
                kinetic =    0.785360
    potential(screened) =   -1.083596
       potential(ionic) =   -3.273779

   izeta = 2
                 rmatch =    4.587816
              splitnorm =    0.280000
                 energy =   -0.131871
                kinetic =    1.403687
    potential(screened) =   -1.535557
       potential(ionic) =   -4.015310

POLgen: Perturbative polarization orbital with L=  2

POLgen: Polarization orbital for state 3p

   izeta = 1
                     rc =    8.464845
                 energy =    0.321949
                kinetic =    1.055677
    potential(screened) =   -0.733728
       potential(ionic) =   -2.672950
atom: Total number of Sankey-type orbitals: 13

atm_pop: Valence configuration (for local Pseudopot. screening):
 3s( 2.00)                                                            
 3p( 2.00)                                                            
Vna: chval, zval:    4.00000   4.00000

Vna:  Cut-off radius for the neutral-atom potential:   8.464845

atom: _________________________________________________________________________

<basis_specs>
===============================================================================
O                    Z=   8    Mass=  16.000        Charge= 0.17977+309
Lmxo=1 Lmxkb= 3    BasisType=split      Semic=F
L=0  Nsemic=0  Cnfigmx=2
          i=1  nzeta=2  polorb=0  (2s)
            splnorm:   0.28000    
               vcte:    0.0000    
               rinn:    0.0000    
               qcoe:    0.0000    
               qyuk:    0.0000    
               qwid:   0.10000E-01
                rcs:    0.0000      0.0000    
            lambdas:    1.0000      1.0000    
L=1  Nsemic=0  Cnfigmx=2
          i=1  nzeta=2  polorb=1  (2p)
            splnorm:   0.28000    
               vcte:    0.0000    
               rinn:    0.0000    
               qcoe:    0.0000    
               qyuk:    0.0000    
               qwid:   0.10000E-01
                rcs:    0.0000      0.0000    
            lambdas:    1.0000      1.0000    
-------------------------------------------------------------------------------
L=0  Nkbl=1  erefs: 0.17977+309
L=1  Nkbl=1  erefs: 0.17977+309
L=2  Nkbl=1  erefs: 0.17977+309
L=3  Nkbl=1  erefs: 0.17977+309
===============================================================================
</basis_specs>

atom: Called for O                     (Z =   8)

read_vps: Pseudopotential generation method:
read_vps: ATM4.2.7  Troullier-Martins                       
Valence charge for ps generation:    6.00000

xc_check: Exchange-correlation functional:
xc_check: GGA Perdew, Burke & Ernzerhof 1996
V l=0 = -2*Zval/r beyond r=  1.1000
V l=1 = -2*Zval/r beyond r=  1.1000
V l=2 = -2*Zval/r beyond r=  2.2154
V l=3 = -2*Zval/r beyond r=  1.1000
All V_l potentials equal beyond r=  2.2154
This should be close to max(r_c) in ps generation
All pots = -2*Zval/r beyond r=  2.2154

VLOCAL1: 99.0% of the norm of Vloc inside      8.845 Ry
VLOCAL1: 99.9% of the norm of Vloc inside     20.157 Ry
atom: Maximum radius for 4*pi*r*r*local-pseudopot. charge    2.67231
atom: Maximum radius for r*vlocal+2*Zval:    2.32897
GHOST: No ghost state for L =  0
GHOST: No ghost state for L =  1
GHOST: No ghost state for L =  2
GHOST: No ghost state for L =  3

KBgen: Kleinman-Bylander projectors: 
   l= 0   rc=  2.243238   el= -1.759686   Ekb=**********   kbcos= -0.171774
   l= 1   rc=  2.328968   el= -0.663873   Ekb=-14.506792   kbcos= -0.519897
   l= 2   rc=  2.573941   el=  0.002031   Ekb= -1.137373   kbcos= -0.019581
   l= 3   rc=  2.606321   el=  0.003153   Ekb= -1.013546   kbcos= -0.003122

KBgen: Total number of Kleinman-Bylander projectors:   16
atom: -------------------------------------------------------------------------

atom: SANKEY-TYPE ORBITALS:
atom: Selected multiple-zeta basis: split     

SPLIT: Orbitals with angular momentum L= 0

SPLIT: Basis orbitals for state 2s

SPLIT: PAO cut-off radius determined from an
SPLIT: energy shift=  0.002000 Ry

   izeta = 1
                 lambda =    1.000000
                     rc =    4.243912
                 energy =   -1.758270
                kinetic =    3.286084
    potential(screened) =   -5.044353
       potential(ionic) =  -12.921184

   izeta = 2
                 rmatch =    2.187845
              splitnorm =    0.280000
                 energy =   -0.885018
                kinetic =    8.134434
    potential(screened) =   -9.019452
       potential(ionic) =  -17.710645

SPLIT: Orbitals with angular momentum L= 1

SPLIT: Basis orbitals for state 2p

SPLIT: PAO cut-off radius determined from an
SPLIT: energy shift=  0.002000 Ry

   izeta = 1
                 lambda =    1.000000
                     rc =    5.314825
                 energy =   -0.661986
                kinetic =    4.917472
    potential(screened) =   -5.579458
       potential(ionic) =  -13.236259

   izeta = 2
                 rmatch =    2.160663
              splitnorm =    0.280000
                 energy =   -0.068760
                kinetic =    9.183374
    potential(screened) =   -9.252135
       potential(ionic) =  -18.274251

POLgen: Perturbative polarization orbital with L=  2

POLgen: Polarization orbital for state 2p

   izeta = 1
                     rc =    5.314825
                 energy =    1.970580
                kinetic =    3.886128
    potential(screened) =   -1.915547
       potential(ionic) =   -7.749584
atom: Total number of Sankey-type orbitals: 13

atm_pop: Valence configuration (for local Pseudopot. screening):
 2s( 2.00)                                                            
 2p( 4.00)                                                            
Vna: chval, zval:    6.00000   6.00000

Vna:  Cut-off radius for the neutral-atom potential:   5.314825

atom: _________________________________________________________________________

prinput: Basis input ----------------------------------------------------------

PAO.BasisType split     

%block ChemicalSpeciesLabel
    1    1 H                       # Species index, atomic number, species label
    2    7 N                       # Species index, atomic number, species label
    3   14 Si                      # Species index, atomic number, species label
    4    8 O                       # Species index, atomic number, species label
%endblock ChemicalSpeciesLabel

%block PAO.Basis                 # Define Basis set
H                     1                    # Species label, number of l-shells
 n=1   0   2 P   1                   # n, l, Nzeta, Polarization, NzetaPol
   6.518      2.141   
   1.000      1.000   
N                     2                    # Species label, number of l-shells
 n=2   0   2                         # n, l, Nzeta 
   4.730      2.532   
   1.000      1.000   
 n=2   1   2 P   1                   # n, l, Nzeta, Polarization, NzetaPol
   5.924      2.532   
   1.000      1.000   
Si                    2                    # Species label, number of l-shells
 n=3   0   2                         # n, l, Nzeta 
   6.430      3.998   
   1.000      1.000   
 n=3   1   2 P   1                   # n, l, Nzeta, Polarization, NzetaPol
   8.465      4.588   
   1.000      1.000   
O                     2                    # Species label, number of l-shells
 n=2   0   2                         # n, l, Nzeta 
   4.244      2.188   
   1.000      1.000   
 n=2   1   2 P   1                   # n, l, Nzeta, Polarization, NzetaPol
   5.315      2.161   
   1.000      1.000   
%endblock PAO.Basis

prinput: ----------------------------------------------------------------------

Dumping basis to NetCDF file H.ion.nc
Dumping basis to NetCDF file N.ion.nc
Dumping basis to NetCDF file Si.ion.nc
Dumping basis to NetCDF file O.ion.nc
coor:   Atomic-coordinates input format  =     Cartesian coordinates
coor:                                          (in Angstroms)

siesta: Atomic coordinates (Bohr) and species
siesta:      3.01815   5.21559  -0.00000  1        1
siesta:      1.68309   3.72264  -0.00000  2        2
siesta:     -1.58668   4.55670   0.00000  3        3
siesta:     -1.88106   7.37238   0.00000  1        4
siesta:     -4.46534   1.61079  -0.00000  3        5
siesta:     -7.26816   2.06967  -0.00000  1        6
siesta:     -2.20071  -2.00478  -0.00000  3        7
siesta:     -3.64829  -4.90120  -0.00000  2        8
siesta:     -2.53289  -6.71007   0.00000  1        9
siesta:     -5.63557  -5.05325  -0.00000  1       10
siesta:      1.04244  -1.90052   0.00000  2       11
siesta:      3.07394   0.61346  -0.00000  3       12
siesta:      6.11389   0.57791  -0.00000  4       13
siesta:     10.61355 -14.07759   0.00000  1       14
siesta:      8.65886 -13.66658   0.00000  2       15
siesta:      6.22979 -16.04876   0.00000  3       16
siesta:      7.18318 -18.71532  -0.00000  1       17
siesta:      3.13570 -15.14356   0.00000  2       18
siesta:      3.17659 -11.72506  -0.00000  3       19
siesta:      1.03072  -8.10005   0.00000  3       20
siesta:     -1.95457  -7.45403   0.00000  4       21
siesta:      3.27352  -5.43711   0.00000  2       22
siesta:      2.28576  -3.64645  -0.00000  1       23
siesta:      6.63017  -5.24735   0.00000  3       24
siesta:      7.81751  -2.22872   0.00000  2       25
siesta:      6.69523  -0.49602   0.00000  1       26
siesta:      9.79567  -1.98858  -0.00000  1       27
siesta:      8.75489  -7.70105  -0.00000  2       28
siesta:      7.16982 -10.55666   0.00000  3       29

siesta: Automatic unit cell vectors (Ang):
siesta:   17.997436    0.000000    0.000000
siesta:    0.000000   22.774094    0.000000
siesta:    0.000000    0.000000    9.854683

siesta: System type = molecule  

initatomlists: Number of atoms, orbitals, and projectors:     29   297   394

siesta: ******************** Simulation parameters ****************************
siesta:
siesta: The following are some of the parameters of the simulation.
siesta: A complete list of the parameters used, including default values,
siesta: can be found in file out.fdf
siesta:
redata: Spin configuration                          = spin-orbit
redata: Number of spin components                   = 8
redata: Time-Reversal Symmetry                      = F
redata: Spin spiral                                 = F
############################################################
This spin-orbit implementation uses a local approximation.
From 4.2 and onwards the full non-local approximation is implemented
You are strongly advised to use >=4.2 versions!
############################################################
redata: Long output                                 =   F
redata: Number of Atomic Species                    =        4
redata: Charge density info will appear in .RHO file
redata: Write Mulliken Pop.                         = NO
redata: Matel table size (NRTAB)                    =     1024
redata: Mesh Cutoff                                 =   340.0000 Ry
redata: Net charge of the system                    =     0.0000 |e|
redata: Min. number of SCF Iter                     =        1
redata: Max. number of SCF Iter                     =      600
redata: SCF convergence failure will abort job
redata: SCF mix quantity                            = Hamiltonian
redata: Mix DM or H after convergence               =   F
redata: Recompute H after scf cycle                 =   F
redata: Mix DM in first SCF step                    =   T
redata: Write Pulay info on disk                    =   F
redata: New DM Occupancy tolerance                  = 0.000000000001
redata: No kicks to SCF
redata: DM Mixing Weight for Kicks                  =     0.5000
redata: Require Harris convergence for SCF          =   F
redata: Harris energy tolerance for SCF             =     0.000100 eV
redata: Require DM convergence for SCF              =   T
redata: DM tolerance for SCF                        =     0.000008
redata: Require EDM convergence for SCF             =   F
redata: EDM tolerance for SCF                       =     0.001000 eV
redata: Require H convergence for SCF               =   T
redata: Hamiltonian tolerance for SCF               =     0.000001 eV
redata: Require (free) Energy convergence for SCF   =   F
redata: (free) Energy tolerance for SCF             =     0.000100 eV
redata: Using Saved Data (generic)                  =   F
redata: Use continuation files for DM               =   T
redata: Neglect nonoverlap interactions             =   F
redata: Method of Calculation                       = Diagonalization
redata: Electronic Temperature                      =   299.9978 K
redata: Fix the spin of the system                  =   F
redata: Dynamics option                             = Single-point calculation
mix.SCF: Pulay mixing                            = Pulay
mix.SCF:    Variant                              = stable
mix.SCF:    History steps                        = 6
mix.SCF:    Linear mixing weight                 =     0.250000
mix.SCF:    Mixing weight                        =     0.250000
mix.SCF:    SVD condition                        = 0.1000E-07
mix.SCF:    Restart steps                        = 24
mix.SCF:    Restart save steps                   = 3
mix.SCF: Spin-component mixing                   all
redata: Save all siesta data in one NC              =   F
redata: ***********************************************************************

%block SCF.Mixers
  Pulay
%endblock SCF.Mixers

%block SCF.Mixer.Pulay
  # Mixing method
  method pulay
  variant stable

  # Mixing options
  weight 0.2500
  weight.linear 0.2500
  history 6
  restart 24
  restart.save 3
%endblock SCF.Mixer.Pulay

DM_history_depth set to one: no extrapolation allowed by default for geometry relaxation
Size of DM history Fstack: 1
Total number of electrons:    98.000000
Total ionic charge:    98.000000

* ProcessorY, Blocksize:    2  24


* Orbital distribution balance (max,min):    57    48


Time-reversal symmetry not used.

siesta: k-grid: Number of k-points =     1
siesta: k-grid: Cutoff (effective) =     4.927 Ang
siesta: k-grid: Supercell and displacements
siesta: k-grid:    1   0   0      0.000
siesta: k-grid:    0   1   0      0.000
siesta: k-grid:    0   0   1      0.000

diag: Algorithm                                     = ELPA-1stage
diag: Parallel over k                               =   F
diag: Use parallel 2D distribution                  =   T
diag: Parallel block-size                           = 24
diag: Parallel distribution                         =     2 x     3
diag: Used triangular part                          = Lower
diag: Absolute tolerance                            =  0.100E-15
diag: Orthogonalization factor                      =  0.100E-05
diag: Memory factor                                 =  1.0000


ts: **************************************************************
ts: Save H and S matrices                           =    F
ts: Save DM and EDM matrices                        =    F
ts: Only save the overlap matrix S                  =    F
ts: **************************************************************

************************ Begin: TS CHECKS AND WARNINGS ************************
************************ End: TS CHECKS AND WARNINGS **************************


                     ====================================
                        Single-point calculation
                     ====================================

outcoor: Atomic coordinates (Ang):                          
    1.59713758    2.75997153    0.00000000   1       1  H
    0.89065085    1.96993535    0.00000000   2       2  N
   -0.83963606    2.41129926    0.00000000   3       3  Si
   -0.99541574    3.90129152    0.00000000   1       4  H
   -2.36295768    0.85239174    0.00000000   3       5  Si
   -3.84614531    1.09522210    0.00000000   1       6  H
   -1.16456682   -1.06088442    0.00000000   3       7  Si
   -1.93059228   -2.59360116    0.00000000   2       8  N
   -1.34034573   -3.55081419    0.00000000   1       9  H
   -2.98221460   -2.67406139    0.00000000   1      10  H
    0.55163324   -1.00571011    0.00000000   2      11  N
    1.62665586    0.32462873    0.00000000   3      12  Si
    3.23532918    0.30581847    0.00000000   4      13  O
    5.61644830   -7.44953905    0.00000000   1      14  H
    4.58206954   -7.23203760    0.00000000   2      15  N
    3.29666389   -8.49263600    0.00000000   3      16  Si
    3.80117524   -9.90371886    0.00000000   1      17  H
    1.65934232   -8.01362137    0.00000000   2      18  N
    1.68097912   -6.20463398    0.00000000   3      19  Si
    0.54543521   -4.28636135    0.00000000   3      20  Si
   -1.03431493   -3.94450034    0.00000000   4      21  O
    1.73226934   -2.87719605    0.00000000   2      22  N
    1.20957366   -1.92961761    0.00000000   1      23  H
    3.50853448   -2.77677601    0.00000000   3      24  Si
    4.13684451   -1.17938608    0.00000000   2      25  N
    3.54296161   -0.26248101    0.00000000   1      26  H
    5.18364407   -1.05231197    0.00000000   1      27  H
    4.63288658   -4.07521596    0.00000000   2      28  N
    3.79410501   -5.58634043    0.00000000   3      29  Si

outcell: Unit cell vectors (Ang):
       17.997436    0.000000    0.000000
        0.000000   22.774094    0.000000
        0.000000    0.000000    9.854683

outcell: Cell vector modules (Ang)   :   17.997436   22.774094    9.854683
outcell: Cell angles (23,13,12) (deg):     90.0000     90.0000     90.0000
outcell: Cell volume (Ang**3)        :   4039.1912
siesta: WARNING: Atoms     9    21 too close: rij =    0.498642 Ang
<dSpData1D:S at geom step 0
  <sparsity:sparsity for geom step 0
    nrows_g=297 nrows=57 sparsity=.1552 nnzs=13693, refcount: 8>
  <dData1D:(new from dSpData1D) n=13693, refcount: 1>
refcount: 1>
new_DM -- step:     1
Initializing Density Matrix...

Attempting to read DM from file... Failed...
DM filled with atomic data:
<dSpData2D:DM initialized from atoms
  <sparsity:sparsity for geom step 0
    nrows_g=297 nrows=57 sparsity=.1552 nnzs=13693, refcount: 9>
  <dData2D:DM n=13693 m=8, refcount: 1>
refcount: 1>
     spin moment: S , {S} =   56.00000   0.00000   0.00000  56.00000
No. of atoms with KB's overlaping orbs in proc 0. Max # of overlaps:      29     232

Initializing spin-orbit part of the Hamiltonian
  Adding spin-orbit effects for H 
  Adding spin-orbit effects for N 
  Adding spin-orbit effects for Si
  Adding spin-orbit effects for O 


New grid distribution:   1
           1       1:  100    1:   64    1:   20
           2       1:  100    1:   64   21:   40
           3       1:  100    1:   64   41:   60
           4       1:  100   65:  128    1:   20
           5       1:  100   65:  128   21:   40
           6       1:  100   65:  128   41:   60

InitMesh: MESH =   200 x   256 x   120 =     6144000
InitMesh: (bp) =   100 x   128 x    60 =      768000
InitMesh: Mesh cutoff (required, used) =   340.000   341.303 Ry
ExtMesh (bp) on 0 =   200 x   168 x   132 =     4435200
New grid distribution:   2
           1      14:  100    1:   78    1:   60
           2       1:   13    1:  102    1:   60
           3       1:   13  103:  128    1:   60
           4      14:  100  116:  128    1:   60
           5      14:  100   79:  102    1:   60
           6      14:  100  103:  115    1:   60
New grid distribution:   3
           1      19:  100   22:   85    1:   60
           2      19:  100    1:   21    1:   60
           3       1:   22   86:  128    1:   60
           4      23:  100  110:  128    1:   60
           5      23:  100   86:  109    1:   60
           6       1:   18    1:   85    1:   60
Setting up quadratic distribution...
ExtMesh (bp) on 0 =   187 x   182 x   172 =     5853848
PhiOnMesh: Number of (b)points on node 0 =               407160
PhiOnMesh: nlist on node 0 =              2291692

stepf: Fermi-Dirac step function

siesta: Program's energy decomposition (eV):
siesta: Ebs     =      -518.152721
siesta: Eions   =      3585.165840
siesta: Ena     =       469.200247
siesta: Ekin    =      3561.888074
siesta: Enl     =     -3507.659981
siesta: Eso     =        -0.003494
siesta: Edftu   =         0.000000
siesta: DEna    =       158.005549
siesta: DUscf   =       103.662566
siesta: DUext   =         0.000000
siesta: Exc     =     -1240.081418
siesta: eta*DQ  =         0.000000
siesta: Emadel  =         0.000000
siesta: Emeta   =         0.000000
siesta: Emolmec =         0.000000
siesta: Ekinion =         0.000000
siesta: Eharris =     -3898.571461
siesta: Etot    =     -4040.154297
siesta: FreeEng =     -4040.156745

        iscf     Eharris(eV)        E_KS(eV)     FreeEng(eV)     dDmax    Ef(eV) dHmax(eV)
   scf:    1    -3898.571461    -4040.154297    -4040.156745  0.931428 -4.949298 29.657602
     spin moment: S , {S} =    2.01603   0.00000  -0.00000   2.01603
timer: Routine,Calls,Time,% = IterSCF        1       5.399  20.91
   scf:    2    -4046.501622    -4074.412607    -4074.419510  0.526286 -3.922568 17.518624
     spin moment: S , {S} =    5.99803   0.00000  -0.00000   5.99803
   scf:    3    -4062.171282    -4085.735128    -4085.769020  0.453691 -3.883221 15.593036
     spin moment: S , {S} =    2.02863  -0.00000   0.00000   2.02863
   scf:    4    -4095.713981    -4093.781549    -4093.809347  0.376896 -3.558295 10.782145
     spin moment: S , {S} =    0.44359   0.00000  -0.00000   0.44359
   scf:    5    -4097.224890    -4095.682671    -4095.683137  0.077852 -3.495201  7.100968
     spin moment: S , {S} =    0.00247  -0.00000  -0.00000   0.00247
   scf:    6    -4097.487985    -4096.884417    -4096.885563  0.066999 -3.376706  3.816692
     spin moment: S , {S} =    0.00670  -0.00000  -0.00000   0.00670
   scf:    7    -4097.415685    -4097.264269    -4097.264271  0.048445 -3.530916  2.173818
     spin moment: S , {S} =    0.00004   0.00000  -0.00000   0.00004
   scf:    8    -4097.624741    -4097.488925    -4097.488925  0.041693 -3.613787  1.353614
     spin moment: S , {S} =    0.00001   0.00000   0.00000   0.00001
   scf:    9    -4097.594684    -4097.551368    -4097.551368  0.024735 -3.674403  0.585849
     spin moment: S , {S} =    0.00001   0.00000   0.00000   0.00001
   scf:   10    -4097.606222    -4097.579952    -4097.579952  0.012673 -3.697225  0.183765
     spin moment: S , {S} =    0.00000   0.00000   0.00000   0.00000
   scf:   11    -4097.603488    -4097.591269    -4097.591269  0.006722 -3.702572  0.109136
     spin moment: S , {S} =    0.00000   0.00000   0.00000   0.00000
   scf:   12    -4097.607232    -4097.598561    -4097.598561  0.006500 -3.701745  0.052907
     spin moment: S , {S} =    0.00000   0.00000   0.00000   0.00000
   scf:   13    -4097.606734    -4097.601983    -4097.601983  0.006500 -3.699803  0.028812
     spin moment: S , {S} =    0.00000   0.00000   0.00000   0.00000
   scf:   14    -4097.603087    -4097.602472    -4097.602472  0.002660 -3.697835  0.020783
     spin moment: S , {S} =    0.00000   0.00000   0.00000   0.00000
   scf:   15    -4097.602870    -4097.602647    -4097.602647  0.001848 -3.695248  0.013172
     spin moment: S , {S} =    0.00000   0.00000   0.00000   0.00000
   scf:   16    -4097.602792    -4097.602712    -4097.602712  0.001137 -3.694266  0.008656
     spin moment: S , {S} =    0.00000   0.00000   0.00000  -0.00000
   scf:   17    -4097.602813    -4097.602756    -4097.602756  0.001194 -3.693611  0.004834
     spin moment: S , {S} =    0.00000   0.00000   0.00000  -0.00000
   scf:   18    -4097.602793    -4097.602772    -4097.602772  0.000765 -3.693454  0.002636
     spin moment: S , {S} =    0.00000   0.00000   0.00000  -0.00000
   scf:   19    -4097.602781    -4097.602776    -4097.602776  0.000391 -3.693491  0.001398
     spin moment: S , {S} =    0.00000   0.00000   0.00000  -0.00000
   scf:   20    -4097.602778    -4097.602777    -4097.602777  0.000156 -3.693710  0.000963
     spin moment: S , {S} =    0.00000   0.00000   0.00000   0.00000
   scf:   21    -4097.602778    -4097.602777    -4097.602777  0.000097 -3.693677  0.000534
     spin moment: S , {S} =    0.00000   0.00000   0.00000   0.00000
   scf:   22    -4097.602778    -4097.602777    -4097.602777  0.000075 -3.693662  0.000227
     spin moment: S , {S} =    0.00000   0.00000   0.00000   0.00000
   scf:   23    -4097.602778    -4097.602778    -4097.602778  0.000043 -3.693627  0.000135
     spin moment: S , {S} =    0.00000  -0.00000   0.00000  -0.00000
   scf:   24    -4097.602778    -4097.602778    -4097.602778  0.000011 -3.693634  0.000094
     spin moment: S , {S} =    0.00000   0.00000   0.00000  -0.00000
mix: Pulay -- resetting history
   scf:   25    -4097.602778    -4097.602778    -4097.602778  0.000006 -3.693634  0.000067
     spin moment: S , {S} =    0.00000   0.00000   0.00000  -0.00000
   scf:   26    -4097.602778    -4097.602778    -4097.602778  0.000005 -3.693633  0.000041
     spin moment: S , {S} =    0.00000   0.00000   0.00000  -0.00000
   scf:   27    -4097.602778    -4097.602778    -4097.602778  0.000004 -3.693632  0.000027
     spin moment: S , {S} =    0.00000   0.00000   0.00000  -0.00000
   scf:   28    -4097.602778    -4097.602778    -4097.602778  0.000002 -3.693631  0.000018
     spin moment: S , {S} =    0.00000   0.00000   0.00000  -0.00000
   scf:   29    -4097.602778    -4097.602778    -4097.602778  0.000001 -3.693631  0.000014
     spin moment: S , {S} =    0.00000   0.00000   0.00000  -0.00000
   scf:   30    -4097.602778    -4097.602778    -4097.602778  0.000001 -3.693631  0.000010
     spin moment: S , {S} =    0.00000   0.00000   0.00000  -0.00000
   scf:   31    -4097.602778    -4097.602778    -4097.602778  0.000001 -3.693631  0.000005
     spin moment: S , {S} =    0.00000   0.00000   0.00000  -0.00000
   scf:   32    -4097.602778    -4097.602778    -4097.602778  0.000001 -3.693631  0.000003
     spin moment: S , {S} =    0.00000   0.00000   0.00000  -0.00000
   scf:   33    -4097.602778    -4097.602778    -4097.602778  0.000000 -3.693631  0.000002
     spin moment: S , {S} =    0.00000   0.00000   0.00000  -0.00000
   scf:   34    -4097.602778    -4097.602778    -4097.602778  0.000000 -3.693631  0.000001
     spin moment: S , {S} =    0.00000   0.00000   0.00000  -0.00000

SCF Convergence by DM+H criterion
max |DM_out - DM_in|         :     0.0000002631
max |H_out - H_in|      (eV) :     0.0000009275
SCF cycle converged after 34 iterations

Using DM_out to compute the final energy and forces
No. of atoms with KB's overlaping orbs in proc 0. Max # of overlaps:      29     232

siesta: E_KS(eV) =            -4097.6028

siesta: E_KS - E_eggbox =     -4097.6028
     spin moment: S , {S} =    0.00000   0.00000   0.00000  -0.00000

siesta: Atomic forces (eV/Ang):
     1    0.112517    0.009023   -0.000000
     2    0.782716   -0.552480    0.000000
     3   -0.954548    0.229606   -0.000000
     4    0.268904    0.394631    0.000000
     5    0.574586    0.270104   -0.000000
     6    0.022785   -0.054345   -0.000000
     7   -3.216889   -0.369287   -0.000000
     8  -14.086151   24.039832    0.000000
     9 -111.139695  142.360878   -0.000000
    10   -0.267014    0.813711    0.000000
    11   -2.724747    6.807621    0.000000
    12   -2.919083    2.022077   -0.000000
    13  -38.279375   71.207511   -0.000000
    14   -0.019670    0.049203   -0.000000
    15   -0.176691   -0.174721    0.000000
    16   -0.006705    0.057719   -0.000000
    17   -0.100635    0.045831   -0.000000
    18    0.006465   -0.078704    0.000000
    19   -0.587106   -0.064995   -0.000000
    20    3.305039   -0.788675    0.000000
    21  125.511585 -162.580224   -0.000000
    22    2.956005   -6.839210    0.000000
    23    0.261242   -0.808426    0.000000
    24    1.106562    0.527442    0.000000
    25   11.030404  -19.069938    0.000000
    26   28.140493  -53.526299    0.000000
    27    0.252580   -0.688502   -0.000000
    28    0.180948   -1.401012   -0.000000
    29    0.574298    0.598668    0.000000
----------------------------------------
   Tot    0.608822    2.437038    0.000000
----------------------------------------
   Max  162.580224
   Res   31.515667    sqrt( Sum f_i^2 / 3N )
----------------------------------------
   Max  162.580224    constrained

Stress tensor Voigt[x,y,z,yz,xz,xy] (kbar):      -30.24      -65.64       -0.09        0.00        0.00       45.86
(Free)E + p*V (eV/cell)    -4016.9543
Target enthalpy (eV/cell)    -4097.6028

siesta: Eigenvalues (eV):
ik =     1
  -31.4258  -31.4258  -29.5568  -29.5568  -22.2334  -22.2334  -21.7228  -21.7228  -21.1638  -21.1638
  -20.0667  -20.0667  -19.6362  -19.6362  -19.3578  -19.3578  -19.0710  -19.0710  -18.9396  -18.9396
  -17.0202  -17.0202  -16.0622  -16.0622  -14.5640  -14.5640  -13.6671  -13.6671  -13.5093  -13.5093
  -13.2624  -13.2624  -13.0331  -13.0331  -12.5999  -12.5999  -12.2648  -12.2648  -12.0642  -12.0642
  -11.4859  -11.4859  -11.1717  -11.1717  -10.6532  -10.6532  -10.4042  -10.4042  -10.2607  -10.2607
  -10.1700  -10.1700   -9.9624   -9.9624   -9.9308   -9.9308   -9.4221   -9.4221   -9.1099   -9.1099
   -8.8727   -8.8727   -8.7159   -8.7159   -8.6617   -8.6617   -8.4535   -8.4535   -8.2832   -8.2832
   -8.0529   -8.0529   -8.0401   -8.0401   -7.3617   -7.3617   -7.3258   -7.3258   -6.6838   -6.6838
   -6.3173   -6.3173   -6.2872   -6.2872   -5.9431   -5.9431   -5.7962   -5.7962   -5.3131   -5.3131
   -5.2401   -5.2401   -4.6933   -4.6933   -4.5235   -4.5235   -4.2862   -4.2862   -3.1083   -3.1083
   -2.6180   -2.6180   -2.5150   -2.5150   -2.3589   -2.3589   -2.1871   -2.1871   -2.1095   -2.1095
   -1.9155   -1.9155   -1.5581   -1.5581   -1.4989   -1.4989   -1.1396   -1.1396   -0.9013   -0.9013
   -0.8931   -0.8931   -0.7463   -0.7463   -0.4128   -0.4128   -0.2386   -0.2386    0.3803    0.3803
    0.4457    0.4457    0.5446    0.5446    0.6220    0.6220    0.6884    0.6884    1.1889    1.1889
    1.3652    1.3652    1.5100    1.5100    1.5240    1.5240    1.6463    1.6463    2.1186    2.1186
    2.3513    2.3513    2.5197    2.5197    2.5389    2.5389    2.6491    2.6491    2.9441    2.9441
    3.0331    3.0331    3.3028    3.3028    3.3911    3.3911    3.6253    3.6253    3.8039    3.8039
    4.0855    4.0855    4.1688    4.1688    4.3565    4.3565    4.3726    4.3726    4.5704    4.5704
    4.7273    4.7273    4.7895    4.7895    4.9207    4.9207    5.2843    5.2843    5.4045    5.4045
    5.6582    5.6582    5.6724    5.6724    5.6876    5.6876    5.8071    5.8071    5.9376    5.9376
    6.0503    6.0503    6.3352    6.3352    6.4699    6.4699    6.7605    6.7605    6.7829    6.7829
    7.2146    7.2146    7.2273    7.2273    7.2639    7.2639    7.5589    7.5589    7.7510    7.7510
    7.8046    7.8046    7.8480    7.8480    8.0964    8.0964    8.3280    8.3280    8.5210    8.5210
    8.6201    8.6201    8.8099    8.8099    8.8185    8.8185    8.8400    8.8400    9.2135    9.2135
    9.3211    9.3211    9.3252    9.3252    9.7399    9.7399    9.8470    9.8470   10.1738   10.1738
   10.3905   10.3905   10.4398   10.4398   10.5822   10.5822   10.9203   10.9203   11.1718   11.1718
   11.3091   11.3091   11.3154   11.3154   11.6200   11.6200   11.6987   11.6987   12.1485   12.1485
   12.4721   12.4721   12.6494   12.6494   12.8032   12.8032   12.8896   12.8896   12.9497   12.9497
   13.1118   13.1118   13.5245   13.5245   13.6190   13.6190   14.1242   14.1242   14.2409   14.2409
   14.5751   14.5751   14.6373   14.6373   14.9128   14.9128   15.4606   15.4606   15.6565   15.6565
   16.4045   16.4045   16.4909   16.4909   16.6443   16.6443   16.9405   16.9405   17.6318   17.6318
   17.8061   17.8061   18.0049   18.0049   18.5536   18.5536   18.9656   18.9656   19.5932   19.5932
   19.9327   19.9327   20.0549   20.0549   20.3526   20.3526   20.4944   20.4944   21.1224   21.1224
   21.1958   21.1958   21.6308   21.6308   21.7611   21.7611   22.1764   22.1764   22.3660   22.3660
   22.6979   22.6979   23.6539   23.6539   23.7108   23.7108   24.3972   24.3972   24.9399   24.9399
   25.3224   25.3224   25.5105   25.5105   25.9981   25.9981   27.2016   27.2016   27.5505   27.5505
   27.7976   27.7976   28.9489   28.9489   29.5795   29.5795   29.8401   29.8401   29.9917   29.9917
   30.5172   30.5172   30.7251   30.7251   30.7509   30.7509   31.0736   31.0736   31.1832   31.1832
   31.5624   31.5624   32.1019   32.1019   32.2591   32.2591   32.5445   32.5445   33.3967   33.3967
   33.8493   33.8493   34.3093   34.3093   34.8803   34.8803   35.3324   35.3324   36.1366   36.1366
   36.7533   36.7533   36.9573   36.9573   37.1170   37.1170   38.1935   38.1935   38.9074   38.9074
   39.0485   39.0485   39.6215   39.6215   39.8951   39.8951   40.2206   40.2206   40.4541   40.4541
   40.6395   40.6395   41.0696   41.0696   41.2182   41.2182   41.7747   41.7747   42.1381   42.1381
   42.3900   42.3900   42.8660   42.8660   43.3671   43.3671   43.4994   43.4994   43.7922   43.7922
   43.9908   43.9908   44.5126   44.5126   44.5887   44.5887   44.7777   44.7777   45.4899   45.4899
   45.6051   45.6051   46.2367   46.2367   46.2535   46.2535   47.1835   47.1835   47.3469   47.3469
   47.6495   47.6495   47.8005   47.8005   48.3778   48.3778   48.7191   48.7191   49.0059   49.0059
   49.6757   49.6757   50.2455   50.2455   50.3120   50.3120   50.7406   50.7406   52.2173   52.2173
   52.7078   52.7078   52.8914   52.8914   54.3083   54.3083   54.4296   54.4296   54.4734   54.4734
   55.3210   55.3210   55.3745   55.3745   55.8291   55.8291   56.0419   56.0419   56.9666   56.9666
   57.0963   57.0963   57.8613   57.8613   59.3191   59.3191   60.2482   60.2482   60.2605   60.2605
   61.4517   61.4517   62.2731   62.2731   62.5559   62.5559   63.2168   63.2168   65.4371   65.4371
   66.2502   66.2502   67.2410   67.2410   67.4616   67.4616   68.2130   68.2130   69.6502   69.6502
   70.4732   70.4732   71.5876   71.5876   72.4809   72.4809   73.6796   73.6796   75.1290   75.1290
   77.6162   77.6162   78.6335   78.6335   79.8190   79.8190   83.0098   83.0098   85.9090   85.9090
   86.5164   86.5164   90.9104   90.9104   91.6115   91.6115   93.6177   93.6177   95.7012   95.7012
   99.9391   99.9391  100.8115  100.8115  104.8763  104.8763  109.8010  109.8010  114.8419  114.8419
  120.3077  120.3077  121.7966  121.7966  127.1750  127.1750  130.3741  130.3741  134.9502  134.9502
  137.1176  137.1176  140.1273  140.1273  149.3369  149.3369  155.5455  155.5455  168.5110  168.5110
  263.7066  263.7066  402.7367  402.7367
siesta: Fermi energy =      -3.693631 eV

siesta: Program's energy decomposition (eV):
siesta: Ebs     =     -1185.286586
siesta: Eions   =      3585.165840
siesta: Ena     =       469.200247
siesta: Ekin    =      3033.574659
siesta: Enl     =     -2933.065779
siesta: Eso     =        -0.004515
siesta: Edftu   =         0.000000
siesta: DEna    =        47.307309
siesta: DUscf   =        17.267065
siesta: DUext   =         0.000000
siesta: Exc     =     -1146.715924
siesta: eta*DQ  =         0.000000
siesta: Emadel  =         0.000000
siesta: Emeta   =         0.000000
siesta: Emolmec =         0.000000
siesta: Ekinion =         0.000000
siesta: Eharris =     -4097.602778
siesta: Etot    =     -4097.602778
siesta: FreeEng =     -4097.602778

siesta: Final energy (eV):
siesta:  Band Struct. =   -1185.286586
siesta:       Kinetic =    3033.574659
siesta:       Hartree =    9826.220983
siesta:       Edftu   =       0.000000
siesta:       Eso     =      -0.004515
siesta:    Ext. field =       0.000000
siesta:   Exch.-corr. =   -1146.715924
siesta:  Ion-electron =  -22381.871235
siesta:       Ion-ion =    6571.193253
siesta:       Ekinion =       0.000000
siesta:         Total =   -4097.602778
siesta:         Fermi =      -3.693631

siesta: Atomic forces (eV/Ang):
siesta:      1    0.112517    0.009023   -0.000000
siesta:      2    0.782716   -0.552480    0.000000
siesta:      3   -0.954548    0.229606   -0.000000
siesta:      4    0.268904    0.394631    0.000000
siesta:      5    0.574586    0.270104   -0.000000
siesta:      6    0.022785   -0.054345   -0.000000
siesta:      7   -3.216889   -0.369287   -0.000000
siesta:      8  -14.086151   24.039832    0.000000
siesta:      9 -111.139695  142.360878   -0.000000
siesta:     10   -0.267014    0.813711    0.000000
siesta:     11   -2.724747    6.807621    0.000000
siesta:     12   -2.919083    2.022077   -0.000000
siesta:     13  -38.279375   71.207511   -0.000000
siesta:     14   -0.019670    0.049203   -0.000000
siesta:     15   -0.176691   -0.174721    0.000000
siesta:     16   -0.006705    0.057719   -0.000000
siesta:     17   -0.100635    0.045831   -0.000000
siesta:     18    0.006465   -0.078704    0.000000
siesta:     19   -0.587106   -0.064995   -0.000000
siesta:     20    3.305039   -0.788675    0.000000
siesta:     21  125.511585 -162.580224   -0.000000
siesta:     22    2.956005   -6.839210    0.000000
siesta:     23    0.261242   -0.808426    0.000000
siesta:     24    1.106562    0.527442    0.000000
siesta:     25   11.030404  -19.069938    0.000000
siesta:     26   28.140493  -53.526299    0.000000
siesta:     27    0.252580   -0.688502   -0.000000
siesta:     28    0.180948   -1.401012   -0.000000
siesta:     29    0.574298    0.598668    0.000000
siesta: ----------------------------------------
siesta:    Tot    0.608822    2.437038    0.000000

siesta: Stress tensor (static) (eV/Ang**3):
siesta:    -0.018872    0.028623    0.000000
siesta:     0.028623   -0.040970   -0.000000
siesta:     0.000000    0.000000   -0.000058

siesta: Cell volume =       4039.191242 Ang**3

siesta: Pressure (static):
siesta:                Solid            Molecule  Units
siesta:           0.00021746          0.00000471  Ry/Bohr**3
siesta:           0.01996650          0.00043257  eV/Ang**3
siesta:          31.99020686          0.69305545  kBar
(Free)E+ p_basis*V_orbitals  =       -4077.752360
(Free)Eharris+ p_basis*V_orbitals  =       -4077.752360
     spin moment: S , {S} =    0.00000   0.00000   0.00000  -0.00000

siesta: Electric dipole (a.u.)  =   -0.052057    1.415519    0.000000
siesta: Electric dipole (Debye) =   -0.132315    3.597893    0.000000

cite: Please see "GC.bib" for an exhaustive BiBTeX file.
cite: Please clearly indicate Siesta version in published work: v4.1.5-1-g384057250
cite: This calculation has made use of the following articles
cite: which are encouraged to be cited in a published work.
        Primary SIESTA paper
          DOI: www.doi.org/10.1088/0953-8984/14/11/302
        Spin-orbit coupling (on-site approximation)
          DOI: www.doi.org/10.1088/0953-8984/19/19/489001


WARNING: alloc-realloc-dealloc name mismatch
         Name: atomlist isa
         Size:              -116. Bytes
         Node:     0
         Subsequent mismatches will not be reported
>> End of run:  16-OCT-2023  18:04:10
Job completed
