<?xml version="1.0" encoding="UTF-8" ?>
<psml version="1.1" energy_unit="hartree" length_unit="bohr"
 uuid="9581ba20-6eac-11ec-6125-249dfdff4053"
 xmlns="http://esl.cecam.org/PSML/ns/1.1">
<provenance creator="ATM4.2.7" date=" 6-JAN-22">
<annotation action="semilocal-pseudopotential-generation" />
<input-file name="INP">
<![CDATA[   pg      Phosphorus
        tm2      6.0             # PS flavor, logder R
 n=P  c=pbr                      # Symbol, XC flavor,{ |r|s}
       0.0       0.0       0.0       0.0       0.0       0.0
    3    4                       # norbs_core, norbs_valence
    3    0      1.00      1.00   # 3s2
    3    1      1.50      1.50   # 3p3
    3    2      0.00      0.00   # 3d0
    4    3      0.00      0.00   # 4f0
      0.30      0.32      2.27      0.25      0.00      0.00
]]>
</input-file>
</provenance>
<pseudo-atom-spec atomic-label="P" atomic-number="15" z-pseudo="5"
 flavor="Troullier-Martins" relativity="dirac" spin-dft="no"
 core-corrections="no">
<annotation pseudo-energy="-6.39934719536" />
<exchange-correlation>
<annotation atom-xc-code="pb" siesta-xc-type="GGA" siesta-xc-authors="PBE" />
<libxc-info number-of-functionals="2">
<functional name="XC_GGA_X_PBE" type="XC_EXCHANGE" id="101" />
<functional name="XC_GGA_C_PBE" type="XC_CORRELATION" id="130" />
</libxc-info>
</exchange-correlation>
<valence-configuration total-valence-charge="5">
<shell n="3" l="s" occupation="2" />
<shell n="3" l="p" occupation="3" />
</valence-configuration>
</pseudo-atom-spec>
<grid npts="376">
<annotation type="sampled-log-atom"
 recipe="r(i:1..N) = a*(exp(b*(i-1))-1); resampled"
 recipe-cont="a: scale; b: step" scale="0.165250145111E-03"
 step="0.125000000000E-01" delta="0.500000000000E-02" rmax="20" />
<grid-data>
  0.000000000000E+00  5.040194254966E-03  1.005841431122E-02  1.508666499124E-02
  2.016693443563E-02  2.529720647515E-02  3.054833525482E-02  3.596769575217E-02
  4.129375361922E-02  4.681395583614E-02  5.240787592029E-02  5.793703985470E-02
  6.325004482160E-02  6.904888299368E-02  7.443956698241E-02  8.025009981629E-02
  8.543644430074E-02  9.095727926648E-02  9.683417749610E-02  1.030901030972E-01
  1.083841182646E-01  1.139495633939E-01  1.198003549968E-01  1.259511230998E-01
  1.324172478270E-01  1.374834898527E-01  1.427433231038E-01  1.482041450877E-01
  1.538736359854E-01  1.597597694527E-01  1.658708238349E-01  1.722153938093E-01
  1.788024024730E-01  1.856411138926E-01  1.927411461330E-01  2.001124847847E-01
  2.051825397828E-01  2.103809438342E-01  2.157109461108E-01  2.211758780373E-01
  2.267791553743E-01  2.325242803523E-01  2.384148438617E-01  2.444545276962E-01
  2.506471068549E-01  2.569964519014E-01  2.635065313829E-01  2.701814143112E-01
  2.770252727053E-01  2.840423841995E-01  2.912371347169E-01  2.986140212108E-01
  3.061776544753E-01  3.139327620276E-01  3.218841910622E-01  3.300369114812E-01
  3.383960190002E-01  3.469667383335E-01  3.557544264598E-01  3.647645759700E-01
  3.740028185011E-01  3.834749282553E-01  3.931868256095E-01  4.031445808158E-01
  4.082175939804E-01  4.133544177952E-01  4.185558548995E-01  4.238227180283E-01
  4.291558301398E-01  4.345560245436E-01  4.400241450309E-01  4.455610460068E-01
  4.511675926234E-01  4.568446609148E-01  4.625931379347E-01  4.684139218942E-01
  4.743079223026E-01  4.802760601096E-01  4.863192678487E-01  4.924384897836E-01
  4.986346820550E-01  5.049088128307E-01  5.112618624563E-01  5.176948236087E-01
  5.242087014512E-01  5.308045137905E-01  5.374832912357E-01  5.442460773594E-01
  5.510939288606E-01  5.580279157300E-01  5.650491214173E-01  5.721586430001E-01
  5.793575913556E-01  5.866470913341E-01  5.940282819348E-01  6.015023164838E-01
  6.090703628142E-01  6.167336034487E-01  6.244932357841E-01  6.323504722788E-01
  6.403065406420E-01  6.483626840255E-01  6.565201612183E-01  6.647802468425E-01
  6.731442315536E-01  6.816134222410E-01  6.901891422330E-01  6.988727315034E-01
  7.076655468806E-01  7.165689622600E-01  7.255843688182E-01  7.347131752310E-01
  7.439568078928E-01  7.533167111402E-01  7.627943474770E-01  7.723911978031E-01
  7.821087616460E-01  7.919485573948E-01  8.019121225377E-01  8.120010139018E-01
  8.222168078970E-01  8.325611007620E-01  8.430355088135E-01  8.536416686991E-01
  8.643812376528E-01  8.752558937542E-01  8.862673361904E-01  8.974172855217E-01
  9.087074839503E-01  9.201396955927E-01  9.317157067553E-01  9.434373262133E-01
  9.553063854936E-01  9.673247391610E-01  9.794942651075E-01  9.918168648464E-01
  1.004294463809E+00  1.016929011645E+00  1.029722482530E+00  1.042676875467E+00
  1.055794214609E+00  1.069076549565E+00  1.082525955728E+00  1.096144534595E+00
  1.109934414096E+00  1.123897748927E+00  1.138036720890E+00  1.152353539226E+00
  1.166850440968E+00  1.181529691286E+00  1.196393583842E+00  1.211444441151E+00
  1.226684614939E+00  1.242116486515E+00  1.257742467139E+00  1.273564998404E+00
  1.289586552611E+00  1.305809633161E+00  1.322236774944E+00  1.338870544734E+00
  1.355713541591E+00  1.372768397268E+00  1.390037776620E+00  1.407524378024E+00
  1.425230933796E+00  1.443160210622E+00  1.461315009988E+00  1.479698168618E+00
  1.498312558917E+00  1.517161089423E+00  1.536246705257E+00  1.555572388584E+00
  1.575141159083E+00  1.594956074413E+00  1.615020230696E+00  1.635336762996E+00
  1.655908845812E+00  1.676739693576E+00  1.697832561149E+00  1.719190744334E+00
  1.740817580392E+00  1.762716448559E+00  1.784890770578E+00  1.807344011232E+00
  1.830079678886E+00  1.853101326033E+00  1.876412549853E+00  1.900016992773E+00
  1.923918343034E+00  1.948120335271E+00  1.972626751094E+00  1.997441419681E+00
  2.022568218375E+00  2.048011073288E+00  2.073773959919E+00  2.099860903771E+00
  2.126275980983E+00  2.153023318962E+00  2.180107097037E+00  2.207531547101E+00
  2.235300954282E+00  2.263419657605E+00  2.291892050675E+00  2.320722582362E+00
  2.349915757494E+00  2.379476137565E+00  2.409408341445E+00  2.439717046100E+00
  2.470406987328E+00  2.501482960495E+00  2.532949821284E+00  2.564812486457E+00
  2.597075934620E+00  2.629745207002E+00  2.662825408243E+00  2.696321707193E+00
  2.730239337716E+00  2.764583599510E+00  2.799359858938E+00  2.834573549859E+00
  2.870230174485E+00  2.906335304236E+00  2.942894580613E+00  2.979913716075E+00
  3.017398494939E+00  3.055354774277E+00  3.093788484836E+00  3.132705631960E+00
  3.172112296534E+00  3.212014635928E+00  3.252418884965E+00  3.293331356890E+00
  3.334758444361E+00  3.376706620444E+00  3.419182439627E+00  3.462192538844E+00
  3.505743638509E+00  3.549842543571E+00  3.594496144573E+00  3.639711418731E+00
  3.685495431025E+00  3.731855335298E+00  3.778798375380E+00  3.826331886218E+00
  3.874463295018E+00  3.923200122411E+00  3.972549983626E+00  4.022520589679E+00
  4.073119748578E+00  4.124355366546E+00  4.176235449251E+00  4.228768103063E+00
  4.281961536315E+00  4.335824060589E+00  4.390364092015E+00  4.445590152583E+00
  4.501510871478E+00  4.558134986425E+00  4.615471345059E+00  4.673528906301E+00
  4.732316741763E+00  4.791844037165E+00  4.852120093768E+00  4.913154329828E+00
  4.974956282068E+00  5.037535607170E+00  5.100902083280E+00  5.165065611539E+00
  5.230036217629E+00  5.295824053339E+00  5.362439398153E+00  5.429892660853E+00
  5.498194381149E+00  5.567355231324E+00  5.637386017902E+00  5.708297683335E+00
  5.780101307715E+00  5.852808110505E+00  5.926429452291E+00  6.000976836556E+00
  6.076461911482E+00  6.152896471765E+00  6.230292460461E+00  6.308661970850E+00
  6.388017248327E+00  6.468370692317E+00  6.549734858208E+00  6.632122459317E+00
  6.715546368874E+00  6.800019622035E+00  6.885555417917E+00  6.972167121663E+00
  7.059868266526E+00  7.148672555991E+00  7.238593865908E+00  7.329646246663E+00
  7.421843925378E+00  7.515201308126E+00  7.609732982189E+00  7.705453718334E+00
  7.802378473120E+00  7.900522391236E+00  7.999900807871E+00  8.100529251104E+00
  8.202423444333E+00  8.305599308735E+00  8.410072965746E+00  8.515860739590E+00
  8.622979159821E+00  8.731444963909E+00  8.841275099859E+00  8.952486728851E+00
  9.065097227929E+00  9.179124192712E+00  9.294585440147E+00  9.411499011287E+00
  9.529883174116E+00  9.649756426400E+00  9.771137498580E+00  9.894045356693E+00
  1.001849920534E+01  1.014451849070E+01  1.027212290353E+01  1.040133238228E+01
  1.053216711620E+01  1.066464754848E+01  1.079879437946E+01  1.093462856985E+01
  1.107217134402E+01  1.121144419331E+01  1.135246887939E+01  1.149526743765E+01
  1.163986218065E+01  1.178627570162E+01  1.193453087797E+01  1.208465087486E+01
  1.223665914887E+01  1.239057945159E+01  1.254643583337E+01  1.270425264710E+01
  1.286405455197E+01  1.302586651736E+01  1.318971382671E+01  1.335562208151E+01
  1.352361720525E+01  1.369372544751E+01  1.386597338805E+01  1.404038794097E+01
  1.421699635888E+01  1.439582623723E+01  1.457690551853E+01  1.476026249680E+01
  1.494592582193E+01  1.513392450421E+01  1.532428791879E+01  1.551704581037E+01
  1.571222829774E+01  1.590986587857E+01  1.610998943413E+01  1.631263023414E+01
  1.651781994163E+01  1.672559061791E+01  1.693597472758E+01  1.714900514357E+01
  1.736471515233E+01  1.758313845898E+01  1.780430919261E+01  1.802826191160E+01
  1.825503160901E+01  1.848465371806E+01  1.871716411769E+01  1.895259913812E+01
  1.919099556654E+01  1.943239065288E+01  1.967682211561E+01  1.992432814766E+01
</grid-data>
</grid>
<valence-charge total-charge="5" is-unscreening-charge="yes"
 rescaled-to-z-pseudo="no">
<radfunc>
<data>
  1.670982233996E-01  1.671278881233E-01  1.672163644605E-01  1.673640030892E-01
  1.675731273999E-01  1.678454617525E-01  1.681878407163E-01  1.686086705945E-01
  1.690890243061E-01  1.696567193076E-01  1.703044821854E-01  1.710164238328E-01
  1.717676395744E-01  1.726625775124E-01  1.735647244963E-01  1.746128370716E-01
  1.756146557384E-01  1.767497567188E-01  1.780358257203E-01  1.794928842534E-01
  1.807967756473E-01  1.822375092860E-01  1.838293948284E-01  1.855882279458E-01
  1.875314424283E-01  1.891213541322E-01  1.908346032309E-01  1.926807075305E-01
  1.946699116874E-01  1.968132415101E-01  1.991225621254E-01  2.016106402480E-01
  2.042912108064E-01  2.071790481838E-01  2.102900423393E-01  2.136412800785E-01
  2.160179234343E-01  2.185152568372E-01  2.211393435961E-01  2.238965448565E-01
  2.267935334983E-01  2.298373085966E-01  2.330352104556E-01  2.363949362244E-01
  2.399245561014E-01  2.436325301301E-01  2.475277255853E-01  2.516194349439E-01
  2.559173944279E-01  2.604318031009E-01  2.651733424878E-01  2.701531966777E-01
  2.753830728564E-01  2.808752221948E-01  2.866424610022E-01  2.926981920252E-01
  2.990564257418E-01  3.057318014632E-01  3.127396080077E-01  3.200958036558E-01
  3.278170350231E-01  3.359206544078E-01  3.444247350629E-01  3.533480837220E-01
  3.579730635106E-01  3.627102495530E-01  3.675622022228E-01  3.725315285367E-01
  3.776208819525E-01  3.828329620400E-01  3.881705140110E-01  3.936363280923E-01
  3.992332387218E-01  4.049641235516E-01  4.108319022328E-01  4.168395349608E-01
  4.229900207540E-01  4.292863954372E-01  4.357317292992E-01  4.423291243897E-01
  4.490817114174E-01  4.559926462101E-01  4.630651056901E-01  4.703022833172E-01
  4.777073839460E-01  4.852836180392E-01  4.930341951743E-01  5.009623167758E-01
  5.090711679986E-01  5.173639086830E-01  5.258436632947E-01  5.345135097583E-01
  5.433764670826E-01  5.524354816735E-01  5.616934122177E-01  5.711530130182E-01
  5.808169156506E-01  5.906876088054E-01  6.007674161715E-01  6.110584722113E-01
  6.215626956704E-01  6.322817606595E-01  6.432170651422E-01  6.543696966585E-01
  6.657403951133E-01  6.773295124594E-01  6.891369691075E-01  7.011622069049E-01
  7.134041385300E-01  7.258610931721E-01  7.385307583776E-01  7.514101179783E-01
  7.644953860446E-01  7.777819368522E-01  7.912642308980E-01  8.049357370631E-01
  8.187888510925E-01  8.328148106425E-01  8.470036072458E-01  8.613438956525E-01
  8.758229011310E-01  8.904263254531E-01  9.051382524404E-01  9.199410541197E-01
  9.348152987187E-01  9.497396619263E-01  9.646908430486E-01  9.796434879043E-01
  9.945701205144E-01  1.009441085855E+00  1.024224506143E+00  1.038886253312E+00
  1.053389940480E+00  1.067696935355E+00  1.081766398575E+00  1.095555349989E+00
  1.109018765837E+00  1.122109709622E+00  1.134779499191E+00  1.146977912210E+00
  1.158653431688E+00  1.169753532572E+00  1.180225009691E+00  1.190014346397E+00
  1.199068122200E+00  1.207333456593E+00  1.214758484928E+00  1.221292860963E+00
  1.226888279307E+00  1.231499009671E+00  1.235082433606E+00  1.237599573246E+00
  1.239015600709E+00  1.239300316126E+00  1.238428581972E+00  1.236380701448E+00
  1.233142729213E+00  1.228706703753E+00  1.223070792257E+00  1.216239340885E+00
  1.208222825926E+00  1.199037704399E+00  1.188706166173E+00  1.177255793617E+00
  1.164719139028E+00  1.151133234685E+00  1.136539055116E+00  1.120980956180E+00
  1.104506126403E+00  1.087164126694E+00  1.069006615324E+00  1.050087168849E+00
  1.030461014198E+00  1.010184777294E+00  9.893161934775E-01  9.679137900804E-01
  9.460365405937E-01  9.237434895690E-01  9.010933487352E-01  8.781440713549E-01
  8.549524596283E-01  8.315739241916E-01  8.080623680988E-01  7.844700218536E-01
  7.608473256726E-01  7.372428167924E-01  7.137030290491E-01  6.902724058629E-01
  6.669932258551E-01  6.439055412820E-01  6.210471290967E-01  5.984534543903E-01
  5.761576458848E-01  5.541904830773E-01  5.325803945723E-01  5.113534670783E-01
  4.905334645025E-01  4.701418565290E-01  4.501978560405E-01  4.307184647124E-01
  4.117185217451E-01  3.932107482425E-01  3.752058261986E-01  3.577125104626E-01
  3.407376625469E-01  3.242863505503E-01  3.083619223114E-01  2.929660919816E-01
  2.780990268739E-01  2.637594364176E-01  2.499446622520E-01  2.366507688773E-01
  2.238726343136E-01  2.116040402703E-01  1.998377613694E-01  1.885656530126E-01
  1.777787375254E-01  1.674672882501E-01  1.576209113018E-01  1.482286247378E-01
  1.392789349272E-01  1.307599099444E-01  1.226592498241E-01  1.149643535938E-01
  1.076623829601E-01  1.007403226034E-01  9.418503703679E-02  8.798332401102E-02
  8.212196446543E-02  7.658776904260E-02  7.136762119943E-02  6.644851696100E-02
  6.181760137535E-02  5.746220173796E-02  5.336985766382E-02  4.952834809362E-02
  4.592571532730E-02  4.255028618534E-02  3.939069040389E-02  3.643587637509E-02
  3.367512434887E-02  3.109805721686E-02  2.869464900266E-02  2.645523118645E-02
  2.437049699407E-02  2.243150378328E-02  2.062967366127E-02  1.895679246796E-02
  1.740500726013E-02  1.596682243022E-02  1.463509459234E-02  1.340302636571E-02
  1.226415918254E-02  1.121236524378E-02  1.024183874161E-02  9.347086462493E-03
  8.522917879193E-03  7.764434834006E-03  7.067020909259E-03  6.426330574414E-03
  5.838278192397E-03  5.299026960851E-03  4.804977857149E-03  4.352758649116E-03
  3.939213026706E-03  3.561389903343E-03  3.216532929256E-03  2.902070253149E-03
  2.615604562727E-03  2.354903429225E-03  2.117889975989E-03  1.902633886466E-03
  1.707342762657E-03  1.530353841143E-03  1.370126070277E-03  1.225232548983E-03
  1.094353324856E-03  9.762685468697E-04  8.698519659848E-04  7.740647752775E-04
  6.879497798584E-04  6.106258858101E-04  5.412828965983E-04  4.791766048891E-04
  4.236241674031E-04  3.739997503192E-04  3.297304327878E-04  2.902923562854E-04
  2.552071078222E-04  2.240383253703E-04  1.963885142913E-04  1.718960639887E-04
  1.502324544763E-04  1.310996430246E-04  1.142276215072E-04  9.937213552026E-05
  8.631255677280E-05  7.484990064762E-05  6.480498120919E-05  5.601669628180E-05
  4.834043554458E-05  4.164660488799E-05  3.581926055277E-05  3.075484682963E-05
  2.636103133947E-05  2.255563214154E-05  1.926563113439E-05  1.642626842398E-05
  1.398021253620E-05  1.187680155065E-05  1.007135042873E-05  8.524520003825E-06
  7.201743295416E-06  6.072705002111E-06  5.110870221632E-06  4.293058638258E-06
  3.599060609981E-06  3.011291778189E-06  2.514483011536E-06  2.095402682141E-06
  1.742608455744E-06  1.446225957288E-06  1.197751848866E-06  9.898790275484E-07
  8.163418156148E-07  6.717791747667E-07  5.516141284100E-07  4.519477218629E-07
  3.694659889587E-07  3.013585248484E-07  2.452473887003E-07  1.991251764071E-07
  1.613012123556E-07  1.303549108698E-07  1.050954522356E-07  8.452700545052E-08
  6.781881022165E-08  5.427950454413E-08  4.333515170111E-08  3.451048206072E-08
  2.741292092661E-08  2.171902426933E-08  1.716298976650E-08  1.352695155861E-08
  1.063280382194E-08  8.335331008038E-09  6.516451722577E-09  5.080409029837E-09
  3.949762769677E-09  3.062059545984E-09  2.367073655506E-09  1.824527623852E-09
  1.402214433583E-09  1.074455182937E-09  8.208360006090E-10  6.251767433820E-10
  4.746914840852E-10  3.593072068046E-10  2.711125991735E-10  2.039134887982E-10
  1.528754204125E-10  1.142372081248E-10  8.508210832176E-11  6.315561745929E-11
  4.672087417385E-11  3.444428030616E-11  2.530535268079E-11  1.852585734086E-11
  1.351440207966E-11  9.823121115293E-12  7.114048071113E-12  5.133086741192E-12
  3.689899184819E-12  2.642431953058E-12  1.885061859441E-12  1.339549264710E-12
</data>
</radfunc>
</valence-charge>
<semilocal-potentials set="scalar_relativistic">
<slps n="3" l="s" rc="1.47969816862" flavor="Troullier-Martins">
<radfunc>
<data>
 -1.022456862747E-01 -1.061906081997E-01 -1.177934309381E-01 -1.365956993490E-01
 -1.620648034857E-01 -1.932692055052E-01 -2.295183980049E-01 -2.698415043247E-01
 -3.106542800718E-01 -3.524648569568E-01 -3.927065717355E-01 -4.290398692380E-01
 -4.597988535125E-01 -4.880421415185E-01 -5.090024291822E-01 -5.258634727228E-01
 -5.360967076212E-01 -5.423839612207E-01 -5.444289313690E-01 -5.421154102946E-01
 -5.371777530965E-01 -5.296428597656E-01 -5.197325246458E-01 -5.077397012856E-01
 -4.940138340964E-01 -4.828145345783E-01 -4.710295325227E-01 -4.588312909020E-01
 -4.463888899900E-01 -4.338640455073E-01 -4.214078029241E-01 -4.091580327856E-01
 -3.972377928776E-01 -3.857545654597E-01 -3.748003269760E-01 -3.644523676908E-01
 -3.579226740943E-01 -3.517072539681E-01 -3.458202956852E-01 -3.402743997958E-01
 -3.350809351333E-01 -3.302504112044E-01 -3.257928625195E-01 -3.217182415000E-01
 -3.180368176383E-01 -3.147595816577E-01 -3.118986543642E-01 -3.094677007834E-01
 -3.074823510362E-01 -3.059606300181E-01 -3.049233985440E-01 -3.043948090012E-01
 -3.044027787865E-01 -3.049794848259E-01 -3.061618823959E-01 -3.079922510375E-01
 -3.105187698412E-01 -3.137961235301E-01 -3.178861396922E-01 -3.228584561944E-01
 -3.287912161048E-01 -3.357717855861E-01 -3.438974879011E-01 -3.532763441661E-01
 -3.584725681198E-01 -3.640278086216E-01 -3.699589011452E-01 -3.762834830373E-01
 -3.830200133508E-01 -3.901877915195E-01 -3.978069746657E-01 -4.058985933168E-01
 -4.144845652829E-01 -4.235877074311E-01 -4.332317450906E-01 -4.434413187890E-01
 -4.542419880019E-01 -4.656602316016E-01 -4.777234446447E-01 -4.904599311445E-01
 -5.038988924340E-01 -5.180704107231E-01 -5.330054274280E-01 -5.487357158203E-01
 -5.652938475394E-01 -5.827131524750E-01 -6.010276715150E-01 -6.202721016205E-01
 -6.404817326756E-01 -6.616923755274E-01 -6.839402806135E-01 -7.072620465434E-01
 -7.316945179861E-01 -7.572746721800E-01 -7.840394933723E-01 -8.120258344686E-01
 -8.412702651595E-01 -8.718089057788E-01 -9.036772461428E-01 -9.369099486185E-01
 -9.715406346751E-01 -1.007601654197E+00 -1.045123836859E+00 -1.084136224901E+00
 -1.124665786723E+00 -1.166737110756E+00 -1.210372079178E+00 -1.255589521177E+00
 -1.302404845535E+00 -1.350829652540E+00 -1.400871325358E+00 -1.452532601217E+00
 -1.505811122996E+00 -1.560698972052E+00 -1.617182183378E+00 -1.675240244506E+00
 -1.734845579825E+00 -1.795963022336E+00 -1.858549275159E+00 -1.922552365387E+00
 -1.987911093226E+00 -2.054554479572E+00 -2.122401215464E+00 -2.191359117073E+00
 -2.261324590048E+00 -2.332182107333E+00 -2.403803704745E+00 -2.476048499015E+00
 -2.548762233518E+00 -2.621776857808E+00 -2.694910148443E+00 -2.767965380701E+00
 -2.840731063890E+00 -2.912980757366E+00 -2.984472990415E+00 -3.054951317102E+00
 -3.124144547111E+00 -3.191767205568E+00 -3.257520288128E+00 -3.321092391521E+00
 -3.382161312255E+00 -3.440396215172E+00 -3.495460475622E+00 -3.547015290752E+00
 -3.594724133235E+00 -3.638258082054E+00 -3.677302009043E+00 -3.711561528845E+00
 -3.740770539570E+00 -3.764699100984E+00 -3.783161328338E+00 -3.796022935260E+00
 -3.803208048291E+00 -3.804704943013E+00 -3.800570414233E+00 -3.790932579132E+00
 -3.775992005472E+00 -3.756021136767E+00 -3.731362034549E+00 -3.702422461957E+00
 -3.669670287360E+00 -3.633626102586E+00 -3.594853772080E+00 -3.553948793887E+00
 -3.511522635491E+00 -3.468187047003E+00 -3.424523971239E+00 -3.381066982753E+00
 -3.338203137097E+00 -3.295986555282E+00 -3.254410955455E+00 -3.213466174829E+00
 -3.173133987523E+00 -3.133400167527E+00 -3.094247284429E+00 -3.055657563107E+00
 -3.017613430117E+00 -2.980094389421E+00 -2.943081351645E+00 -2.906557411144E+00
 -2.870504617877E+00 -2.834913444266E+00 -2.799774704381E+00 -2.765077674710E+00
 -2.730814648545E+00 -2.696977694856E+00 -2.663559816094E+00 -2.630554470334E+00
 -2.597955576355E+00 -2.565757424456E+00 -2.533954616035E+00 -2.502542010104E+00
 -2.471514678549E+00 -2.440867868879E+00 -2.410596973488E+00 -2.380697504547E+00
 -2.351165073658E+00 -2.321995375544E+00 -2.293184175098E+00 -2.264727297226E+00
 -2.236648445290E+00 -2.208905593806E+00 -2.181497354936E+00 -2.154421792616E+00
 -2.127676534258E+00 -2.101258864161E+00 -2.075165800882E+00 -2.049394160757E+00
 -2.023940609625E+00 -1.998801704638E+00 -1.973973927795E+00 -1.949453712662E+00
 -1.925237465490E+00 -1.901321581804E+00 -1.877702459316E+00 -1.854376507905E+00
 -1.831340157252E+00 -1.808589862626E+00 -1.786122109203E+00 -1.763933415255E+00
 -1.742020334442E+00 -1.720379457422E+00 -1.699007412937E+00 -1.677900868493E+00
 -1.657056530736E+00 -1.636471145606E+00 -1.616141498308E+00 -1.596064413169E+00
 -1.576236753396E+00 -1.556655420772E+00 -1.537317355298E+00 -1.518219534813E+00
 -1.499358974581E+00 -1.480732726873E+00 -1.462337880531E+00 -1.444171560542E+00
 -1.426230927595E+00 -1.408513177648E+00 -1.391015541497E+00 -1.373735284345E+00
 -1.356669705376E+00 -1.339816137336E+00 -1.323171946114E+00 -1.306734530335E+00
 -1.290501320947E+00 -1.274469780823E+00 -1.258637404364E+00 -1.243001717108E+00
 -1.227560275339E+00 -1.212310665709E+00 -1.197250504859E+00 -1.182377439046E+00
 -1.167689143775E+00 -1.153183323433E+00 -1.138857710936E+00 -1.124710067369E+00
 -1.110738181637E+00 -1.096939870121E+00 -1.083312976334E+00 -1.069855370587E+00
 -1.056564949653E+00 -1.043439636437E+00 -1.030477379656E+00 -1.017676153514E+00
 -1.005033957388E+00 -9.925488155128E-01 -9.802187766727E-01 -9.680419138975E-01
 -9.560163241598E-01 -9.441401280784E-01 -9.324114696238E-01 -9.208285158283E-01
 -9.093894564992E-01 -8.980925039358E-01 -8.869358926499E-01 -8.759178790898E-01
 -8.650367413675E-01 -8.542907789896E-01 -8.436783125913E-01 -8.331976836740E-01
 -8.228472543458E-01 -8.126254070655E-01 -8.025305443896E-01 -7.925610887227E-01
 -7.827154820706E-01 -7.729921857971E-01 -7.633896803829E-01 -7.539064651883E-01
 -7.445410582190E-01 -7.352919958934E-01 -7.261578328147E-01 -7.171371415446E-01
 -7.082285123799E-01 -6.994305531325E-01 -6.907418889115E-01 -6.821611619082E-01
 -6.736870311842E-01 -6.653181724611E-01 -6.570532779143E-01 -6.488910559677E-01
 -6.408302310924E-01 -6.328695436072E-01 -6.250077494811E-01 -6.172436201398E-01
 -6.095759422728E-01 -6.020035176440E-01 -5.945251629046E-01 -5.871397094078E-01
 -5.798460030262E-01 -5.726429039714E-01 -5.655292866161E-01 -5.585040393176E-01
 -5.515660642442E-01 -5.447142772041E-01 -5.379476074751E-01 -5.312649976379E-01
 -5.246654034102E-01 -5.181477934843E-01 -5.117111493648E-01 -5.053544652105E-01
 -4.990767476762E-01 -4.928770157582E-01 -4.867543006405E-01 -4.807076455433E-01
 -4.747361055740E-01 -4.688387475789E-01 -4.630146499975E-01 -4.572629027187E-01
 -4.515826069383E-01 -4.459728750185E-01 -4.404328303492E-01 -4.349616072111E-01
 -4.295583506404E-01 -4.242222162947E-01 -4.189523703216E-01 -4.137479892282E-01
 -4.086082597521E-01 -4.035323787347E-01 -3.985195529954E-01 -3.935689992077E-01
 -3.886799437767E-01 -3.838516227183E-01 -3.790832815397E-01 -3.743741751216E-01
 -3.697235676015E-01 -3.651307322589E-01 -3.605949514016E-01 -3.561155162537E-01
 -3.516917268446E-01 -3.473228918997E-01 -3.430083287323E-01 -3.387473631369E-01
 -3.345393292841E-01 -3.303835696161E-01 -3.262794347441E-01 -3.222262833470E-01
 -3.182234820710E-01 -3.142704054304E-01 -3.103664357102E-01 -3.065109628695E-01
 -3.027033844460E-01 -2.989431054617E-01 -2.952295383305E-01 -2.915621027657E-01
 -2.879402256897E-01 -2.843633411443E-01 -2.808308902024E-01 -2.773423208803E-01
 -2.738970880518E-01 -2.704946533629E-01 -2.671344851474E-01 -2.638160583444E-01
 -2.605388544156E-01 -2.573023612645E-01 -2.541060731566E-01 -2.509494906400E-01
</data>
</radfunc>
</slps>
<slps n="3" l="p" rc="1.69783256115" flavor="Troullier-Martins">
<radfunc>
<data>
 -3.806807095075E+00 -3.810752012557E+00 -3.822354769076E+00 -3.841156750344E+00
 -3.866625069722E+00 -3.897827785486E+00 -3.934073791866E+00 -3.974391355274E+00
 -4.015195612025E+00 -4.056993108809E+00 -4.097215913826E+00 -4.133523530184E+00
 -4.164249857324E+00 -4.192446791970E+00 -4.213352159707E+00 -4.230139072220E+00
 -4.240291082114E+00 -4.246474065064E+00 -4.248385194067E+00 -4.245899894750E+00
 -4.240790387831E+00 -4.233045711187E+00 -4.222879310170E+00 -4.210573959906E+00
 -4.196466698925E+00 -4.184927184183E+00 -4.172747229598E+00 -4.160090529182E+00
 -4.147115998946E+00 -4.133973575487E+00 -4.120800656834E+00 -4.107719305367E+00
 -4.094834272867E+00 -4.082231849372E+00 -4.069979485844E+00 -4.058126099683E+00
 -4.050461620039E+00 -4.042993847981E+00 -4.035724909223E+00 -4.028654123934E+00
 -4.021778243387E+00 -4.015091691803E+00 -4.008586808131E+00 -4.002254083431E+00
 -3.996082390519E+00 -3.990059203577E+00 -3.984170806292E+00 -3.978402488019E+00
 -3.972738728239E+00 -3.967163370242E+00 -3.961659785556E+00 -3.956211031054E+00
 -3.950800000997E+00 -3.945409576412E+00 -3.940022774257E+00 -3.934622898659E+00
 -3.929193696285E+00 -3.923719517446E+00 -3.918185483969E+00 -3.912577664194E+00
 -3.906883254538E+00 -3.901090766203E+00 -3.895190214476E+00 -3.889173307066E+00
 -3.886119136577E+00 -3.883033626805E+00 -3.879916296733E+00 -3.876766803044E+00
 -3.873584944400E+00 -3.870370665265E+00 -3.867124059228E+00 -3.863845371761E+00
 -3.860535002357E+00 -3.857193505988E+00 -3.853821593840E+00 -3.850420133271E+00
 -3.846990146955E+00 -3.843532811172E+00 -3.840049453221E+00 -3.836541547941E+00
 -3.833010713317E+00 -3.829458705196E+00 -3.825887411110E+00 -3.822298843237E+00
 -3.818695130553E+00 -3.815078510208E+00 -3.811451318212E+00 -3.807815979514E+00
 -3.804174997557E+00 -3.800530943439E+00 -3.796886444795E+00 -3.793244174535E+00
 -3.789606839611E+00 -3.785977169945E+00 -3.782357907713E+00 -3.778751797169E+00
 -3.775161575173E+00 -3.771589962651E+00 -3.768039657164E+00 -3.764513326795E+00
 -3.761013605547E+00 -3.757543090460E+00 -3.754104340621E+00 -3.750699878261E+00
 -3.747332192084E+00 -3.744003742991E+00 -3.740716972290E+00 -3.737474312489E+00
 -3.734278200691E+00 -3.731131094569E+00 -3.728035490812E+00 -3.724993945842E+00
 -3.722009098493E+00 -3.719083694171E+00 -3.716220609853E+00 -3.713422879048E+00
 -3.710693715567E+00 -3.708036534614E+00 -3.705454969315E+00 -3.702952880317E+00
 -3.700534355543E+00 -3.698203696518E+00 -3.695965386979E+00 -3.693824038620E+00
 -3.691784307965E+00 -3.689850777421E+00 -3.688027792655E+00 -3.686319247599E+00
 -3.684728307795E+00 -3.683257062515E+00 -3.681906096402E+00 -3.680673972549E+00
 -3.679556621200E+00 -3.678546632069E+00 -3.677632453979E+00 -3.676797513368E+00
 -3.676019273568E+00 -3.675268269429E+00 -3.674507166613E+00 -3.673689910637E+00
 -3.672761046060E+00 -3.671655298575E+00 -3.670297519269E+00 -3.668603087370E+00
 -3.666478852023E+00 -3.663824662469E+00 -3.660535488842E+00 -3.656504074737E+00
 -3.651623993728E+00 -3.645792914208E+00 -3.638915822443E+00 -3.630907924652E+00
 -3.621696955348E+00 -3.611224665506E+00 -3.599447347459E+00 -3.586335362908E+00
 -3.571871759165E+00 -3.556050167248E+00 -3.538872256267E+00 -3.520345060126E+00
 -3.500478490770E+00 -3.479283319687E+00 -3.456769792596E+00 -3.432947280481E+00
 -3.407823740621E+00 -3.381409706511E+00 -3.353713268377E+00 -3.324752966629E+00
 -3.294558991370E+00 -3.263162959045E+00 -3.230625457673E+00 -3.197023406057E+00
 -3.162447598730E+00 -3.127016882501E+00 -3.090873354808E+00 -3.054187903338E+00
 -3.017163699476E+00 -2.980036279718E+00 -2.943081331897E+00 -2.906557411144E+00
 -2.870504617877E+00 -2.834913444266E+00 -2.799774704381E+00 -2.765077674710E+00
 -2.730814648545E+00 -2.696977694856E+00 -2.663559816094E+00 -2.630554470334E+00
 -2.597955576355E+00 -2.565757424456E+00 -2.533954616035E+00 -2.502542010104E+00
 -2.471514678549E+00 -2.440867868879E+00 -2.410596973488E+00 -2.380697504547E+00
 -2.351165073658E+00 -2.321995375544E+00 -2.293184175098E+00 -2.264727297226E+00
 -2.236648445290E+00 -2.208905593806E+00 -2.181497354936E+00 -2.154421792616E+00
 -2.127676534258E+00 -2.101258864161E+00 -2.075165800882E+00 -2.049394160757E+00
 -2.023940609625E+00 -1.998801704638E+00 -1.973973927795E+00 -1.949453712662E+00
 -1.925237465490E+00 -1.901321581804E+00 -1.877702459316E+00 -1.854376507905E+00
 -1.831340157252E+00 -1.808589862626E+00 -1.786122109203E+00 -1.763933415255E+00
 -1.742020334442E+00 -1.720379457422E+00 -1.699007412937E+00 -1.677900868493E+00
 -1.657056530736E+00 -1.636471145606E+00 -1.616141498308E+00 -1.596064413169E+00
 -1.576236753396E+00 -1.556655420772E+00 -1.537317355298E+00 -1.518219534813E+00
 -1.499358974581E+00 -1.480732726873E+00 -1.462337880531E+00 -1.444171560542E+00
 -1.426230927595E+00 -1.408513177648E+00 -1.391015541497E+00 -1.373735284345E+00
 -1.356669705376E+00 -1.339816137336E+00 -1.323171946114E+00 -1.306734530335E+00