Siesta Version  : v4.1.5-1-g384057250
Architecture    : gcc
Compiler version: GNU Fortran (Debian 12.2.0-14) 12.2.0
Compiler flags  : mpifort -O2 -fPIC -ftree-vectorize -fallow-argument-mismatch
PP flags        : -DFC_HAVE_ABORT -DMPI -DSIESTA__FLOOK -DSIESTA__METIS -DSIESTA__MUMPS -DCDF -DNCDF -DNCDF_4 -DNCDF_PARALLEL -DSIESTA__MRRR -DSIESTA__ELPA
Libraries       : libncdf.a libfdict.a  -lflookall -ldl -lnetcdff -lnetcdf -lz -lscalapack-openmpi -lopenblas -lmetis -lzmumps -lcmumps -ldmumps -lmumps_common -lpord -lsmumps -lesmumps -lscotch -lscotcherr -fopenmp -lelpa
PARALLEL version
NetCDF support
NetCDF-4 support
NetCDF-4 MPI-IO support
METIS ordering support
Lua support

* Running on 32 nodes in parallel
>> Start of run:  16-OCT-2023  20:55:38

                           ***********************       
                           *  WELCOME TO SIESTA  *       
                           ***********************       

reinit: Reading from standard input
reinit: Dumped input in INPUT_TMP.52741
************************** Dump of input data file ****************************
# mpirun -np 4 siesta-4.1.5 < AT.fdf > AT.out &
SystemLabel      AT
NumberOfAtoms    30
NumberOfSpecies  4
%block ChemicalSpeciesLabel
    1    1  H
    2    7  N
    3   14  Si
    4    8  O
%endblock ChemicalSpeciesLabel
############################################
# This overrides Defaults.fdf configuration
############################################
MD.TypeOfRun                Verlet # CG, Verlet
MD.Steps                    0
MaxSCFIterations            300
AtomicCoordinatesFormat NotScaledCartesianAng
%block AtomicCoordinatesAndAtomicSpecies
    2.28494382 -5.19529124 0.0  1  1  H
    1.37433094 -4.6647107 0.0  2  2  N
    -0.21830245 -5.49458215 0.0  3  3  Si
    -0.17484108 -6.98516892 0.0  1  4  H
    -1.66171682 -4.58600741 0.0  2  5  N
    -1.09026419 -2.87456374 0.0  3  6  Si
    -1.53038332 -0.70765692 0.0  3  7  Si
    -3.14415959 -0.09186471 0.0  2  8  N
    -3.40268075 0.95848335 0.0  1  9  H
    -3.95073599 -0.76720972 0.0  1  10  H
    -0.17836637 0.41349951 0.0  2  11  N
    1.49520211 -0.0473996 0.0  3  12  Si
    2.45603905 1.10727302 0.0  1  13  H
    2.30451743 -1.58574382 0.0  2  14  N
    1.10725559 -2.84610319 0.0  3  15  Si
    0.1890890294066473 10.280621554767205 0.0  1  16  H
    -0.6196216505933527 9.588415674767203 0.0  2  17  N
    -2.2762114905933526 10.301535774767203 0.0  3  18  Si
    -2.1793463205933525 11.812260984767203 0.0  1  19  H
    -4.002367840593353 8.958487644767203 0.0  3  20  Si
    -6.356822090593353 8.950500714767204 0.0  3  21  Si
    -6.919240210593353 9.684990364767202 -1.20183078  1  22  H
    -6.656635840593353 7.471409584767203 -0.08618332  1  23  H
    -6.919352670593352 9.515333174767203 1.28814761  1  24  H
    -3.072977200593353 6.887916414767203 0.0  3  25  Si
    -4.0224455605933525 5.599380284767204 0.0  4  26  O
    -1.2820323305933528 6.714180944767204 0.0  2  27  N
    -0.9510409705933527 5.6818239647672035 0.0  1  28  H
    0.02642588940664725 7.908727364767203 0.0  3  29  Si
    1.592362819406647 7.641480514767204 0.0  4  30  O
%endblock AtomicCoordinatesAndAtomicSpecies
%include ../../../../Defaults.fdf
************************** End of input data file *****************************

reinit: -----------------------------------------------------------------------
reinit: System Name: 
reinit: -----------------------------------------------------------------------
reinit: System Label: AT
reinit: -----------------------------------------------------------------------

initatom: Reading input for the pseudopotentials and atomic orbitals ----------
Species number:   1 Atomic number:    1 Label: H
Species number:   2 Atomic number:    7 Label: N
Species number:   3 Atomic number:   14 Label: Si
Species number:   4 Atomic number:    8 Label: O

Ground state valence configuration:   1s01
Reading pseudopotential information in formatted form from H.psf

Pseudopotential generated from a relativistic atomic calculation

Valence configuration for pseudopotential generation:
1s( 1.00) rc: 0.01
2p( 0.00) rc: 0.60
3d( 0.00) rc: 1.99
4f( 0.00) rc: 2.49
Ground state valence configuration:   2s02  2p03
Reading pseudopotential information in formatted form from N.psf

Pseudopotential generated from a relativistic atomic calculation

Valence configuration for pseudopotential generation:
2s( 2.00) rc: 0.94
2p( 3.00) rc: 0.59
3d( 0.00) rc: 3.46
4f( 0.00) rc: 2.47
Ground state valence configuration:   3s02  3p02
Reading pseudopotential information in formatted form from Si.psf

Pseudopotential generated from a relativistic atomic calculation

Valence configuration for pseudopotential generation:
3s( 2.00) rc: 1.67
3p( 2.00) rc: 2.04
3d( 0.00) rc: 2.89
4f( 0.00) rc: 2.49
Ground state valence configuration:   2s02  2p04
Reading pseudopotential information in formatted form from O.psf

Pseudopotential generated from a relativistic atomic calculation

Valence configuration for pseudopotential generation:
2s( 2.00) rc: 0.45
2p( 4.00) rc: 0.92
3d( 0.00) rc: 2.24
4f( 0.00) rc: 0.25
For H, standard SIESTA heuristics set lmxkb to 2
 (one more than the basis l, including polarization orbitals).
Use PS.lmax or PS.KBprojectors blocks to override.
For N, standard SIESTA heuristics set lmxkb to 3
 (one more than the basis l, including polarization orbitals).
Use PS.lmax or PS.KBprojectors blocks to override.
For Si, standard SIESTA heuristics set lmxkb to 3
 (one more than the basis l, including polarization orbitals).
Use PS.lmax or PS.KBprojectors blocks to override.
For O, standard SIESTA heuristics set lmxkb to 3
 (one more than the basis l, including polarization orbitals).
Use PS.lmax or PS.KBprojectors blocks to override.

<basis_specs>
===============================================================================
H                    Z=   1    Mass=  1.0100        Charge= 0.17977+309
Lmxo=0 Lmxkb= 2    BasisType=split      Semic=F
L=0  Nsemic=0  Cnfigmx=1
          i=1  nzeta=2  polorb=1  (1s)
            splnorm:   0.62000    
               vcte:    0.0000    
               rinn:    0.0000    
               qcoe:    0.0000    
               qyuk:    0.0000    
               qwid:   0.10000E-01
                rcs:    0.0000      0.0000    
            lambdas:    1.0000      1.0000    
-------------------------------------------------------------------------------
L=0  Nkbl=1  erefs: 0.17977+309
L=1  Nkbl=1  erefs: 0.17977+309
L=2  Nkbl=1  erefs: 0.17977+309
===============================================================================
</basis_specs>

atom: Called for H                     (Z =   1)

read_vps: Pseudopotential generation method:
read_vps: ATM4.2.7  Troullier-Martins                       
Valence charge for ps generation:    1.00000

xc_check: Exchange-correlation functional:
xc_check: GGA Perdew, Burke & Ernzerhof 1996
V l=0 = -2*Zval/r beyond r=  0.0098
V l=1 = -2*Zval/r beyond r=  0.5817
V l=2 = -2*Zval/r beyond r=  1.9372
All V_l potentials equal beyond r=  1.9372
This should be close to max(r_c) in ps generation
All pots = -2*Zval/r beyond r=  1.9372

VLOCAL1: 99.0% of the norm of Vloc inside     11.567 Ry
VLOCAL1: 99.9% of the norm of Vloc inside     26.362 Ry
atom: Maximum radius for 4*pi*r*r*local-pseudopot. charge    2.25106
atom: Maximum radius for r*vlocal+2*Zval:    1.91306
GHOST: No ghost state for L =  0
GHOST: No ghost state for L =  1
GHOST: No ghost state for L =  2

KBgen: Kleinman-Bylander projectors: 
   l= 0   rc=  2.036604   el= -0.477180   Ekb= -6.081590   kbcos= -0.277285
   l= 1   rc=  2.195416   el=  0.001076   Ekb= -0.926943   kbcos= -0.034643
   l= 2   rc=  2.251056   el=  0.002010   Ekb= -0.130941   kbcos= -0.009788

KBgen: Total number of Kleinman-Bylander projectors:    9
atom: -------------------------------------------------------------------------

atom: SANKEY-TYPE ORBITALS:
atom: Selected multiple-zeta basis: split     

SPLIT: Orbitals with angular momentum L= 0

SPLIT: Basis orbitals for state 1s

SPLIT: PAO cut-off radius determined from an
SPLIT: energy shift=  0.002000 Ry

   izeta = 1
                 lambda =    1.000000
                     rc =    6.518340
                 energy =   -0.475305
                kinetic =    0.912139
    potential(screened) =   -1.387444
       potential(ionic) =   -1.907295

   izeta = 2
                 rmatch =    2.141150
              splitnorm =    0.620000
                 energy =    0.566467
                kinetic =    3.772856
    potential(screened) =   -3.206389
       potential(ionic) =   -3.759093

POLgen: Perturbative polarization orbital with L=  1

POLgen: Polarization orbital for state 1s

   izeta = 1
                     rc =    6.518340
                 energy =    0.533861
                kinetic =    1.121086
    potential(screened) =   -0.587225
       potential(ionic) =   -1.053027
atom: Total number of Sankey-type orbitals:  5

atm_pop: Valence configuration (for local Pseudopot. screening):
 1s( 1.00)                                                            
Vna: chval, zval:    1.00000   1.00000

Vna:  Cut-off radius for the neutral-atom potential:   6.518340

atom: _________________________________________________________________________

<basis_specs>
===============================================================================
N                    Z=   7    Mass=  14.010        Charge= 0.17977+309
Lmxo=1 Lmxkb= 3    BasisType=split      Semic=F
L=0  Nsemic=0  Cnfigmx=2
          i=1  nzeta=2  polorb=0  (2s)
            splnorm:   0.28000    
               vcte:    0.0000    
               rinn:    0.0000    
               qcoe:    0.0000    
               qyuk:    0.0000    
               qwid:   0.10000E-01
                rcs:    0.0000      0.0000    
            lambdas:    1.0000      1.0000    
L=1  Nsemic=0  Cnfigmx=2
          i=1  nzeta=2  polorb=1  (2p)
            splnorm:   0.28000    
               vcte:    0.0000    
               rinn:    0.0000    
               qcoe:    0.0000    
               qyuk:    0.0000    
               qwid:   0.10000E-01
                rcs:    0.0000      0.0000    
            lambdas:    1.0000      1.0000    
-------------------------------------------------------------------------------
L=0  Nkbl=1  erefs: 0.17977+309
L=1  Nkbl=1  erefs: 0.17977+309
L=2  Nkbl=1  erefs: 0.17977+309
L=3  Nkbl=1  erefs: 0.17977+309
===============================================================================
</basis_specs>

atom: Called for N                     (Z =   7)

read_vps: Pseudopotential generation method:
read_vps: ATM4.2.7  Troullier-Martins                       
Valence charge for ps generation:    5.00000

xc_check: Exchange-correlation functional:
xc_check: GGA Perdew, Burke & Ernzerhof 1996
V l=0 = -2*Zval/r beyond r=  1.2889
V l=1 = -2*Zval/r beyond r=  1.2889
V l=2 = -2*Zval/r beyond r=  3.4178
V l=3 = -2*Zval/r beyond r=  2.4084
All V_l potentials equal beyond r=  3.3753
This should be close to max(r_c) in ps generation
All pots = -2*Zval/r beyond r=  3.4178

VLOCAL1: 99.0% of the norm of Vloc inside      3.810 Ry
VLOCAL1: 99.9% of the norm of Vloc inside      8.683 Ry
atom: Maximum radius for 4*pi*r*r*local-pseudopot. charge    4.02088
atom: Maximum radius for r*vlocal+2*Zval:    3.54838
GHOST: No ghost state for L =  0
GHOST: No ghost state for L =  1
GHOST: No ghost state for L =  2
GHOST: No ghost state for L =  3

KBgen: Kleinman-Bylander projectors: 
   l= 0   rc=  3.417763   el= -1.365098   Ekb= -4.433130   kbcos= -0.707855
   l= 1   rc=  3.375302   el= -0.521201   Ekb=-13.264039   kbcos= -0.535594
   l= 2   rc=  3.872880   el=  0.001991   Ekb= -0.641094   kbcos= -0.062456
   l= 3   rc=  3.970931   el=  0.003093   Ekb= -0.474517   kbcos= -0.018236

KBgen: Total number of Kleinman-Bylander projectors:   16
atom: -------------------------------------------------------------------------

atom: SANKEY-TYPE ORBITALS:
atom: Selected multiple-zeta basis: split     

SPLIT: Orbitals with angular momentum L= 0

SPLIT: Basis orbitals for state 2s

SPLIT: PAO cut-off radius determined from an
SPLIT: energy shift=  0.002000 Ry

   izeta = 1
                 lambda =    1.000000
                     rc =    4.730425
                 energy =   -1.363399
                kinetic =    1.245246
    potential(screened) =   -2.608645
       potential(ionic) =   -8.121105

   izeta = 2
                 rmatch =    2.531849
              splitnorm =    0.280000
                 energy =   -0.959908
                kinetic =    2.409435
    potential(screened) =   -3.369343
       potential(ionic) =   -9.427975

SPLIT: Orbitals with angular momentum L= 1

SPLIT: Basis orbitals for state 2p

SPLIT: PAO cut-off radius determined from an
SPLIT: energy shift=  0.002000 Ry

   izeta = 1
                 lambda =    1.000000
                     rc =    5.924108
                 energy =   -0.519262
                kinetic =    3.672940
    potential(screened) =   -4.192202
       potential(ionic) =   -9.518354

   izeta = 2
                 rmatch =    2.531849
              splitnorm =    0.280000
                 energy =   -0.104258
                kinetic =    6.807538
    potential(screened) =   -6.911796
       potential(ionic) =  -13.149920

POLgen: Perturbative polarization orbital with L=  2

POLgen: Polarization orbital for state 2p

   izeta = 1
                     rc =    5.924108
                 energy =    1.427508
                kinetic =    2.872379
    potential(screened) =   -1.444871
       potential(ionic) =   -5.563644
atom: Total number of Sankey-type orbitals: 13

atm_pop: Valence configuration (for local Pseudopot. screening):
 2s( 2.00)                                                            
 2p( 3.00)                                                            
Vna: chval, zval:    5.00000   5.00000

Vna:  Cut-off radius for the neutral-atom potential:   5.924108

atom: _________________________________________________________________________

<basis_specs>
===============================================================================
Si                   Z=  14    Mass=  28.090        Charge= 0.17977+309
Lmxo=1 Lmxkb= 3    BasisType=split      Semic=F
L=0  Nsemic=0  Cnfigmx=3
          i=1  nzeta=2  polorb=0  (3s)
            splnorm:   0.28000    
               vcte:    0.0000    
               rinn:    0.0000    
               qcoe:    0.0000    
               qyuk:    0.0000    
               qwid:   0.10000E-01
                rcs:    0.0000      0.0000    
            lambdas:    1.0000      1.0000    
L=1  Nsemic=0  Cnfigmx=3
          i=1  nzeta=2  polorb=1  (3p)
            splnorm:   0.28000    
               vcte:    0.0000    
               rinn:    0.0000    
               qcoe:    0.0000    
               qyuk:    0.0000    
               qwid:   0.10000E-01
                rcs:    0.0000      0.0000    
            lambdas:    1.0000      1.0000    
-------------------------------------------------------------------------------
L=0  Nkbl=1  erefs: 0.17977+309
L=1  Nkbl=1  erefs: 0.17977+309
L=2  Nkbl=1  erefs: 0.17977+309
L=3  Nkbl=1  erefs: 0.17977+309
===============================================================================
</basis_specs>

atom: Called for Si                    (Z =  14)

read_vps: Pseudopotential generation method:
read_vps: ATM4.2.7  Troullier-Martins                       
Valence charge for ps generation:    4.00000

xc_check: Exchange-correlation functional:
xc_check: GGA Perdew, Burke & Ernzerhof 1996
V l=0 = -2*Zval/r beyond r=  2.7826
V l=1 = -2*Zval/r beyond r=  2.7826
V l=2 = -2*Zval/r beyond r=  2.9253
V l=3 = -2*Zval/r beyond r=  2.7826
All V_l potentials equal beyond r=  2.8530
This should be close to max(r_c) in ps generation
All pots = -2*Zval/r beyond r=  2.9253

VLOCAL1: 99.0% of the norm of Vloc inside      5.333 Ry
VLOCAL1: 99.9% of the norm of Vloc inside     12.154 Ry
atom: Maximum radius for 4*pi*r*r*local-pseudopot. charge    3.39869
atom: Maximum radius for r*vlocal+2*Zval:    2.96205
GHOST: No ghost state for L =  0
GHOST: No ghost state for L =  1
GHOST: No ghost state for L =  2
GHOST: No ghost state for L =  3

KBgen: Kleinman-Bylander projectors: 
   l= 0   rc=  3.075247   el= -0.794092   Ekb=  5.879390   kbcos=  0.167461
   l= 1   rc=  3.153101   el= -0.300068   Ekb=  2.642817   kbcos=  0.058301
   l= 2   rc=  3.273594   el=  0.001958   Ekb= -1.185135   kbcos= -0.104411
   l= 3   rc=  3.232927   el=  0.003046   Ekb= -0.497174   kbcos= -0.015889

KBgen: Total number of Kleinman-Bylander projectors:   16
atom: -------------------------------------------------------------------------

atom: SANKEY-TYPE ORBITALS:
atom: Selected multiple-zeta basis: split     

SPLIT: Orbitals with angular momentum L= 0

SPLIT: Basis orbitals for state 3s

SPLIT: PAO cut-off radius determined from an
SPLIT: energy shift=  0.002000 Ry

   izeta = 1
                 lambda =    1.000000
                     rc =    6.429618
                 energy =   -0.792283
                kinetic =    0.525293
    potential(screened) =   -1.317576
       potential(ionic) =   -3.744923

   izeta = 2
                 rmatch =    3.998416
              splitnorm =    0.280000
                 energy =   -0.583081
                kinetic =    1.069570
    potential(screened) =   -1.652651
       potential(ionic) =   -4.235185

SPLIT: Orbitals with angular momentum L= 1

SPLIT: Basis orbitals for state 3p

SPLIT: PAO cut-off radius determined from an
SPLIT: energy shift=  0.002000 Ry

   izeta = 1
                 lambda =    1.000000
                     rc =    8.464845
                 energy =   -0.298236
                kinetic =    0.785360
    potential(screened) =   -1.083596
       potential(ionic) =   -3.273779

   izeta = 2
                 rmatch =    4.587816
              splitnorm =    0.280000
                 energy =   -0.131871
                kinetic =    1.403687
    potential(screened) =   -1.535557
       potential(ionic) =   -4.015310

POLgen: Perturbative polarization orbital with L=  2

POLgen: Polarization orbital for state 3p

   izeta = 1
                     rc =    8.464845
                 energy =    0.321949
                kinetic =    1.055677
    potential(screened) =   -0.733728
       potential(ionic) =   -2.672950
atom: Total number of Sankey-type orbitals: 13

atm_pop: Valence configuration (for local Pseudopot. screening):
 3s( 2.00)                                                            
 3p( 2.00)                                                            
Vna: chval, zval:    4.00000   4.00000

Vna:  Cut-off radius for the neutral-atom potential:   8.464845

atom: _________________________________________________________________________

<basis_specs>
===============================================================================
O                    Z=   8    Mass=  16.000        Charge= 0.17977+309
Lmxo=1 Lmxkb= 3    BasisType=split      Semic=F
L=0  Nsemic=0  Cnfigmx=2
          i=1  nzeta=2  polorb=0  (2s)
            splnorm:   0.28000    
               vcte:    0.0000    
               rinn:    0.0000    
               qcoe:    0.0000    
               qyuk:    0.0000    
               qwid:   0.10000E-01
                rcs:    0.0000      0.0000    
            lambdas:    1.0000      1.0000    
L=1  Nsemic=0  Cnfigmx=2
          i=1  nzeta=2  polorb=1  (2p)
            splnorm:   0.28000    
               vcte:    0.0000    
               rinn:    0.0000    
               qcoe:    0.0000    
               qyuk:    0.0000    
               qwid:   0.10000E-01
                rcs:    0.0000      0.0000    
            lambdas:    1.0000      1.0000    
-------------------------------------------------------------------------------
L=0  Nkbl=1  erefs: 0.17977+309
L=1  Nkbl=1  erefs: 0.17977+309
L=2  Nkbl=1  erefs: 0.17977+309
L=3  Nkbl=1  erefs: 0.17977+309
===============================================================================
</basis_specs>

atom: Called for O                     (Z =   8)

read_vps: Pseudopotential generation method:
read_vps: ATM4.2.7  Troullier-Martins                       
Valence charge for ps generation:    6.00000

xc_check: Exchange-correlation functional:
xc_check: GGA Perdew, Burke & Ernzerhof 1996
V l=0 = -2*Zval/r beyond r=  1.1000
V l=1 = -2*Zval/r beyond r=  1.1000
V l=2 = -2*Zval/r beyond r=  2.2154
V l=3 = -2*Zval/r beyond r=  1.1000
All V_l potentials equal beyond r=  2.2154
This should be close to max(r_c) in ps generation
All pots = -2*Zval/r beyond r=  2.2154

VLOCAL1: 99.0% of the norm of Vloc inside      8.845 Ry
VLOCAL1: 99.9% of the norm of Vloc inside     20.157 Ry
atom: Maximum radius for 4*pi*r*r*local-pseudopot. charge    2.67231
atom: Maximum radius for r*vlocal+2*Zval:    2.32897
GHOST: No ghost state for L =  0
GHOST: No ghost state for L =  1
GHOST: No ghost state for L =  2
GHOST: No ghost state for L =  3

KBgen: Kleinman-Bylander projectors: 
   l= 0   rc=  2.243238   el= -1.759686   Ekb=**********   kbcos= -0.171774
   l= 1   rc=  2.328968   el= -0.663873   Ekb=-14.506792   kbcos= -0.519897
   l= 2   rc=  2.573941   el=  0.002031   Ekb= -1.137373   kbcos= -0.019581
   l= 3   rc=  2.606321   el=  0.003153   Ekb= -1.013546   kbcos= -0.003122

KBgen: Total number of Kleinman-Bylander projectors:   16
atom: -------------------------------------------------------------------------

atom: SANKEY-TYPE ORBITALS:
atom: Selected multiple-zeta basis: split     

SPLIT: Orbitals with angular momentum L= 0

SPLIT: Basis orbitals for state 2s

SPLIT: PAO cut-off radius determined from an
SPLIT: energy shift=  0.002000 Ry

   izeta = 1
                 lambda =    1.000000
                     rc =    4.243912
                 energy =   -1.758270
                kinetic =    3.286084
    potential(screened) =   -5.044353
       potential(ionic) =  -12.921184

   izeta = 2
                 rmatch =    2.187845
              splitnorm =    0.280000
                 energy =   -0.885018
                kinetic =    8.134434
    potential(screened) =   -9.019452
       potential(ionic) =  -17.710645

SPLIT: Orbitals with angular momentum L= 1

SPLIT: Basis orbitals for state 2p

SPLIT: PAO cut-off radius determined from an
SPLIT: energy shift=  0.002000 Ry

   izeta = 1
                 lambda =    1.000000
                     rc =    5.314825
                 energy =   -0.661986
                kinetic =    4.917472
    potential(screened) =   -5.579458
       potential(ionic) =  -13.236259

   izeta = 2
                 rmatch =    2.160663
              splitnorm =    0.280000
                 energy =   -0.068760
                kinetic =    9.183374
    potential(screened) =   -9.252135
       potential(ionic) =  -18.274251

POLgen: Perturbative polarization orbital with L=  2

POLgen: Polarization orbital for state 2p

   izeta = 1
                     rc =    5.314825
                 energy =    1.970580
                kinetic =    3.886128
    potential(screened) =   -1.915547
       potential(ionic) =   -7.749584
atom: Total number of Sankey-type orbitals: 13

atm_pop: Valence configuration (for local Pseudopot. screening):
 2s( 2.00)                                                            
 2p( 4.00)                                                            
Vna: chval, zval:    6.00000   6.00000

Vna:  Cut-off radius for the neutral-atom potential:   5.314825

atom: _________________________________________________________________________

prinput: Basis input ----------------------------------------------------------

PAO.BasisType split     

%block ChemicalSpeciesLabel
    1    1 H                       # Species index, atomic number, species label
    2    7 N                       # Species index, atomic number, species label
    3   14 Si                      # Species index, atomic number, species label
    4    8 O                       # Species index, atomic number, species label
%endblock ChemicalSpeciesLabel

%block PAO.Basis                 # Define Basis set
H                     1                    # Species label, number of l-shells
 n=1   0   2 P   1                   # n, l, Nzeta, Polarization, NzetaPol
   6.518      2.141   
   1.000      1.000   
N                     2                    # Species label, number of l-shells
 n=2   0   2                         # n, l, Nzeta 
   4.730      2.532   
   1.000      1.000   
 n=2   1   2 P   1                   # n, l, Nzeta, Polarization, NzetaPol
   5.924      2.532   
   1.000      1.000   
Si                    2                    # Species label, number of l-shells
 n=3   0   2                         # n, l, Nzeta 
   6.430      3.998   
   1.000      1.000   
 n=3   1   2 P   1                   # n, l, Nzeta, Polarization, NzetaPol
   8.465      4.588   
   1.000      1.000   
O                     2                    # Species label, number of l-shells
 n=2   0   2                         # n, l, Nzeta 
   4.244      2.188   
   1.000      1.000   
 n=2   1   2 P   1                   # n, l, Nzeta, Polarization, NzetaPol
   5.315      2.161   
   1.000      1.000   
%endblock PAO.Basis

prinput: ----------------------------------------------------------------------

Dumping basis to NetCDF file H.ion.nc
Dumping basis to NetCDF file N.ion.nc
Dumping basis to NetCDF file Si.ion.nc
Dumping basis to NetCDF file O.ion.nc
coor:   Atomic-coordinates input format  =     Cartesian coordinates
coor:                                          (in Angstroms)

siesta: Atomic coordinates (Bohr) and species
siesta:      4.31792  -9.81768   0.00000  1        1
siesta:      2.59711  -8.81503   0.00000  2        2
siesta:     -0.41253 -10.38326   0.00000  3        3
siesta:     -0.33040 -13.20006   0.00000  1        4
siesta:     -3.14019  -8.66630   0.00000  2        5
siesta:     -2.06030  -5.43214   0.00000  3        6
siesta:     -2.89201  -1.33728   0.00000  3        7
siesta:     -5.94160  -0.17360   0.00000  2        8
siesta:     -6.43014   1.81127   0.00000  1        9
siesta:     -7.46581  -1.44982   0.00000  1       10
siesta:     -0.33706   0.78140   0.00000  2       11
siesta:      2.82552  -0.08957   0.00000  3       12
siesta:      4.64124   2.09244   0.00000  1       13
siesta:      4.35491  -2.99662   0.00000  2       14
siesta:      2.09241  -5.37836   0.00000  3       15
siesta:      0.35733  19.42757   0.00000  1       16
siesta:     -1.17092  18.11949   0.00000  2       17
siesta:     -4.30142  19.46709   0.00000  3       18
siesta:     -4.11837  22.32195   0.00000  1       19
siesta:     -7.56338  16.92909   0.00000  3       20
siesta:    -12.01266  16.91400   0.00000  3       21
siesta:    -13.07547  18.30199  -2.27113  1       22
siesta:    -12.57922  14.11892  -0.16286  1       23
siesta:    -13.07569  17.98138   2.43425  1       24
siesta:     -5.80709  13.01628   0.00000  3       25
siesta:     -7.60132  10.58130   0.00000  4       26
siesta:     -2.42269  12.68797   0.00000  2       27
siesta:     -1.79721  10.73710   0.00000  1       28
siesta:      0.04994  14.94533   0.00000  3       29
siesta:      3.00913  14.44031   0.00000  4       30

siesta: Automatic unit cell vectors (Ang):
siesta:   18.491910    0.000000    0.000000
siesta:    0.000000   28.265756    0.000000
siesta:    0.000000    0.000000   10.327559

siesta: System type = molecule  

initatomlists: Number of atoms, orbitals, and projectors:     30   302   403

siesta: ******************** Simulation parameters ****************************
siesta:
siesta: The following are some of the parameters of the simulation.
siesta: A complete list of the parameters used, including default values,
siesta: can be found in file out.fdf
siesta:
redata: Spin configuration                          = spin-orbit
redata: Number of spin components                   = 8
redata: Time-Reversal Symmetry                      = F
redata: Spin spiral                                 = F
############################################################
This spin-orbit implementation uses a local approximation.
From 4.2 and onwards the full non-local approximation is implemented
You are strongly advised to use >=4.2 versions!
############################################################
redata: Long output                                 =   F
redata: Number of Atomic Species                    =        4
redata: Charge density info will appear in .RHO file
redata: Write Mulliken Pop.                         = NO
redata: Matel table size (NRTAB)                    =     1024
redata: Mesh Cutoff                                 =   340.0000 Ry
redata: Net charge of the system                    =     0.0000 |e|
redata: Min. number of SCF Iter                     =        1
redata: Max. number of SCF Iter                     =      300
redata: SCF convergence failure will abort job
redata: SCF mix quantity                            = Hamiltonian
redata: Mix DM or H after convergence               =   F
redata: Recompute H after scf cycle                 =   F
redata: Mix DM in first SCF step                    =   T
redata: Write Pulay info on disk                    =   F
redata: New DM Occupancy tolerance                  = 0.000000000001
redata: No kicks to SCF
redata: DM Mixing Weight for Kicks                  =     0.5000
redata: Require Harris convergence for SCF          =   F
redata: Harris energy tolerance for SCF             =     0.000100 eV
redata: Require DM convergence for SCF              =   T
redata: DM tolerance for SCF                        =     0.000008
redata: Require EDM convergence for SCF             =   F
redata: EDM tolerance for SCF                       =     0.001000 eV
redata: Require H convergence for SCF               =   T
redata: Hamiltonian tolerance for SCF               =     0.000001 eV
redata: Require (free) Energy convergence for SCF   =   F
redata: (free) Energy tolerance for SCF             =     0.000100 eV
redata: Using Saved Data (generic)                  =   F
redata: Use continuation files for DM               =   T
redata: Neglect nonoverlap interactions             =   F
redata: Method of Calculation                       = Diagonalization
redata: Electronic Temperature                      =   299.9978 K
redata: Fix the spin of the system                  =   F
redata: Dynamics option                             = Verlet MD run
redata: Initial MD time step                        =        1
redata:   Final MD time step                        =        1
redata: Length of MD time step                      =     0.5000 fs
redata: Initial Temperature of MD run               =     0.0000 K
redata: Perform a MD quench                         =   F
mix.SCF: Pulay mixing                            = Pulay
mix.SCF:    Variant                              = stable
mix.SCF:    History steps                        = 6
mix.SCF:    Linear mixing weight                 =     0.250000
mix.SCF:    Mixing weight                        =     0.250000
mix.SCF:    SVD condition                        = 0.1000E-07
mix.SCF:    Restart steps                        = 24
mix.SCF:    Restart save steps                   = 3
mix.SCF: Spin-component mixing                   all
redata: Save all siesta data in one NC              =   F
redata: ***********************************************************************

%block SCF.Mixers
  Pulay
%endblock SCF.Mixers

%block SCF.Mixer.Pulay
  # Mixing method
  method pulay
  variant stable

  # Mixing options
  weight 0.2500
  weight.linear 0.2500
  history 6
  restart 24
  restart.save 3
%endblock SCF.Mixer.Pulay

Size of DM history Fstack: 3
Total number of electrons:    98.000000
Total ionic charge:    98.000000

* ProcessorY, Blocksize:    4   9


* Orbital distribution balance (max,min):    18     9


Time-reversal symmetry not used.

siesta: k-grid: Number of k-points =     1
siesta: k-grid: Cutoff (effective) =     5.164 Ang
siesta: k-grid: Supercell and displacements
siesta: k-grid:    1   0   0      0.000
siesta: k-grid:    0   1   0      0.000
siesta: k-grid:    0   0   1      0.000

diag: Algorithm                                     = ELPA-1stage
diag: Parallel over k                               =   F
diag: Use parallel 2D distribution                  =   T
diag: Parallel block-size                           = 9
diag: Parallel distribution                         =     4 x     8
diag: Used triangular part                          = Lower
diag: Absolute tolerance                            =  0.100E-15
diag: Orthogonalization factor                      =  0.100E-05
diag: Memory factor                                 =  1.0000


ts: **************************************************************
ts: Save H and S matrices                           =    F
ts: Save DM and EDM matrices                        =    F
ts: Only save the overlap matrix S                  =    F
ts: **************************************************************

************************ Begin: TS CHECKS AND WARNINGS ************************
************************ End: TS CHECKS AND WARNINGS **************************


                     ====================================
                        Begin MD step =      1
                     ====================================

outcoor: Atomic coordinates (Ang):                          
    2.28494382   -5.19529124    0.00000000   1       1  H
    1.37433094   -4.66471070    0.00000000   2       2  N
   -0.21830245   -5.49458215    0.00000000   3       3  Si
   -0.17484108   -6.98516892    0.00000000   1       4  H
   -1.66171682   -4.58600741    0.00000000   2       5  N
   -1.09026419   -2.87456374    0.00000000   3       6  Si
   -1.53038332   -0.70765692    0.00000000   3       7  Si
   -3.14415959   -0.09186471    0.00000000   2       8  N
   -3.40268075    0.95848335    0.00000000   1       9  H
   -3.95073599   -0.76720972    0.00000000   1      10  H
   -0.17836637    0.41349951    0.00000000   2      11  N
    1.49520211   -0.04739960    0.00000000   3      12  Si
    2.45603905    1.10727302    0.00000000   1      13  H
    2.30451743   -1.58574382    0.00000000   2      14  N
    1.10725559   -2.84610319    0.00000000   3      15  Si
    0.18908903   10.28062155    0.00000000   1      16  H
   -0.61962165    9.58841567    0.00000000   2      17  N
   -2.27621149   10.30153577    0.00000000   3      18  Si
   -2.17934632   11.81226098    0.00000000   1      19  H
   -4.00236784    8.95848764    0.00000000   3      20  Si
   -6.35682209    8.95050071    0.00000000   3      21  Si
   -6.91924021    9.68499036   -1.20183078   1      22  H
   -6.65663584    7.47140958   -0.08618332   1      23  H
   -6.91935267    9.51533317    1.28814761   1      24  H
   -3.07297720    6.88791641    0.00000000   3      25  Si
   -4.02244556    5.59938028    0.00000000   4      26  O
   -1.28203233    6.71418094    0.00000000   2      27  N
   -0.95104097    5.68182396    0.00000000   1      28  H
    0.02642589    7.90872736    0.00000000   3      29  Si
    1.59236282    7.64148051    0.00000000   4      30  O

outcell: Unit cell vectors (Ang):
       18.491910    0.000000    0.000000
        0.000000   28.265756    0.000000
        0.000000    0.000000   10.327559

outcell: Cell vector modules (Ang)   :   18.491910   28.265756   10.327559
outcell: Cell angles (23,13,12) (deg):     90.0000     90.0000     90.0000
outcell: Cell volume (Ang**3)        :   5398.0892
<dSpData1D:S at geom step 1
  <sparsity:sparsity for geom step 1
    nrows_g=302 nrows=18 sparsity=.0279 nnzs=2543, refcount: 8>
  <dData1D:(new from dSpData1D) n=2543, refcount: 1>
refcount: 1>
new_DM -- step:     1
Initializing Density Matrix...

Attempting to read DM from file... Failed...
DM filled with atomic data:
<dSpData2D:DM initialized from atoms
  <sparsity:sparsity for geom step 1
    nrows_g=302 nrows=18 sparsity=.0279 nnzs=2543, refcount: 9>
  <dData2D:DM n=2543 m=8, refcount: 1>
refcount: 1>
     spin moment: S , {S} =   56.00000   0.00000   0.00000  56.00000
No. of atoms with KB's overlaping orbs in proc 0. Max # of overlaps:      20     134

Initializing spin-orbit part of the Hamiltonian
  Adding spin-orbit effects for H 
  Adding spin-orbit effects for N 
  Adding spin-orbit effects for Si
  Adding spin-orbit effects for O 


New grid distribution:   1
           1       1:  108    1:   40    1:    8
           2       1:  108    1:   40    9:   16
           3       1:  108    1:   40   17:   24
           4       1:  108    1:   40   25:   32
           5       1:  108    1:   40   33:   39
           6       1:  108    1:   40   40:   46
           7       1:  108    1:   40   47:   53
           8       1:  108    1:   40   54:   60
           9       1:  108   41:   80    1:    8
          10       1:  108   41:   80    9:   16
          11       1:  108   41:   80   17:   24
          12       1:  108   41:   80   25:   32
          13       1:  108   41:   80   33:   39
          14       1:  108   41:   80   40:   46
          15       1:  108   41:   80   47:   53
          16       1:  108   41:   80   54:   60
          17       1:  108   81:  120    1:    8
          18       1:  108   81:  120    9:   16
          19       1:  108   81:  120   17:   24
          20       1:  108   81:  120   25:   32
          21       1:  108   81:  120   33:   39
          22       1:  108   81:  120   40:   46
          23       1:  108   81:  120   47:   53
          24       1:  108   81:  120   54:   60
          25       1:  108  121:  160    1:    8
          26       1:  108  121:  160    9:   16
          27       1:  108  121:  160   17:   24
          28       1:  108  121:  160   25:   32
          29       1:  108  121:  160   33:   39
          30       1:  108  121:  160   40:   46
          31       1:  108  121:  160   47:   53
          32       1:  108  121:  160   54:   60

InitMesh: MESH =   216 x   320 x   120 =     8294400
InitMesh: (bp) =   108 x   160 x    60 =     1036800
InitMesh: Mesh cutoff (required, used) =   340.000   354.226 Ry
ExtMesh (bp) on 0 =   216 x   144 x   116 =     3608064
New grid distribution:   2
           1       1:   71   43:   59    1:   22
           2      88:   98    1:   42    1:   18
           3      98:  108   43:   59    1:   21
           4      23:   87    1:   42   20:   60
           5      22:   87    1:   42    1:   19
           6      88:   98    1:   42   19:   60
           7      99:  108    1:   42    1:   18
           8     100:  108  141:  160    1:   21
           9      10:   81   60:  141    1:   20
          10     100:  108   60:  140    1:   20
          11      72:   87   43:   59    1:   22
          12     100:  108   60:  140   21:   60
          13       1:   71   43:   59   23:   60
          14      99:  108    1:   42   19:   60
          15      72:   87   43:   59   23:   60
          16      88:   97   43:   59   22:   60
          17      82:   99   60:  140    1:   20
          18       1:    9   60:  141    1:   20
          19      88:   97   43:   59    1:   21
          20      10:   81   60:  141   21:   60
          21      82:   99   60:  140   21:   60
          22       1:    9   60:  141   21:   60
          23      98:  108   43:   59   22:   60
          24       1:    9  142:  160    1:   20
          25      10:   81  142:  160    1:   20
          26      82:   99  141:  160    1:   21
          27       1:    9  142:  160   21:   60
          28      10:   81  142:  160   21:   60
          29       1:   22    1:   42   20:   60
          30       1:   21    1:   42    1:   19
          31      82:   99  141:  160   22:   60
          32     100:  108  141:  160   22:   60
New grid distribution:   3
           1       1:   47   38:   59    1:   25
           2       1:   15    1:   37   25:   60
           3      73:   91    1:   33    1:   24
           4      16:   72    1:   37   25:   60
           5      16:   72    1:   37    1:   24
           6      73:   91    1:   33   25:   60
           7      92:  108    1:   33   25:   60
           8      92:  108    1:   33    1:   24
           9      16:   76   60:  130    1:   25
          10      73:   90   34:   59   27:   60
          11      48:   72   38:   59    1:   25
          12       1:   48   38:   59   26:   60
          13      17:   76  131:  160    1:   25
          14      96:  108   60:  126    1:   24
          15      49:   72   38:   59   26:   60
          16       1:   15    1:   37    1:   24
          17      77:   95   60:  126    1:   24
          18      91:  108   34:   59   27:   60
          19      73:   90   34:   59    1:   26
          20      17:   76   60:  130   26:   60
          21      77:   96   60:  126   25:   60
          22      97:  108   60:  126   25:   60
          23      96:  108  127:  160   26:   60
          24      91:  108   34:   59    1:   26
          25       1:   15   60:  130    1:   25
          26      77:   94  127:  160    1:   25
          27       1:   16  131:  160    1:   25
          28      16:   76  131:  160   26:   60
          29       1:   16   60:  130   26:   60
          30      77:   95  127:  160   26:   60
          31       1:   15  131:  160   26:   60
          32      95:  108  127:  160    1:   25
Setting up quadratic distribution...
ExtMesh (bp) on 0 =   179 x   121 x   130 =     2815670
PhiOnMesh: Number of (b)points on node 0 =                26554
PhiOnMesh: nlist on node 0 =               400672

stepf: Fermi-Dirac step function

siesta: Program's energy decomposition (eV):
siesta: Ebs     =      -645.331384
siesta: Eions   =      3553.971015
siesta: Ena     =       374.984503
siesta: Ekin    =      3171.124729
siesta: Enl     =     -2984.528275
siesta: Eso     =        -0.003882
siesta: Edftu   =         0.000000
siesta: DEna    =       129.739892
siesta: DUscf   =        75.674681
siesta: DUext   =         0.000000
siesta: Exc     =     -1168.587606
siesta: eta*DQ  =         0.000000
siesta: Emadel  =         0.000000
siesta: Emeta   =         0.000000
siesta: Emolmec =         0.000000
siesta: Ekinion =         0.000000
siesta: Eharris =     -3884.499608
siesta: Etot    =     -3955.566972
siesta: FreeEng =     -3955.570280

        iscf     Eharris(eV)        E_KS(eV)     FreeEng(eV)     dDmax    Ef(eV) dHmax(eV)
   scf:    1    -3884.499608    -3955.566972    -3955.570280  0.970589 -4.935249 21.507023
     spin moment: S , {S} =    2.02349  -0.00000  -0.00000   2.02349
timer: Routine,Calls,Time,% = IterSCF        1       4.130  10.06
   scf:    2    -3997.108107    -3988.964931    -3988.964945  0.466670 -4.301061 11.655174
     spin moment: S , {S} =    2.00006   0.00000  -0.00000   2.00006
   scf:    3    -3962.350453    -3986.557573    -3986.588194  0.419651 -4.194159 11.118548
     spin moment: S , {S} =    1.90090  -0.00000  -0.00001   1.90090
   scf:    4    -4002.046911    -3997.240929    -3997.240930  0.231386 -3.922086  6.271662
     spin moment: S , {S} =    0.00010  -0.00000   0.00000   0.00010
   scf:    5    -3998.615194    -3998.009189    -3998.009189  0.039208 -3.830007  3.902491
     spin moment: S , {S} =    0.00006  -0.00000   0.00000   0.00006
   scf:    6    -3998.779195    -3998.396901    -3998.396901  0.025724 -3.814880  1.977641
     spin moment: S , {S} =    0.00003  -0.00000   0.00000   0.00003
   scf:    7    -3998.785011    -3998.584519    -3998.584519  0.022814 -3.873763  0.719740
     spin moment: S , {S} =    0.00001  -0.00000   0.00000   0.00001
   scf:    8    -3998.712338    -3998.645979    -3998.645979  0.012257 -3.909680  0.441114
     spin moment: S , {S} =    0.00000  -0.00000   0.00000   0.00000
   scf:    9    -3998.694518    -3998.669143    -3998.669143  0.007060 -3.928488  0.347526
     spin moment: S , {S} =    0.00000  -0.00000   0.00000   0.00000
   scf:   10    -3998.726642    -3998.690228    -3998.690228  0.021570 -3.952520  0.185519
     spin moment: S , {S} =    0.00000  -0.00000  -0.00000  -0.00000
   scf:   11    -3998.694005    -3998.692223    -3998.692224  0.004351 -3.940233  0.059795
     spin moment: S , {S} =    0.00000  -0.00000  -0.00000  -0.00000
   scf:   12    -3998.692840    -3998.692551    -3998.692552  0.001481 -3.938131  0.035365
     spin moment: S , {S} =    0.00000  -0.00000  -0.00000  -0.00000
   scf:   13    -3998.693016    -3998.692782    -3998.692782  0.000786 -3.936543  0.018336
     spin moment: S , {S} =    0.00000  -0.00000  -0.00000   0.00000
   scf:   14    -3998.693042    -3998.692907    -3998.692907  0.000976 -3.935712  0.010706
     spin moment: S , {S} =    0.00000  -0.00000  -0.00000   0.00000
   scf:   15    -3998.693020    -3998.692961    -3998.692961  0.000768 -3.935434  0.007514
     spin moment: S , {S} =    0.00000  -0.00000  -0.00000   0.00000
   scf:   16    -3998.693027    -3998.692991    -3998.692991  0.000749 -3.935358  0.004710
     spin moment: S , {S} =    0.00000  -0.00000  -0.00000   0.00000
   scf:   17    -3998.693006    -3998.692998    -3998.692998  0.000357 -3.935429  0.003809
     spin moment: S , {S} =    0.00000  -0.00000  -0.00000   0.00000
   scf:   18    -3998.693005    -3998.693001    -3998.693002  0.000278 -3.935491  0.002512
     spin moment: S , {S} =    0.00000  -0.00000  -0.00000   0.00000
   scf:   19    -3998.693005    -3998.693003    -3998.693003  0.000248 -3.935505  0.001538
     spin moment: S , {S} =    0.00000  -0.00000  -0.00000   0.00000
   scf:   20    -3998.693004    -3998.693004    -3998.693004  0.000106 -3.935519  0.001038
     spin moment: S , {S} =    0.00000   0.00000  -0.00000   0.00000
   scf:   21    -3998.693004    -3998.693004    -3998.693004  0.000095 -3.935523  0.000641
     spin moment: S , {S} =    0.00000   0.00000  -0.00000   0.00000
   scf:   22    -3998.693004    -3998.693004    -3998.693004  0.000089 -3.935542  0.000235
     spin moment: S , {S} =    0.00000   0.00000   0.00000   0.00000
   scf:   23    -3998.693004    -3998.693004    -3998.693004  0.000032 -3.935543  0.000123
     spin moment: S , {S} =    0.00000   0.00000   0.00000   0.00000
   scf:   24    -3998.693004    -3998.693004    -3998.693004  0.000023 -3.935546  0.000065
     spin moment: S , {S} =    0.00000   0.00000   0.00000  -0.00000
mix: Pulay -- resetting history
   scf:   25    -3998.693004    -3998.693004    -3998.693004  0.000013 -3.935540  0.000039
     spin moment: S , {S} =    0.00000   0.00000   0.00000  -0.00000
   scf:   26    -3998.693004    -3998.693004    -3998.693004  0.000002 -3.935540  0.000029
     spin moment: S , {S} =    0.00000   0.00000   0.00000  -0.00000
   scf:   27    -3998.693004    -3998.693004    -3998.693004  0.000002 -3.935537  0.000015
     spin moment: S , {S} =    0.00000   0.00000   0.00000  -0.00000
   scf:   28    -3998.693004    -3998.693004    -3998.693004  0.000001 -3.935537  0.000009
     spin moment: S , {S} =    0.00000   0.00000   0.00000  -0.00000
   scf:   29    -3998.693004    -3998.693004    -3998.693004  0.000000 -3.935536  0.000005
     spin moment: S , {S} =    0.00000   0.00000   0.00000  -0.00000
   scf:   30    -3998.693004    -3998.693004    -3998.693004  0.000000 -3.935536  0.000004
     spin moment: S , {S} =    0.00000   0.00000   0.00000   0.00000
   scf:   31    -3998.693004    -3998.693004    -3998.693004  0.000000 -3.935536  0.000003
     spin moment: S , {S} =    0.00000   0.00000   0.00000   0.00000
   scf:   32    -3998.693004    -3998.693004    -3998.693004  0.000000 -3.935536  0.000002
     spin moment: S , {S} =    0.00000   0.00000   0.00000  -0.00000
   scf:   33    -3998.693004    -3998.693004    -3998.693004  0.000000 -3.935536  0.000001
     spin moment: S , {S} =    0.00000   0.00000   0.00000  -0.00000
   scf:   34    -3998.693004    -3998.693004    -3998.693004  0.000000 -3.935536  0.000001
     spin moment: S , {S} =    0.00000   0.00000   0.00000  -0.00000

SCF Convergence by DM+H criterion
max |DM_out - DM_in|         :     0.0000001876
max |H_out - H_in|      (eV) :     0.0000007665
SCF cycle converged after 34 iterations

Using DM_out to compute the final energy and forces
No. of atoms with KB's overlaping orbs in proc 0. Max # of overlaps:      20     134

siesta: E_KS(eV) =            -3998.6930

siesta: E_KS - E_eggbox =     -3998.6930
     spin moment: S , {S} =    0.00000   0.00000   0.00000  -0.00000

siesta: Atomic forces (eV/Ang):
     1    0.211674   -0.035515   -0.000000
     2   -0.025121    0.052171    0.000000
     3   -0.027469   -0.008393   -0.000000
     4    0.134680    0.060391   -0.000000
     5    0.008317   -0.029343    0.000000
     6   -0.183074    0.018269    0.000000
     7    1.020757   -0.010526   -0.000001
     8   -0.622239    1.394207    0.000000
     9    0.118029   -0.993568   -0.000001
    10   -0.090643    0.082993    0.000001
    11   -0.176093   -0.370044    0.000001
    12   -0.279151    0.049059    0.000000
    13   -0.095440   -0.015974    0.000000
    14   -0.019389   -0.109251   -0.000000
    15    0.104153    0.104150    0.000000
    16   -0.117032   -0.094080   -0.000945
    17    0.058215   -0.093534   -0.000804
    18   -0.163543    0.036141    0.005220
    19    0.082255   -0.087858   -0.001439
    20    0.124135    0.080953   -0.000958
    21    0.031871   -0.027176   -0.006713
    22    0.041681    0.045127    0.102209
    23   -0.001550    0.085203   -0.016742
    24    0.023423    0.111906   -0.078320
    25   -0.643810   -0.392864    0.001026
    26    0.169151   -1.655759    0.000519
    27    0.392120   -0.441070   -0.000560
    28   -0.142956    0.663027   -0.000072
    29    0.127484    0.170463   -0.000226
    30    2.821435    0.167059    0.000261
----------------------------------------
   Tot    2.881870   -1.243838    0.002456
----------------------------------------
   Max    2.821435
   Res    0.436027    sqrt( Sum f_i^2 / 3N )
----------------------------------------
   Max    2.821435    constrained

Stress tensor Voigt[x,y,z,yz,xz,xy] (kbar):        0.29        0.93       -0.03       -0.02        0.00        0.30
(Free)E + p*V (eV/cell)    -4000.0244
Target enthalpy (eV/cell)    -3998.6930

siesta: Stress tensor (static) (eV/Ang**3):
         0.000178    0.000188    0.000001
         0.000188    0.000583   -0.000010
         0.000001   -0.000010   -0.000022

siesta: Pressure (static):         -0.39517176  kBar

siesta: Stress tensor (total) (eV/Ang**3):
         0.000178    0.000188    0.000001
         0.000188    0.000583   -0.000010
         0.000001   -0.000010   -0.000022

siesta: Pressure (total):         -0.39517176  kBar

siesta: Temp_ion =       0.000 K

siesta: Eigenvalues (eV):
ik =     1
  -22.8943  -22.8943  -22.4008  -22.4008  -21.7758  -21.7758  -21.3285  -21.3285  -21.1657  -21.1657
  -21.0341  -21.0341  -19.5297  -19.5297  -19.3802  -19.3802  -18.7422  -18.7422  -15.0539  -15.0539
  -14.1334  -14.1334  -13.7821  -13.7821  -13.6172  -13.6172  -13.1187  -13.1187  -13.0346  -13.0346
  -12.6637  -12.6637  -12.2594  -12.2594  -11.9477  -11.9477  -11.7326  -11.7326  -11.5342  -11.5342
  -11.1121  -11.1121  -10.6604  -10.6604  -10.3445  -10.3445   -9.5782   -9.5782   -9.3350   -9.3350
   -9.2875   -9.2875   -9.1247   -9.1247   -9.0705   -9.0705   -8.9380   -8.9380   -8.6440   -8.6440
   -8.4302   -8.4302   -8.3709   -8.3709   -8.2751   -8.2751   -8.0538   -8.0538   -8.0514   -8.0514
   -7.7609   -7.7609   -7.5151   -7.5151   -7.4384   -7.4384   -7.3174   -7.3174   -6.9639   -6.9639
   -6.9159   -6.9159   -6.7692   -6.7692   -6.5471   -6.5470   -6.3180   -6.3180   -6.3070   -6.3070
   -5.9321   -5.9321   -5.7382   -5.7382   -5.6784   -5.6784   -4.3486   -4.3486   -3.5225   -3.5225
   -2.7296   -2.7296   -2.3182   -2.3182   -2.2438   -2.2438   -2.1611   -2.1611   -2.0831   -2.0831
   -2.0161   -2.0161   -1.8420   -1.8420   -1.7212   -1.7212   -1.6675   -1.6675   -1.5410   -1.5410
   -1.1947   -1.1947   -0.7006   -0.7006   -0.4419   -0.4419   -0.3412   -0.3412   -0.1997   -0.1997
   -0.0319   -0.0319    0.0302    0.0302    0.2155    0.2155    0.4448    0.4448    0.4749    0.4749
    0.5208    0.5208    0.7063    0.7063    1.0861    1.0861    1.1473    1.1473    1.2525    1.2525
    1.4232    1.4232    1.5339    1.5339    1.8025    1.8025    1.9230    1.9230    2.0546    2.0546
    2.3209    2.3209    2.6646    2.6646    2.7090    2.7090    2.7449    2.7449    2.7734    2.7734
    2.9501    2.9501    2.9799    2.9799    3.1190    3.1190    3.2278    3.2278    3.2754    3.2754
    3.5409    3.5409    3.8739    3.8739    4.0789    4.0789    4.0910    4.0910    4.1990    4.1990
    4.3231    4.3231    4.5588    4.5588    4.5763    4.5763    4.7600    4.7600    4.9473    4.9473
    5.0365    5.0365    5.0875    5.0875    5.5340    5.5340    5.6423    5.6423    5.6658    5.6658
    5.7508    5.7508    6.0188    6.0188    6.0333    6.0333    6.1920    6.1920    6.1995    6.1995
    6.5237    6.5237    6.5521    6.5521    6.7869    6.7869    7.0109    7.0109    7.0840    7.0840
    7.1301    7.1301    7.3579    7.3579    7.5261    7.5261    7.8081    7.8081    7.8411    7.8411
    7.9477    7.9477    8.1113    8.1113    8.2507    8.2507    8.2568    8.2568    8.6456    8.6456
    8.8056    8.8056    8.9076    8.9076    8.9377    8.9377    9.1645    9.1645    9.5342    9.5342
    9.5730    9.5730    9.7319    9.7319    9.7662    9.7662    9.7996    9.7996    9.8980    9.8980
   10.1344   10.1344   10.3330   10.3330   10.6094   10.6094   10.8826   10.8826   10.8999   10.8999
   11.2520   11.2520   11.2958   11.2958   11.5518   11.5518   11.5980   11.5980   11.6076   11.6076
   11.8928   11.8928   12.2047   12.2047   12.2943   12.2943   12.3683   12.3683   12.5980   12.5980
   12.8088   12.8088   12.9117   12.9117   13.0101   13.0101   13.1626   13.1626   13.3240   13.3240
   13.3793   13.3793   13.6155   13.6155   14.4465   14.4465   14.6189   14.6189   14.6376   14.6376
   14.6952   14.6952   14.8119   14.8119   15.1310   15.1310   16.0740   16.0740   16.5414   16.5414
   16.6615   16.6615   16.7924   16.7924   16.9918   16.9918   17.1461   17.1461   17.3340   17.3340
   18.1033   18.1033   18.2181   18.2181   18.4581   18.4581   18.7083   18.7083   18.7246   18.7246
   18.7394   18.7394   19.5077   19.5077   19.7806   19.7806   19.9858   19.9858   20.2008   20.2008
   20.6029   20.6029   21.0602   21.0602   21.0909   21.0909   21.6825   21.6825   22.1856   22.1856
   22.2436   22.2436   22.8359   22.8359   22.8706   22.8706   23.0586   23.0586   23.8104   23.8104
   24.5613   24.5613   24.7231   24.7231   24.7975   24.7975   25.6881   25.6881   25.9245   25.9245
   26.0228   26.0228   26.4773   26.4773   26.5115   26.5115   27.7367   27.7367   28.0093   28.0093
   28.3247   28.3247   28.4718   28.4718   29.1755   29.1755   29.4612   29.4612   30.3461   30.3461
   30.7165   30.7165   30.7513   30.7513   30.8311   30.8311   31.2689   31.2689   31.5516   31.5516
   31.7295   31.7295   31.9412   31.9412   32.0542   32.0542   33.3387   33.3387   33.3712   33.3712
   33.6908   33.6908   34.0178   34.0178   34.4481   34.4481   34.7697   34.7697   34.8736   34.8736
   35.4546   35.4546   35.9653   35.9653   36.0310   36.0310   37.0555   37.0555   37.4913   37.4913
   37.5003   37.5003   37.7334   37.7334   38.0383   38.0383   38.3986   38.3986   38.4306   38.4306
   39.0856   39.0856   40.1311   40.1311   40.1874   40.1874   40.7100   40.7100   41.1389   41.1389
   41.6075   41.6075   41.8225   41.8225   41.8324   41.8324   43.2765   43.2765   43.3679   43.3679
   43.7923   43.7923   44.4466   44.4466   44.7485   44.7485   44.9270   44.9270   45.0577   45.0577
   45.5245   45.5245   45.6993   45.6993   45.9532   45.9532   46.4927   46.4927   46.9079   46.9079
   47.0652   47.0652   47.4119   47.4119   48.5169   48.5169   48.7811   48.7811   49.3644   49.3644
   49.6907   49.6907   50.1850   50.1850   50.2023   50.2023   50.3241   50.3241   50.3419   50.3419
   51.7022   51.7022   52.5409   52.5409   52.7253   52.7253   53.8555   53.8555   54.3302   54.3302
   54.7762   54.7762   54.8063   54.8063   55.9587   55.9587   56.0977   56.0977   56.1963   56.1963
   56.8559   56.8559   57.6705   57.6705   57.9569   57.9569   58.3866   58.3866   59.5734   59.5734
   60.0149   60.0149   61.1125   61.1125   61.6247   61.6247   62.8366   62.8366   63.2759   63.2759
   65.1700   65.1700   65.4354   65.4354   66.9564   66.9564   67.2948   67.2948   68.3343   68.3343
   68.4097   68.4097   70.5482   70.5482   71.8833   71.8833   76.4566   76.4566   88.6303   88.6303
   91.8703   91.8703   92.9544   92.9544   94.9868   94.9868   96.5677   96.5677  100.0659  100.0659
  100.7663  100.7663  102.4733  102.4733  114.2473  114.2473  118.3345  118.3345  123.1636  123.1636
  132.4478  132.4478  138.7471  138.7471
siesta: Fermi energy =      -3.935536 eV

siesta: Program's energy decomposition (eV):
siesta: Ebs     =     -1119.910366
siesta: Eions   =      3553.971015
siesta: Ena     =       374.984503
siesta: Ekin    =      2742.927583
siesta: Enl     =     -2522.581640
siesta: Eso     =        -0.004663
siesta: Edftu   =         0.000000
siesta: DEna    =        36.846601
siesta: DUscf   =        13.881709
siesta: DUext   =         0.000000
siesta: Exc     =     -1090.776082
siesta: eta*DQ  =         0.000000
siesta: Emadel  =         0.000000
siesta: Emeta   =         0.000000
siesta: Emolmec =         0.000000
siesta: Ekinion =         0.000000
siesta: Eharris =     -3998.693004
siesta: Etot    =     -3998.693004
siesta: FreeEng =     -3998.693004

siesta: Final energy (eV):
siesta:  Band Struct. =   -1119.910366
siesta:       Kinetic =    2742.927583
siesta:       Hartree =    7388.802429
siesta:       Edftu   =       0.000000
siesta:       Eso     =      -0.004663
siesta:    Ext. field =       0.000000
siesta:   Exch.-corr. =   -1090.776082
siesta:  Ion-electron =  -17224.822303
siesta:       Ion-ion =    4185.180031
siesta:       Ekinion =       0.000000
siesta:         Total =   -3998.693004
siesta:         Fermi =      -3.935536

siesta: Atomic forces (eV/Ang):
siesta:      1    0.211674   -0.035515   -0.000000
siesta:      2   -0.025121    0.052171    0.000000
siesta:      3   -0.027469   -0.008393   -0.000000
siesta:      4    0.134680    0.060391   -0.000000
siesta:      5    0.008317   -0.029343    0.000000
siesta:      6   -0.183074    0.018269    0.000000
siesta:      7    1.020757   -0.010526   -0.000001
siesta:      8   -0.622239    1.394207    0.000000
siesta:      9    0.118029   -0.993568   -0.000001
siesta:     10   -0.090643    0.082993    0.000001
siesta:     11   -0.176093   -0.370044    0.000001
siesta:     12   -0.279151    0.049059    0.000000
siesta:     13   -0.095440   -0.015974    0.000000
siesta:     14   -0.019389   -0.109251   -0.000000
siesta:     15    0.104153    0.104150    0.000000
siesta:     16   -0.117032   -0.094080   -0.000945
siesta:     17    0.058215   -0.093534   -0.000804
siesta:     18   -0.163543    0.036141    0.005220
siesta:     19    0.082255   -0.087858   -0.001439
siesta:     20    0.124135    0.080953   -0.000958
siesta:     21    0.031871   -0.027176   -0.006713
siesta:     22    0.041681    0.045127    0.102209
siesta:     23   -0.001550    0.085203   -0.016742
siesta:     24    0.023423    0.111906   -0.078320
siesta:     25   -0.643810   -0.392864    0.001026
siesta:     26    0.169151   -1.655759    0.000519
siesta:     27    0.392120   -0.441070   -0.000560
siesta:     28   -0.142956    0.663027   -0.000072
siesta:     29    0.127484    0.170463   -0.000226
siesta:     30    2.821435    0.167059    0.000261
siesta: ----------------------------------------
siesta:    Tot    2.881870   -1.243838    0.002456

siesta: Stress tensor (static) (eV/Ang**3):
siesta:     0.000178    0.000188    0.000001
siesta:     0.000188    0.000583   -0.000010
siesta:     0.000001   -0.000010   -0.000022

siesta: Cell volume =       5398.089168 Ang**3

siesta: Pressure (static):
siesta:                Solid            Molecule  Units
siesta:          -0.00000269         -0.00000460  Ry/Bohr**3
siesta:          -0.00024664         -0.00042259  eV/Ang**3
siesta:          -0.39517176         -0.67706943  kBar
(Free)E+ p_basis*V_orbitals  =       -3977.564919
(Free)Eharris+ p_basis*V_orbitals  =       -3977.564919
     spin moment: S , {S} =    0.00000   0.00000   0.00000  -0.00000

siesta: Electric dipole (a.u.)  =   -1.261090    1.658681   -0.001801
siesta: Electric dipole (Debye) =   -3.205373    4.215951   -0.004577

cite: Please see "AT.bib" for an exhaustive BiBTeX file.
cite: Please clearly indicate Siesta version in published work: v4.1.5-1-g384057250
cite: This calculation has made use of the following articles
cite: which are encouraged to be cited in a published work.
        Primary SIESTA paper
          DOI: www.doi.org/10.1088/0953-8984/14/11/302
        Spin-orbit coupling (on-site approximation)
          DOI: www.doi.org/10.1088/0953-8984/19/19/489001


WARNING: alloc-realloc-dealloc name mismatch
         Name: atomlist isa
         Size:              -120. Bytes
         Node:     0
         Subsequent mismatches will not be reported
>> End of run:  16-OCT-2023  20:57:46
Job completed
