Siesta Version  : v4.1.5-1-g384057250
Architecture    : gcc
Compiler version: GNU Fortran (Ubuntu 11.4.0-1ubuntu1~22.04) 11.4.0
Compiler flags  : mpifort -O2 -fPIC -ftree-vectorize -fallow-argument-mismatch
PP flags        : -DFC_HAVE_ABORT -DMPI -DSIESTA__FLOOK -DSIESTA__METIS -DSIESTA__MUMPS -DCDF -DNCDF -DNCDF_4 -DNCDF_PARALLEL -DSIESTA__MRRR -DSIESTA__ELPA
Libraries       : libncdf.a libfdict.a  -lflookall -ldl -lnetcdff -lnetcdf -lhdf5_hl -lhdf5 -lhdf5_fortran -lz -lscalapack-openmpi -lopenblas -lmetis -lzmumps -lcmumps -ldmumps -lmumps_common -lpord -lsmumps -lesmumps -lscotch -lscotcherr -fopenmp -lelpa
PARALLEL version
NetCDF support
NetCDF-4 support
NetCDF-4 MPI-IO support
METIS ordering support
Lua support

* Running on 8 nodes in parallel
>> Start of run:   1-FEB-2024  20:17:37

                           ***********************       
                           *  WELCOME TO SIESTA  *       
                           ***********************       

reinit: Reading from standard input
reinit: Dumped input in INPUT_TMP.28469
************************** Dump of input data file ****************************
# mpirun -np 4 siesta-4.1.5 < AT.fdf > AT.out &
SystemLabel      AT
NumberOfAtoms    30
NumberOfSpecies  4
%block ChemicalSpeciesLabel
    1    1  H
    2    7  N
    3   14  Si
    4    8  O
%endblock ChemicalSpeciesLabel
############################################
# This overrides Defaults.fdf configuration
############################################
MD.TypeOfRun                Verlet # CG, Verlet
MD.Steps                    0
MaxSCFIterations            200
SCF.MustConverge            F
AtomicCoordinatesFormat NotScaledCartesianAng
%block AtomicCoordinatesAndAtomicSpecies
    2.28494382 -5.19529124 0.0  1  1  H
    1.37433094 -4.6647107 0.0  2  2  N
    -0.21830245 -5.49458215 0.0  3  3  Si
    -0.17484108 -6.98516892 0.0  1  4  H
    -1.66171682 -4.58600741 0.0  2  5  N
    -1.09026419 -2.87456374 0.0  3  6  Si
    -1.53038332 -0.70765692 0.0  3  7  Si
    -3.14415959 -0.09186471 0.0  2  8  N
    -3.40268075 0.95848335 0.0  1  9  H
    -3.95073599 -0.76720972 0.0  1  10  H
    -0.17836637 0.41349951 0.0  2  11  N
    1.49520211 -0.0473996 0.0  3  12  Si
    2.45603905 1.10727302 0.0  1  13  H
    2.30451743 -1.58574382 0.0  2  14  N
    1.10725559 -2.84610319 0.0  3  15  Si
    0.1851943015319082 10.308556485442782 0.0  1  16  H
    -0.6235163784680918 9.616350605442783 0.0  2  17  N
    -2.2801062184680916 10.329470705442784 0.0  3  18  Si
    -2.1832410484680915 11.840195915442782 0.0  1  19  H
    -4.006262568468092 8.986422575442782 0.0  3  20  Si
    -6.360716818468092 8.978435645442783 0.0  3  21  Si
    -6.923134938468092 9.712925295442783 -1.20183078  1  22  H
    -6.660530568468092 7.4993445154427825 -0.08618332  1  23  H
    -6.923247398468092 9.543268105442783 1.28814761  1  24  H
    -3.076871928468092 6.915851345442783 0.0  3  25  Si
    -4.026340288468091 5.627315215442783 0.0  4  26  O
    -1.2859270584680917 6.742115875442783 0.0  2  27  N
    -0.9549356984680918 5.709758895442783 0.0  1  28  H
    0.02253116153190815 7.936662295442782 0.0  3  29  Si
    1.588468091531908 7.669415445442783 0.0  4  30  O
%endblock AtomicCoordinatesAndAtomicSpecies
#############
# Unit Cell
#############
LatticeConstant 1.0 Ang
%block LatticeVectors
    30.00000    0.000000    0.000000
    0.000000    45.00000    0.000000
    0.000000    0.000000    10.00000
%endblock LatticeVectors
%include ../../../../Defaults.fdf
************************** End of input data file *****************************

reinit: -----------------------------------------------------------------------
reinit: System Name: 
reinit: -----------------------------------------------------------------------
reinit: System Label: AT
reinit: -----------------------------------------------------------------------

initatom: Reading input for the pseudopotentials and atomic orbitals ----------
Species number:   1 Atomic number:    1 Label: H
Species number:   2 Atomic number:    7 Label: N
Species number:   3 Atomic number:   14 Label: Si
Species number:   4 Atomic number:    8 Label: O

Ground state valence configuration:   1s01
Reading pseudopotential information in formatted form from H.psf

Pseudopotential generated from a relativistic atomic calculation

Valence configuration for pseudopotential generation:
1s( 1.00) rc: 0.01
2p( 0.00) rc: 0.60
3d( 0.00) rc: 1.99
4f( 0.00) rc: 2.49
Ground state valence configuration:   2s02  2p03
Reading pseudopotential information in formatted form from N.psf

Pseudopotential generated from a relativistic atomic calculation

Valence configuration for pseudopotential generation:
2s( 2.00) rc: 0.94
2p( 3.00) rc: 0.59
3d( 0.00) rc: 3.46
4f( 0.00) rc: 2.47
Ground state valence configuration:   3s02  3p02
Reading pseudopotential information in formatted form from Si.psf

Pseudopotential generated from a relativistic atomic calculation

Valence configuration for pseudopotential generation:
3s( 2.00) rc: 1.67
3p( 2.00) rc: 2.04
3d( 0.00) rc: 2.89
4f( 0.00) rc: 2.49
Ground state valence configuration:   2s02  2p04
Reading pseudopotential information in formatted form from O.psf

Pseudopotential generated from a relativistic atomic calculation

Valence configuration for pseudopotential generation:
2s( 2.00) rc: 0.45
2p( 4.00) rc: 0.92
3d( 0.00) rc: 2.24
4f( 0.00) rc: 0.25
For H, standard SIESTA heuristics set lmxkb to 2
 (one more than the basis l, including polarization orbitals).
Use PS.lmax or PS.KBprojectors blocks to override.
For N, standard SIESTA heuristics set lmxkb to 3
 (one more than the basis l, including polarization orbitals).
Use PS.lmax or PS.KBprojectors blocks to override.
For Si, standard SIESTA heuristics set lmxkb to 3
 (one more than the basis l, including polarization orbitals).
Use PS.lmax or PS.KBprojectors blocks to override.
For O, standard SIESTA heuristics set lmxkb to 3
 (one more than the basis l, including polarization orbitals).
Use PS.lmax or PS.KBprojectors blocks to override.

<basis_specs>
===============================================================================
H                    Z=   1    Mass=  1.0100        Charge= 0.17977+309
Lmxo=0 Lmxkb= 2    BasisType=split      Semic=F
L=0  Nsemic=0  Cnfigmx=1
          i=1  nzeta=2  polorb=1  (1s)
            splnorm:   0.62000    
               vcte:    0.0000    
               rinn:    0.0000    
               qcoe:    0.0000    
               qyuk:    0.0000    
               qwid:   0.10000E-01
                rcs:    0.0000      0.0000    
            lambdas:    1.0000      1.0000    
-------------------------------------------------------------------------------
L=0  Nkbl=1  erefs: 0.17977+309
L=1  Nkbl=1  erefs: 0.17977+309
L=2  Nkbl=1  erefs: 0.17977+309
===============================================================================
</basis_specs>

atom: Called for H                     (Z =   1)

read_vps: Pseudopotential generation method:
read_vps: ATM4.2.7  Troullier-Martins                       
Valence charge for ps generation:    1.00000

xc_check: Exchange-correlation functional:
xc_check: GGA Perdew, Burke & Ernzerhof 1996
V l=0 = -2*Zval/r beyond r=  0.0098
V l=1 = -2*Zval/r beyond r=  0.5817
V l=2 = -2*Zval/r beyond r=  1.9372
All V_l potentials equal beyond r=  1.9372
This should be close to max(r_c) in ps generation
All pots = -2*Zval/r beyond r=  1.9372

VLOCAL1: 99.0% of the norm of Vloc inside     11.567 Ry
VLOCAL1: 99.9% of the norm of Vloc inside     26.362 Ry
atom: Maximum radius for 4*pi*r*r*local-pseudopot. charge    2.25106
atom: Maximum radius for r*vlocal+2*Zval:    1.91306
GHOST: No ghost state for L =  0
GHOST: No ghost state for L =  1
GHOST: No ghost state for L =  2

KBgen: Kleinman-Bylander projectors: 
   l= 0   rc=  2.036604   el= -0.477180   Ekb= -6.081590   kbcos= -0.277285
   l= 1   rc=  2.195416   el=  0.001076   Ekb= -0.926943   kbcos= -0.034643
   l= 2   rc=  2.251056   el=  0.002010   Ekb= -0.130941   kbcos= -0.009788

KBgen: Total number of Kleinman-Bylander projectors:    9
atom: -------------------------------------------------------------------------

atom: SANKEY-TYPE ORBITALS:
atom: Selected multiple-zeta basis: split     

SPLIT: Orbitals with angular momentum L= 0

SPLIT: Basis orbitals for state 1s

SPLIT: PAO cut-off radius determined from an
SPLIT: energy shift=  0.002000 Ry

   izeta = 1
                 lambda =    1.000000
                     rc =    6.518340
                 energy =   -0.475305
                kinetic =    0.912139
    potential(screened) =   -1.387444
       potential(ionic) =   -1.907295

   izeta = 2
                 rmatch =    2.141150
              splitnorm =    0.620000
                 energy =    0.566467
                kinetic =    3.772856
    potential(screened) =   -3.206389
       potential(ionic) =   -3.759093

POLgen: Perturbative polarization orbital with L=  1

POLgen: Polarization orbital for state 1s

   izeta = 1
                     rc =    6.518340
                 energy =    0.533861
                kinetic =    1.121086
    potential(screened) =   -0.587225
       potential(ionic) =   -1.053027
atom: Total number of Sankey-type orbitals:  5

atm_pop: Valence configuration (for local Pseudopot. screening):
 1s( 1.00)                                                            
Vna: chval, zval:    1.00000   1.00000

Vna:  Cut-off radius for the neutral-atom potential:   6.518340

atom: _________________________________________________________________________

<basis_specs>
===============================================================================
N                    Z=   7    Mass=  14.010        Charge= 0.17977+309
Lmxo=1 Lmxkb= 3    BasisType=split      Semic=F
L=0  Nsemic=0  Cnfigmx=2
          i=1  nzeta=2  polorb=0  (2s)
            splnorm:   0.28000    
               vcte:    0.0000    
               rinn:    0.0000    
               qcoe:    0.0000    
               qyuk:    0.0000    
               qwid:   0.10000E-01
                rcs:    0.0000      0.0000    
            lambdas:    1.0000      1.0000    
L=1  Nsemic=0  Cnfigmx=2
          i=1  nzeta=2  polorb=1  (2p)
            splnorm:   0.28000    
               vcte:    0.0000    
               rinn:    0.0000    
               qcoe:    0.0000    
               qyuk:    0.0000    
               qwid:   0.10000E-01
                rcs:    0.0000      0.0000    
            lambdas:    1.0000      1.0000    
-------------------------------------------------------------------------------
L=0  Nkbl=1  erefs: 0.17977+309
L=1  Nkbl=1  erefs: 0.17977+309
L=2  Nkbl=1  erefs: 0.17977+309
L=3  Nkbl=1  erefs: 0.17977+309
===============================================================================
</basis_specs>

atom: Called for N                     (Z =   7)

read_vps: Pseudopotential generation method:
read_vps: ATM4.2.7  Troullier-Martins                       
Valence charge for ps generation:    5.00000

xc_check: Exchange-correlation functional:
xc_check: GGA Perdew, Burke & Ernzerhof 1996
V l=0 = -2*Zval/r beyond r=  1.2889
V l=1 = -2*Zval/r beyond r=  1.2889
V l=2 = -2*Zval/r beyond r=  3.4178
V l=3 = -2*Zval/r beyond r=  2.4084
All V_l potentials equal beyond r=  3.3753
This should be close to max(r_c) in ps generation
All pots = -2*Zval/r beyond r=  3.4178

VLOCAL1: 99.0% of the norm of Vloc inside      3.810 Ry
VLOCAL1: 99.9% of the norm of Vloc inside      8.683 Ry
atom: Maximum radius for 4*pi*r*r*local-pseudopot. charge    4.02088
atom: Maximum radius for r*vlocal+2*Zval:    3.54838
GHOST: No ghost state for L =  0
GHOST: No ghost state for L =  1
GHOST: No ghost state for L =  2
GHOST: No ghost state for L =  3

KBgen: Kleinman-Bylander projectors: 
   l= 0   rc=  3.417763   el= -1.365098   Ekb= -4.433130   kbcos= -0.707855
   l= 1   rc=  3.375302   el= -0.521201   Ekb=-13.264039   kbcos= -0.535594
   l= 2   rc=  3.872880   el=  0.001991   Ekb= -0.641094   kbcos= -0.062456
   l= 3   rc=  3.970931   el=  0.003093   Ekb= -0.474517   kbcos= -0.018236

KBgen: Total number of Kleinman-Bylander projectors:   16
atom: -------------------------------------------------------------------------

atom: SANKEY-TYPE ORBITALS:
atom: Selected multiple-zeta basis: split     

SPLIT: Orbitals with angular momentum L= 0

SPLIT: Basis orbitals for state 2s

SPLIT: PAO cut-off radius determined from an
SPLIT: energy shift=  0.002000 Ry

   izeta = 1
                 lambda =    1.000000
                     rc =    4.730425
                 energy =   -1.363399
                kinetic =    1.245246
    potential(screened) =   -2.608645
       potential(ionic) =   -8.121105

   izeta = 2
                 rmatch =    2.531849
              splitnorm =    0.280000
                 energy =   -0.959908
                kinetic =    2.409435
    potential(screened) =   -3.369343
       potential(ionic) =   -9.427975

SPLIT: Orbitals with angular momentum L= 1

SPLIT: Basis orbitals for state 2p

SPLIT: PAO cut-off radius determined from an
SPLIT: energy shift=  0.002000 Ry

   izeta = 1
                 lambda =    1.000000
                     rc =    5.924108
                 energy =   -0.519262
                kinetic =    3.672940
    potential(screened) =   -4.192202
       potential(ionic) =   -9.518354

   izeta = 2
                 rmatch =    2.531849
              splitnorm =    0.280000
                 energy =   -0.104258
                kinetic =    6.807538
    potential(screened) =   -6.911796
       potential(ionic) =  -13.149920

POLgen: Perturbative polarization orbital with L=  2

POLgen: Polarization orbital for state 2p

   izeta = 1
                     rc =    5.924108
                 energy =    1.427508
                kinetic =    2.872379
    potential(screened) =   -1.444871
       potential(ionic) =   -5.563644
atom: Total number of Sankey-type orbitals: 13

atm_pop: Valence configuration (for local Pseudopot. screening):
 2s( 2.00)                                                            
 2p( 3.00)                                                            
Vna: chval, zval:    5.00000   5.00000

Vna:  Cut-off radius for the neutral-atom potential:   5.924108

atom: _________________________________________________________________________

<basis_specs>
===============================================================================
Si                   Z=  14    Mass=  28.090        Charge= 0.17977+309
Lmxo=1 Lmxkb= 3    BasisType=split      Semic=F
L=0  Nsemic=0  Cnfigmx=3
          i=1  nzeta=2  polorb=0  (3s)
            splnorm:   0.28000    
               vcte:    0.0000    
               rinn:    0.0000    
               qcoe:    0.0000    
               qyuk:    0.0000    
               qwid:   0.10000E-01
                rcs:    0.0000      0.0000    
            lambdas:    1.0000      1.0000    
L=1  Nsemic=0  Cnfigmx=3
          i=1  nzeta=2  polorb=1  (3p)
            splnorm:   0.28000    
               vcte:    0.0000    
               rinn:    0.0000    
               qcoe:    0.0000    
               qyuk:    0.0000    
               qwid:   0.10000E-01
                rcs:    0.0000      0.0000    
            lambdas:    1.0000      1.0000    
-------------------------------------------------------------------------------
L=0  Nkbl=1  erefs: 0.17977+309
L=1  Nkbl=1  erefs: 0.17977+309
L=2  Nkbl=1  erefs: 0.17977+309
L=3  Nkbl=1  erefs: 0.17977+309
===============================================================================
</basis_specs>

atom: Called for Si                    (Z =  14)

read_vps: Pseudopotential generation method:
read_vps: ATM4.2.7  Troullier-Martins                       
Valence charge for ps generation:    4.00000

xc_check: Exchange-correlation functional:
xc_check: GGA Perdew, Burke & Ernzerhof 1996
V l=0 = -2*Zval/r beyond r=  2.7826
V l=1 = -2*Zval/r beyond r=  2.7826
V l=2 = -2*Zval/r beyond r=  2.9253
V l=3 = -2*Zval/r beyond r=  2.7826
All V_l potentials equal beyond r=  2.8530
This should be close to max(r_c) in ps generation
All pots = -2*Zval/r beyond r=  2.9253

VLOCAL1: 99.0% of the norm of Vloc inside      5.333 Ry
VLOCAL1: 99.9% of the norm of Vloc inside     12.154 Ry
atom: Maximum radius for 4*pi*r*r*local-pseudopot. charge    3.39869
atom: Maximum radius for r*vlocal+2*Zval:    2.96205
GHOST: No ghost state for L =  0
GHOST: No ghost state for L =  1
GHOST: No ghost state for L =  2
GHOST: No ghost state for L =  3

KBgen: Kleinman-Bylander projectors: 
   l= 0   rc=  3.075247   el= -0.794092   Ekb=  5.879390   kbcos=  0.167461
   l= 1   rc=  3.153101   el= -0.300068   Ekb=  2.642817   kbcos=  0.058301
   l= 2   rc=  3.273594   el=  0.001958   Ekb= -1.185135   kbcos= -0.104411
   l= 3   rc=  3.232927   el=  0.003046   Ekb= -0.497174   kbcos= -0.015889

KBgen: Total number of Kleinman-Bylander projectors:   16
atom: -------------------------------------------------------------------------

atom: SANKEY-TYPE ORBITALS:
atom: Selected multiple-zeta basis: split     

SPLIT: Orbitals with angular momentum L= 0

SPLIT: Basis orbitals for state 3s

SPLIT: PAO cut-off radius determined from an
SPLIT: energy shift=  0.002000 Ry

   izeta = 1
                 lambda =    1.000000
                     rc =    6.429618
                 energy =   -0.792283
                kinetic =    0.525293
    potential(screened) =   -1.317576
       potential(ionic) =   -3.744923

   izeta = 2
                 rmatch =    3.998416
              splitnorm =    0.280000
                 energy =   -0.583081
                kinetic =    1.069570
    potential(screened) =   -1.652651
       potential(ionic) =   -4.235185

SPLIT: Orbitals with angular momentum L= 1

SPLIT: Basis orbitals for state 3p

SPLIT: PAO cut-off radius determined from an
SPLIT: energy shift=  0.002000 Ry

   izeta = 1
                 lambda =    1.000000
                     rc =    8.464845
                 energy =   -0.298236
                kinetic =    0.785360
    potential(screened) =   -1.083596
       potential(ionic) =   -3.273779

   izeta = 2
                 rmatch =    4.587816
              splitnorm =    0.280000
                 energy =   -0.131871
                kinetic =    1.403687
    potential(screened) =   -1.535557
       potential(ionic) =   -4.015310

POLgen: Perturbative polarization orbital with L=  2

POLgen: Polarization orbital for state 3p

   izeta = 1
                     rc =    8.464845
                 energy =    0.321949
                kinetic =    1.055677
    potential(screened) =   -0.733728
       potential(ionic) =   -2.672950
atom: Total number of Sankey-type orbitals: 13

atm_pop: Valence configuration (for local Pseudopot. screening):
 3s( 2.00)                                                            
 3p( 2.00)                                                            
Vna: chval, zval:    4.00000   4.00000

Vna:  Cut-off radius for the neutral-atom potential:   8.464845

atom: _________________________________________________________________________

<basis_specs>
===============================================================================
O                    Z=   8    Mass=  16.000        Charge= 0.17977+309
Lmxo=1 Lmxkb= 3    BasisType=split      Semic=F
L=0  Nsemic=0  Cnfigmx=2
          i=1  nzeta=2  polorb=0  (2s)
            splnorm:   0.28000    
               vcte:    0.0000    
               rinn:    0.0000    
               qcoe:    0.0000    
               qyuk:    0.0000    
               qwid:   0.10000E-01
                rcs:    0.0000      0.0000    
            lambdas:    1.0000      1.0000    
L=1  Nsemic=0  Cnfigmx=2
          i=1  nzeta=2  polorb=1  (2p)
            splnorm:   0.28000    
               vcte:    0.0000    
               rinn:    0.0000    
               qcoe:    0.0000    
               qyuk:    0.0000    
               qwid:   0.10000E-01
                rcs:    0.0000      0.0000    
            lambdas:    1.0000      1.0000    
-------------------------------------------------------------------------------
L=0  Nkbl=1  erefs: 0.17977+309
L=1  Nkbl=1  erefs: 0.17977+309
L=2  Nkbl=1  erefs: 0.17977+309
L=3  Nkbl=1  erefs: 0.17977+309
===============================================================================
</basis_specs>

atom: Called for O                     (Z =   8)

read_vps: Pseudopotential generation method:
read_vps: ATM4.2.7  Troullier-Martins                       
Valence charge for ps generation:    6.00000

xc_check: Exchange-correlation functional:
xc_check: GGA Perdew, Burke & Ernzerhof 1996
V l=0 = -2*Zval/r beyond r=  1.1000
V l=1 = -2*Zval/r beyond r=  1.1000
V l=2 = -2*Zval/r beyond r=  2.2154
V l=3 = -2*Zval/r beyond r=  1.1000
All V_l potentials equal beyond r=  2.2154
This should be close to max(r_c) in ps generation
All pots = -2*Zval/r beyond r=  2.2154

VLOCAL1: 99.0% of the norm of Vloc inside      8.845 Ry
VLOCAL1: 99.9% of the norm of Vloc inside     20.157 Ry
atom: Maximum radius for 4*pi*r*r*local-pseudopot. charge    2.67231
atom: Maximum radius for r*vlocal+2*Zval:    2.32897
GHOST: No ghost state for L =  0
GHOST: No ghost state for L =  1
GHOST: No ghost state for L =  2
GHOST: No ghost state for L =  3

KBgen: Kleinman-Bylander projectors: 
   l= 0   rc=  2.243238   el= -1.759686   Ekb=**********   kbcos= -0.171774
   l= 1   rc=  2.328968   el= -0.663873   Ekb=-14.506792   kbcos= -0.519897
   l= 2   rc=  2.573941   el=  0.002031   Ekb= -1.137373   kbcos= -0.019581
   l= 3   rc=  2.606321   el=  0.003153   Ekb= -1.013546   kbcos= -0.003122

KBgen: Total number of Kleinman-Bylander projectors:   16
atom: -------------------------------------------------------------------------

atom: SANKEY-TYPE ORBITALS:
atom: Selected multiple-zeta basis: split     

SPLIT: Orbitals with angular momentum L= 0

SPLIT: Basis orbitals for state 2s

SPLIT: PAO cut-off radius determined from an
SPLIT: energy shift=  0.002000 Ry

   izeta = 1
                 lambda =    1.000000
                     rc =    4.243912
                 energy =   -1.758270
                kinetic =    3.286084
    potential(screened) =   -5.044353
       potential(ionic) =  -12.921184

   izeta = 2
                 rmatch =    2.187845
              splitnorm =    0.280000
                 energy =   -0.885018
                kinetic =    8.134434
    potential(screened) =   -9.019452
       potential(ionic) =  -17.710645

SPLIT: Orbitals with angular momentum L= 1

SPLIT: Basis orbitals for state 2p

SPLIT: PAO cut-off radius determined from an
SPLIT: energy shift=  0.002000 Ry

   izeta = 1
                 lambda =    1.000000
                     rc =    5.314825
                 energy =   -0.661986
                kinetic =    4.917472
    potential(screened) =   -5.579458
       potential(ionic) =  -13.236259

   izeta = 2
                 rmatch =    2.160663
              splitnorm =    0.280000
                 energy =   -0.068760
                kinetic =    9.183374
    potential(screened) =   -9.252135
       potential(ionic) =  -18.274251

POLgen: Perturbative polarization orbital with L=  2

POLgen: Polarization orbital for state 2p

   izeta = 1
                     rc =    5.314825
                 energy =    1.970580
                kinetic =    3.886128
    potential(screened) =   -1.915547
       potential(ionic) =   -7.749584
atom: Total number of Sankey-type orbitals: 13

atm_pop: Valence configuration (for local Pseudopot. screening):
 2s( 2.00)                                                            
 2p( 4.00)                                                            
Vna: chval, zval:    6.00000   6.00000

Vna:  Cut-off radius for the neutral-atom potential:   5.314825

atom: _________________________________________________________________________

prinput: Basis input ----------------------------------------------------------

PAO.BasisType split     

%block ChemicalSpeciesLabel
    1    1 H                       # Species index, atomic number, species label
    2    7 N                       # Species index, atomic number, species label
    3   14 Si                      # Species index, atomic number, species label
    4    8 O                       # Species index, atomic number, species label
%endblock ChemicalSpeciesLabel

%block PAO.Basis                 # Define Basis set
H                     1                    # Species label, number of l-shells
 n=1   0   2 P   1                   # n, l, Nzeta, Polarization, NzetaPol
   6.518      2.141   
   1.000      1.000   
N                     2                    # Species label, number of l-shells
 n=2   0   2                         # n, l, Nzeta 
   4.730      2.532   
   1.000      1.000   
 n=2   1   2 P   1                   # n, l, Nzeta, Polarization, NzetaPol
   5.924      2.532   
   1.000      1.000   
Si                    2                    # Species label, number of l-shells
 n=3   0   2                         # n, l, Nzeta 
   6.430      3.998   
   1.000      1.000   
 n=3   1   2 P   1                   # n, l, Nzeta, Polarization, NzetaPol
   8.465      4.588   
   1.000      1.000   
O                     2                    # Species label, number of l-shells
 n=2   0   2                         # n, l, Nzeta 
   4.244      2.188   
   1.000      1.000   
 n=2   1   2 P   1                   # n, l, Nzeta, Polarization, NzetaPol
   5.315      2.161   
   1.000      1.000   
%endblock PAO.Basis

prinput: ----------------------------------------------------------------------

Dumping basis to NetCDF file H.ion.nc
Dumping basis to NetCDF file N.ion.nc
Dumping basis to NetCDF file Si.ion.nc
Dumping basis to NetCDF file O.ion.nc
coor:   Atomic-coordinates input format  =     Cartesian coordinates
coor:                                          (in Angstroms)

siesta: Atomic coordinates (Bohr) and species
siesta:      4.31792  -9.81768   0.00000  1        1
siesta:      2.59711  -8.81503   0.00000  2        2
siesta:     -0.41253 -10.38326   0.00000  3        3
siesta:     -0.33040 -13.20006   0.00000  1        4
siesta:     -3.14019  -8.66630   0.00000  2        5
siesta:     -2.06030  -5.43214   0.00000  3        6
siesta:     -2.89201  -1.33728   0.00000  3        7
siesta:     -5.94160  -0.17360   0.00000  2        8
siesta:     -6.43014   1.81127   0.00000  1        9
siesta:     -7.46581  -1.44982   0.00000  1       10
siesta:     -0.33706   0.78140   0.00000  2       11
siesta:      2.82552  -0.08957   0.00000  3       12
siesta:      4.64124   2.09244   0.00000  1       13
siesta:      4.35491  -2.99662   0.00000  2       14
siesta:      2.09241  -5.37836   0.00000  3       15
siesta:      0.34997  19.48036   0.00000  1       16
siesta:     -1.17828  18.17228   0.00000  2       17
siesta:     -4.30878  19.51988   0.00000  3       18
siesta:     -4.12573  22.37474   0.00000  1       19
siesta:     -7.57074  16.98188   0.00000  3       20
siesta:    -12.02002  16.96679   0.00000  3       21
siesta:    -13.08283  18.35478  -2.27113  1       22
siesta:    -12.58658  14.17171  -0.16286  1       23
siesta:    -13.08305  18.03417   2.43425  1       24
siesta:     -5.81445  13.06907   0.00000  3       25
siesta:     -7.60868  10.63409   0.00000  4       26
siesta:     -2.43005  12.74076   0.00000  2       27
siesta:     -1.80457  10.78988   0.00000  1       28
siesta:      0.04258  14.99812   0.00000  3       29
siesta:      3.00177  14.49310   0.00000  4       30

siesta: System type = molecule  

initatomlists: Number of atoms, orbitals, and projectors:     30   302   403

siesta: ******************** Simulation parameters ****************************
siesta:
siesta: The following are some of the parameters of the simulation.
siesta: A complete list of the parameters used, including default values,
siesta: can be found in file out.fdf
siesta:
redata: Spin configuration                          = spin-orbit
redata: Number of spin components                   = 8
redata: Time-Reversal Symmetry                      = F
redata: Spin spiral                                 = F
############################################################
This spin-orbit implementation uses a local approximation.
From 4.2 and onwards the full non-local approximation is implemented
You are strongly advised to use >=4.2 versions!
############################################################
redata: Long output                                 =   F
redata: Number of Atomic Species                    =        4
redata: Charge density info will appear in .RHO file
redata: Write Mulliken Pop.                         = NO
redata: Matel table size (NRTAB)                    =     1024
redata: Mesh Cutoff                                 =   340.0000 Ry
redata: Net charge of the system                    =     0.0000 |e|
redata: Min. number of SCF Iter                     =        1
redata: Max. number of SCF Iter                     =      200
redata: SCF mix quantity                            = Hamiltonian
redata: Mix DM or H after convergence               =   F
redata: Recompute H after scf cycle                 =   F
redata: Mix DM in first SCF step                    =   T
redata: Write Pulay info on disk                    =   F
redata: New DM Occupancy tolerance                  = 0.000000000001
redata: No kicks to SCF
redata: DM Mixing Weight for Kicks                  =     0.5000
redata: Require Harris convergence for SCF          =   F
redata: Harris energy tolerance for SCF             =     0.000100 eV
redata: Require DM convergence for SCF              =   T
redata: DM tolerance for SCF                        =     0.000008
redata: Require EDM convergence for SCF             =   F
redata: EDM tolerance for SCF                       =     0.001000 eV
redata: Require H convergence for SCF               =   T
redata: Hamiltonian tolerance for SCF               =     0.000001 eV
redata: Require (free) Energy convergence for SCF   =   F
redata: (free) Energy tolerance for SCF             =     0.000100 eV
redata: Using Saved Data (generic)                  =   F
redata: Use continuation files for DM               =   T
redata: Neglect nonoverlap interactions             =   F
redata: Method of Calculation                       = Diagonalization
redata: Electronic Temperature                      =   299.9978 K
redata: Fix the spin of the system                  =   F
redata: Dynamics option                             = Verlet MD run
redata: Initial MD time step                        =        1
redata:   Final MD time step                        =        1
redata: Length of MD time step                      =     0.5000 fs
redata: Initial Temperature of MD run               =     0.0000 K
redata: Perform a MD quench                         =   F
mix.SCF: Pulay mixing                            = Pulay
mix.SCF:    Variant                              = stable
mix.SCF:    History steps                        = 6
mix.SCF:    Linear mixing weight                 =     0.250000
mix.SCF:    Mixing weight                        =     0.250000
mix.SCF:    SVD condition                        = 0.1000E-07
mix.SCF:    Restart steps                        = 24
mix.SCF:    Restart save steps                   = 3
mix.SCF: Spin-component mixing                   all
redata: Save all siesta data in one NC              =   F
redata: ***********************************************************************

%block SCF.Mixers
  Pulay
%endblock SCF.Mixers

%block SCF.Mixer.Pulay
  # Mixing method
  method pulay
  variant stable

  # Mixing options
  weight 0.2500
  weight.linear 0.2500
  history 6
  restart 24
  restart.save 3
%endblock SCF.Mixer.Pulay

Size of DM history Fstack: 3
Total number of electrons:    98.000000
Total ionic charge:    98.000000

* ProcessorY, Blocksize:    2  24


* Orbital distribution balance (max,min):    48    24


Time-reversal symmetry not used.

siesta: k-grid: Number of k-points =     1
siesta: k-grid: Cutoff (effective) =     5.000 Ang
siesta: k-grid: Supercell and displacements
siesta: k-grid:    1   0   0      0.000
siesta: k-grid:    0   1   0      0.000
siesta: k-grid:    0   0   1      0.000

diag: Algorithm                                     = ELPA-1stage
diag: Parallel over k                               =   F
diag: Use parallel 2D distribution                  =   T
diag: Parallel block-size                           = 24
diag: Parallel distribution                         =     2 x     4
diag: Used triangular part                          = Lower
diag: Absolute tolerance                            =  0.100E-15
diag: Orthogonalization factor                      =  0.100E-05
diag: Memory factor                                 =  1.0000


ts: **************************************************************
ts: Save H and S matrices                           =    F
ts: Save DM and EDM matrices                        =    F
ts: Only save the overlap matrix S                  =    F
ts: **************************************************************

************************ Begin: TS CHECKS AND WARNINGS ************************
************************ End: TS CHECKS AND WARNINGS **************************


                     ====================================
                        Begin MD step =      1
                     ====================================

outcoor: Atomic coordinates (Ang):                          
    2.28494382   -5.19529124    0.00000000   1       1  H
    1.37433094   -4.66471070    0.00000000   2       2  N
   -0.21830245   -5.49458215    0.00000000   3       3  Si
   -0.17484108   -6.98516892    0.00000000   1       4  H
   -1.66171682   -4.58600741    0.00000000   2       5  N
   -1.09026419   -2.87456374    0.00000000   3       6  Si
   -1.53038332   -0.70765692    0.00000000   3       7  Si
   -3.14415959   -0.09186471    0.00000000   2       8  N
   -3.40268075    0.95848335    0.00000000   1       9  H
   -3.95073599   -0.76720972    0.00000000   1      10  H
   -0.17836637    0.41349951    0.00000000   2      11  N
    1.49520211   -0.04739960    0.00000000   3      12  Si
    2.45603905    1.10727302    0.00000000   1      13  H
    2.30451743   -1.58574382    0.00000000   2      14  N
    1.10725559   -2.84610319    0.00000000   3      15  Si
    0.18519430   10.30855649    0.00000000   1      16  H
   -0.62351638    9.61635061    0.00000000   2      17  N
   -2.28010622   10.32947071    0.00000000   3      18  Si
   -2.18324105   11.84019592    0.00000000   1      19  H
   -4.00626257    8.98642258    0.00000000   3      20  Si
   -6.36071682    8.97843565    0.00000000   3      21  Si
   -6.92313494    9.71292530   -1.20183078   1      22  H
   -6.66053057    7.49934452   -0.08618332   1      23  H
   -6.92324740    9.54326811    1.28814761   1      24  H
   -3.07687193    6.91585135    0.00000000   3      25  Si
   -4.02634029    5.62731522    0.00000000   4      26  O
   -1.28592706    6.74211588    0.00000000   2      27  N
   -0.95493570    5.70975890    0.00000000   1      28  H
    0.02253116    7.93666230    0.00000000   3      29  Si
    1.58846809    7.66941545    0.00000000   4      30  O

outcell: Unit cell vectors (Ang):
       30.000000    0.000000    0.000000
        0.000000   45.000000    0.000000
        0.000000    0.000000   10.000000

outcell: Cell vector modules (Ang)   :   30.000000   45.000000   10.000000
outcell: Cell angles (23,13,12) (deg):     90.0000     90.0000     90.0000
outcell: Cell volume (Ang**3)        :  13500.0000
<dSpData1D:S at geom step 1
  <sparsity:sparsity for geom step 1
    nrows_g=302 nrows=48 sparsity=.0777 nnzs=7086, refcount: 8>
  <dData1D:(new from dSpData1D) n=7086, refcount: 1>
refcount: 1>
new_DM -- step:     1
Initializing Density Matrix...

Attempting to read DM from file... Failed...
DM filled with atomic data:
<dSpData2D:DM initialized from atoms
  <sparsity:sparsity for geom step 1
    nrows_g=302 nrows=48 sparsity=.0777 nnzs=7086, refcount: 9>
  <dData2D:DM n=7086 m=8, refcount: 1>
refcount: 1>
     spin moment: S , {S} =   56.00000   0.00000   0.00000  56.00000
No. of atoms with KB's overlaping orbs in proc 0. Max # of overlaps:      27     134

Initializing spin-orbit part of the Hamiltonian
  Adding spin-orbit effects for H 
  Adding spin-orbit effects for N 
  Adding spin-orbit effects for Si
  Adding spin-orbit effects for O 


New grid distribution:   1
           1       1:  180    1:  125    1:   15
           2       1:  180    1:  125   16:   30
           3       1:  180    1:  125   31:   45
           4       1:  180    1:  125   46:   60
           5       1:  180  126:  250    1:   15
           6       1:  180  126:  250   16:   30
           7       1:  180  126:  250   31:   45
           8       1:  180  126:  250   46:   60

InitMesh: MESH =   360 x   500 x   120 =    21600000
InitMesh: (bp) =   180 x   250 x    60 =     2700000
InitMesh: Mesh cutoff (required, used) =   340.000   341.206 Ry
ExtMesh (bp) on 0 =   288 x   225 x   123 =     7970400
New grid distribution:   2
           1       1:  158    1:   42    1:   60
           2       1:  151  233:  250    1:   60
           3       1:  158   43:   59    1:   60
           4     159:  180   42:   59    1:   60
           5       1:  151   60:  232    1:   60
           6     152:  180   60:  231    1:   60
           7     159:  180    1:   41    1:   60
           8     152:  180  232:  250    1:   60
New grid distribution:   3
           1     147:  180   60:  217    1:   60
           2       1:  143    1:   37    1:   60
           3       1:  143   38:   59    1:   60
           4     144:  180   34:   59    1:   60
           5       1:  146   60:  220    1:   60
           6       1:  146  221:  250    1:   60
           7     144:  180    1:   33    1:   60
           8     147:  180  218:  250    1:   60
Setting up quadratic distribution...
ExtMesh (bp) on 0 =   266 x   142 x   168 =     6345696
PhiOnMesh: Number of (b)points on node 0 =               398160
PhiOnMesh: nlist on node 0 =              1769830

stepf: Fermi-Dirac step function

siesta: Program's energy decomposition (eV):
siesta: Ebs     =      -622.221636
siesta: Eions   =      3553.971015
siesta: Ena     =       374.984503
siesta: Ekin    =      3171.224628
siesta: Enl     =     -2984.628318
siesta: Eso     =        -0.003882
siesta: Edftu   =         0.000000
siesta: DEna    =       129.746205
siesta: DUscf   =        75.663775
siesta: DUext   =         0.000000
siesta: Exc     =     -1168.631657
siesta: eta*DQ  =         0.000000
siesta: Emadel  =         0.000000
siesta: Emeta   =         0.000000
siesta: Emolmec =         0.000000
siesta: Ekinion =         0.000000
siesta: Eharris =     -3884.569275
siesta: Etot    =     -3955.615760
siesta: FreeEng =     -3955.619060

        iscf     Eharris(eV)        E_KS(eV)     FreeEng(eV)     dDmax    Ef(eV) dHmax(eV)
   scf:    1    -3884.569275    -3955.615760    -3955.619060  0.970504 -4.935224 21.606080
     spin moment: S , {S} =    2.02342  -0.00000  -0.00000   2.02342
timer: Routine,Calls,Time,% = IterSCF        1      10.822  33.53
   scf:    2    -3995.608179    -3988.529741    -3988.529748  0.465909 -4.243431 11.782832
     spin moment: S , {S} =    2.00009   0.00000  -0.00000   2.00009
   scf:    3    -3956.525245    -3985.087619    -3985.120415  0.423177 -4.181954 12.535540
     spin moment: S , {S} =    1.99322  -0.00000  -0.00000   1.99322
   scf:    4    -4002.409078    -3997.224796    -3997.224797  0.224244 -3.858791  6.231658
     spin moment: S , {S} =    0.00011  -0.00000   0.00000   0.00011
   scf:    5    -3998.644076    -3998.005579    -3998.005579  0.037615 -3.735414  4.118110
     spin moment: S , {S} =    0.00006  -0.00000   0.00000   0.00006
   scf:    6    -3998.826894    -3998.414530    -3998.414530  0.027641 -3.712629  1.957204
     spin moment: S , {S} =    0.00003  -0.00000   0.00000   0.00003
   scf:    7    -3998.799463    -3998.601538    -3998.601538  0.022443 -3.768194  0.764437
     spin moment: S , {S} =    0.00001  -0.00000   0.00000   0.00001
   scf:    8    -3998.728772    -3998.663180    -3998.663180  0.012113 -3.807183  0.515220
     spin moment: S , {S} =    0.00000  -0.00000   0.00000   0.00000
   scf:    9    -3998.713739    -3998.687349    -3998.687349  0.007185 -3.825588  0.405541
     spin moment: S , {S} =    0.00000  -0.00000   0.00000   0.00000
   scf:   10    -3998.748925    -3998.707990    -3998.707991  0.024532 -3.857938  0.214307
     spin moment: S , {S} =    0.00000  -0.00000  -0.00000  -0.00000
   scf:   11    -3998.713395    -3998.710851    -3998.710852  0.004273 -3.842829  0.081254
     spin moment: S , {S} =    0.00000  -0.00000  -0.00000  -0.00000
   scf:   12    -3998.711988    -3998.711450    -3998.711451  0.001220 -3.839449  0.046211
     spin moment: S , {S} =    0.00000  -0.00000  -0.00000   0.00000
   scf:   13    -3998.712333    -3998.711885    -3998.711886  0.001022 -3.837141  0.025114
     spin moment: S , {S} =    0.00000  -0.00000  -0.00000   0.00000
   scf:   14    -3998.712265    -3998.712068    -3998.712069  0.000742 -3.836114  0.015748
     spin moment: S , {S} =    0.00000   0.00000  -0.00000   0.00000
   scf:   15    -3998.712252    -3998.712155    -3998.712156  0.000607 -3.835712  0.008983
     spin moment: S , {S} =    0.00000   0.00000  -0.00000   0.00000
   scf:   16    -3998.712228    -3998.712188    -3998.712190  0.000477 -3.835643  0.003760
     spin moment: S , {S} =    0.00000   0.00000  -0.00000   0.00000
   scf:   17    -3998.712201    -3998.712194    -3998.712195  0.000191 -3.835803  0.002721
     spin moment: S , {S} =    0.00000   0.00000   0.00000   0.00000
   scf:   18    -3998.712201    -3998.712197    -3998.712198  0.000178 -3.835919  0.001537
     spin moment: S , {S} =    0.00000   0.00000   0.00000   0.00000
   scf:   19    -3998.712199    -3998.712198    -3998.712199  0.000110 -3.835955  0.001112
     spin moment: S , {S} =    0.00000   0.00000   0.00000   0.00000
   scf:   20    -3998.712198    -3998.712198    -3998.712200  0.000052 -3.835976  0.000763
     spin moment: S , {S} =    0.00000   0.00000   0.00000   0.00000
   scf:   21    -3998.712199    -3998.712198    -3998.712200  0.000049 -3.835984  0.000554
     spin moment: S , {S} =    0.00000   0.00000   0.00000   0.00000
   scf:   22    -3998.712199    -3998.712198    -3998.712200  0.000061 -3.835998  0.000257
     spin moment: S , {S} =    0.00000   0.00000   0.00000   0.00000
   scf:   23    -3998.712199    -3998.712199    -3998.712200  0.000029 -3.836000  0.000168
     spin moment: S , {S} =    0.00000   0.00000   0.00000   0.00000
   scf:   24    -3998.712199    -3998.712199    -3998.712200  0.000021 -3.835999  0.000080
     spin moment: S , {S} =    0.00000   0.00000   0.00000   0.00000
mix: Pulay -- resetting history
   scf:   25    -3998.712199    -3998.712199    -3998.712200  0.000014 -3.835995  0.000035
     spin moment: S , {S} =    0.00000   0.00000   0.00000  -0.00000
   scf:   26    -3998.712199    -3998.712199    -3998.712200  0.000004 -3.835993  0.000024
     spin moment: S , {S} =    0.00000   0.00000   0.00000   0.00000
   scf:   27    -3998.712199    -3998.712199    -3998.712200  0.000002 -3.835993  0.000015
     spin moment: S , {S} =    0.00000   0.00000   0.00000   0.00000
   scf:   28    -3998.712199    -3998.712199    -3998.712200  0.000003 -3.835992  0.000007
     spin moment: S , {S} =    0.00000   0.00000   0.00000   0.00000
   scf:   29    -3998.712199    -3998.712199    -3998.712200  0.000000 -3.835993  0.000005
     spin moment: S , {S} =    0.00000   0.00000   0.00000   0.00000
   scf:   30    -3998.712199    -3998.712199    -3998.712200  0.000000 -3.835993  0.000003
     spin moment: S , {S} =    0.00000  -0.00000   0.00000  -0.00000
   scf:   31    -3998.712199    -3998.712199    -3998.712200  0.000000 -3.835994  0.000002
     spin moment: S , {S} =    0.00000  -0.00000   0.00000  -0.00000
   scf:   32    -3998.712199    -3998.712199    -3998.712200  0.000000 -3.835994  0.000001
     spin moment: S , {S} =    0.00000  -0.00000   0.00000  -0.00000
   scf:   33    -3998.712199    -3998.712199    -3998.712200  0.000000 -3.835993  0.000001
     spin moment: S , {S} =    0.00000  -0.00000   0.00000   0.00000

SCF Convergence by DM+H criterion
max |DM_out - DM_in|         :     0.0000000808
max |H_out - H_in|      (eV) :     0.0000006531
SCF cycle converged after 33 iterations

Using DM_out to compute the final energy and forces
No. of atoms with KB's overlaping orbs in proc 0. Max # of overlaps:      27     134

siesta: E_KS(eV) =            -3998.7122

siesta: E_KS - E_eggbox =     -3998.7122
     spin moment: S , {S} =    0.00000  -0.00000   0.00000   0.00000

siesta: Atomic forces (eV/Ang):
     1    0.143010   -0.027674   -0.000000
     2   -0.034134    0.043048    0.000000
     3   -0.030756   -0.017688    0.000000
     4    0.068500   -0.134448   -0.000000
     5    0.053968    0.005578   -0.000000
     6   -0.188658    0.018119    0.000000
     7    1.046276   -0.036277   -0.000001
     8   -0.640299    1.409851    0.000000
     9    0.163773   -0.997903   -0.000001
    10   -0.110216    0.134911    0.000001
    11   -0.183838   -0.366771    0.000001
    12   -0.278844    0.044384   -0.000000
    13   -0.122897   -0.050641    0.000000
    14    0.032193   -0.114347   -0.000000
    15    0.107647    0.094210    0.000000
    16   -0.106753   -0.050366   -0.000950
    17    0.035621   -0.087016   -0.000790
    18   -0.144933    0.037814    0.005207
    19    0.089196   -0.100246   -0.001430
    20    0.120354    0.077518   -0.001085
    21    0.057958   -0.024178   -0.006972
    22    0.078419    0.018377    0.138239
    23    0.004798   -0.002959   -0.009646
    24    0.072540    0.039867   -0.104852
    25   -0.635279   -0.406228    0.001042
    26    3.339441    0.397499    0.000518
    27    0.346440   -0.442745   -0.000554
    28   -0.160747    0.709299   -0.000073
    29    0.145633    0.169213   -0.000221
    30   -1.302841   -2.934516    0.000256
----------------------------------------
   Tot    1.965572   -2.594317    0.018689
----------------------------------------
   Max    3.339441
   Res    0.559240    sqrt( Sum f_i^2 / 3N )
----------------------------------------
   Max    3.339441    constrained

Stress tensor Voigt[x,y,z,yz,xz,xy] (kbar):        0.11        0.33       -0.01       -0.01        0.00        0.12
(Free)E + p*V (eV/cell)    -3999.9411
Target enthalpy (eV/cell)    -3998.7122

siesta: Stress tensor (static) (eV/Ang**3):
         0.000069    0.000076    0.000000
         0.000076    0.000208   -0.000004
         0.000000   -0.000004   -0.000004

siesta: Pressure (static):         -0.14584845  kBar

siesta: Stress tensor (total) (eV/Ang**3):
         0.000069    0.000076    0.000000
         0.000076    0.000208   -0.000004
         0.000000   -0.000004   -0.000004

siesta: Pressure (total):         -0.14584845  kBar

siesta: Temp_ion =       0.000 K

siesta: Eigenvalues (eV):
ik =     1
  -22.8385  -22.8385  -22.3277  -22.3277  -21.7149  -21.7149  -21.2652  -21.2652  -21.0050  -21.0050
  -20.9072  -20.9072  -19.3832  -19.3832  -19.2179  -19.2179  -18.5971  -18.5971  -15.0122  -15.0122
  -14.1004  -14.1004  -13.6304  -13.6304  -13.5566  -13.5566  -13.0634  -13.0634  -12.8726  -12.8726
  -12.5136  -12.5136  -12.1294  -12.1294  -11.8974  -11.8974  -11.5911  -11.5911  -11.4735  -11.4735
  -10.9640  -10.9640  -10.6039  -10.6039  -10.1862  -10.1862   -9.5372   -9.5372   -9.3187   -9.3187
   -9.1400   -9.1400   -9.0896   -9.0896   -9.0086   -9.0086   -8.7783   -8.7783   -8.5833   -8.5833
   -8.3807   -8.3807   -8.2221   -8.2221   -8.1161   -8.1161   -7.9919   -7.9919   -7.9018   -7.9018
   -7.7139   -7.7139   -7.3746   -7.3746   -7.2867   -7.2867   -7.2536   -7.2536   -6.8258   -6.8258
   -6.8204   -6.8204   -6.7089   -6.7089   -6.3902   -6.3902   -6.2726   -6.2726   -6.1542   -6.1542
   -5.7895   -5.7895   -5.6919   -5.6919   -5.5299   -5.5299   -4.1964   -4.1964   -3.4756   -3.4756
   -2.6883   -2.6883   -2.1908   -2.1908   -2.1546   -2.1546   -2.1069   -2.1069   -1.9770   -1.9770
   -1.9268   -1.9268   -1.6952   -1.6952   -1.6153   -1.6153   -1.5707   -1.5707   -1.3845   -1.3845
   -1.1413   -1.1413   -0.5496   -0.5496   -0.2933   -0.2933   -0.1848   -0.1848   -0.1729   -0.1729
   -0.0099   -0.0099    0.0606    0.0606    0.2604    0.2604    0.5418    0.5418    0.5933    0.5933
    0.6643    0.6643    0.7588    0.7588    1.2313    1.2313    1.2943    1.2943    1.3266    1.3266
    1.4583    1.4583    1.5800    1.5800    1.9483    1.9483    1.9726    1.9726    2.2012    2.2012
    2.4635    2.4635    2.7503    2.7503    2.8177    2.8177    2.8397    2.8397    2.8684    2.8684
    3.0983    3.0983    3.1185    3.1185    3.1856    3.1856    3.2621    3.2621    3.3296    3.3296
    3.7023    3.7023    3.9249    3.9249    4.2293    4.2293    4.2380    4.2380    4.2499    4.2499
    4.3868    4.3868    4.7135    4.7135    4.7205    4.7205    4.8160    4.8160    5.0805    5.0805
    5.0963    5.0963    5.2378    5.2378    5.5648    5.5648    5.7193    5.7193    5.7806    5.7806
    5.9153    5.9153    6.0724    6.0724    6.1859    6.1859    6.2300    6.2300    6.3454    6.3454
    6.6050    6.6050    6.6575    6.6575    6.8310    6.8310    7.0553    7.0553    7.2395    7.2395
    7.2809    7.2809    7.5070    7.5070    7.6664    7.6664    7.8600    7.8600    7.9801    7.9801
    8.0199    8.0199    8.1849    8.1849    8.3952    8.3952    8.4031    8.4031    8.7013    8.7013
    8.9578    8.9578    8.9841    8.9841    9.0496    9.0496    9.3152    9.3152    9.6202    9.6202
    9.6898    9.6898    9.8092    9.8092    9.8692    9.8692    9.9471    9.9471    9.9544    9.9544
   10.1792   10.1792   10.4809   10.4809   10.6734   10.6734   10.9532   10.9532   11.0193   11.0193
   11.3058   11.3058   11.4479   11.4479   11.6333   11.6333   11.7039   11.7039   11.7369   11.7369
   11.9403   11.9403   12.3468   12.3468   12.3510   12.3510   12.4205   12.4205   12.6358   12.6358
   12.9547   12.9547   12.9620   12.9620   13.0597   13.0597   13.3090   13.3090   13.3931   13.3931
   13.5038   13.5038   13.7645   13.7645   14.5092   14.5092   14.6608   14.6608   14.7757   14.7757
   14.8408   14.8408   14.9686   14.9686   15.1526   15.1526   16.1100   16.1100   16.5601   16.5601
   16.8247   16.8247   16.9428   16.9428   17.0281   17.0281   17.1846   17.1846   17.4795   17.4795
   18.2591   18.2591   18.2621   18.2621   18.6003   18.6003   18.7659   18.7659   18.8699   18.8699
   18.9166   18.9166   19.5473   19.5473   19.9143   19.9143   20.0285   20.0285   20.2545   20.2545
   20.7530   20.7530   21.1069   21.1069   21.2169   21.2169   21.7001   21.7001   22.2870   22.2870
   22.3423   22.3423   22.8928   22.8928   23.0129   23.0129   23.2197   23.2197   23.8398   23.8398
   24.5937   24.5937   24.8329   24.8329   24.8765   24.8765   25.8309   25.8309   25.9381   25.9381
   26.1716   26.1716   26.5646   26.5646   26.6313   26.6313   27.7712   27.7712   28.0515   28.0515
   28.4649   28.4649   28.5403   28.5403   29.3042   29.3042   29.5254   29.5254   30.4996   30.4996
   30.8189   30.8189   30.8775   30.8775   30.9810   30.9810   31.4188   31.4188   31.6862   31.6862
   31.7858   31.7858   32.0802   32.0802   32.1941   32.1941   33.4090   33.4090   33.5168   33.5168
   33.7598   33.7598   34.0900   34.0900   34.5040   34.5040   34.9140   34.9140   34.9326   34.9326
   35.5213   35.5213   36.0260   36.0260   36.1888   36.1888   37.2146   37.2146   37.5652   37.5652
   37.6268   37.6268   37.8680   37.8680   38.1814   38.1814   38.4690   38.4690   38.5018   38.5018
   39.1545   39.1545   40.2889   40.2889   40.3315   40.3315   40.7710   40.7710   41.2679   41.2679
   41.7513   41.7513   41.8982   41.8982   41.9706   41.9706   43.3419   43.3419   43.5100   43.5100
   43.9527   43.9527   44.5896   44.5896   44.8719   44.8719   45.0206   45.0206   45.2162   45.2162
   45.6583   45.6583   45.7737   45.7737   46.0711   46.0711   46.6485   46.6485   47.0674   47.0674
   47.1330   47.1330   47.4791   47.4791   48.6700   48.6700   48.8382   48.8382   49.3829   49.3829
   49.7515   49.7515   50.2431   50.2431   50.3416   50.3416   50.3467   50.3467   50.5020   50.5020
   51.7656   51.7656   52.6797   52.6797   52.8065   52.8065   54.0073   54.0073   54.4055   54.4055
   54.8713   54.8713   54.9346   54.9346   56.0767   56.0767   56.1837   56.1837   56.2531   56.2531
   56.9885   56.9885   57.8146   57.8146   58.0230   58.0230   58.4420   58.4420   59.7232   59.7232
   60.1489   60.1489   61.2707   61.2707   61.7712   61.7712   62.8754   62.8754   63.4102   63.4102
   65.3263   65.3263   65.4861   65.4861   67.1058   67.1058   67.3469   67.3469   68.4719   68.4719
   68.4977   68.4977   70.6187   70.6187   72.0434   72.0434   76.5937   76.5937   88.6930   88.6930
   91.9301   91.9301   93.1113   93.1113   95.1362   95.1362   96.5450   96.5450  100.2206  100.2206
  100.8523  100.8523  102.6260  102.6260  114.3805  114.3805  118.3992  118.3992  123.3238  123.3238
  132.5153  132.5153  138.8722  138.8722
siesta: Fermi energy =      -3.835993 eV

siesta: Program's energy decomposition (eV):
siesta: Ebs     =     -1109.856816
siesta: Eions   =      3553.971015
siesta: Ena     =       374.984503
siesta: Ekin    =      2742.988063
siesta: Enl     =     -2522.668716
siesta: Eso     =        -0.004663
siesta: Edftu   =         0.000000
siesta: DEna    =        36.870255
siesta: DUscf   =        13.892231
siesta: DUext   =         0.000000
siesta: Exc     =     -1090.802856
siesta: eta*DQ  =         0.000000
siesta: Emadel  =         0.000000
siesta: Emeta   =         0.000000
siesta: Emolmec =         0.000000
siesta: Ekinion =         0.000000
siesta: Eharris =     -3998.712199
siesta: Etot    =     -3998.712199
siesta: FreeEng =     -3998.712200

siesta: Final energy (eV):
siesta:  Band Struct. =   -1109.856816
siesta:       Kinetic =    2742.988063
siesta:       Hartree =   12572.370161
siesta:       Edftu   =       0.000000
siesta:       Eso     =      -0.004663
siesta:    Ext. field =       0.000000
siesta:   Exch.-corr. =   -1090.802856
siesta:  Ion-electron =  -27581.925875
siesta:       Ion-ion =    9358.662972
siesta:       Ekinion =       0.000000
siesta:         Total =   -3998.712199
siesta:         Fermi =      -3.835993

siesta: Atomic forces (eV/Ang):
siesta:      1    0.143010   -0.027674   -0.000000
siesta:      2   -0.034134    0.043048    0.000000
siesta:      3   -0.030756   -0.017688    0.000000
siesta:      4    0.068500   -0.134448   -0.000000
siesta:      5    0.053968    0.005578   -0.000000
siesta:      6   -0.188658    0.018119    0.000000
siesta:      7    1.046276   -0.036277   -0.000001
siesta:      8   -0.640299    1.409851    0.000000
siesta:      9    0.163773   -0.997903   -0.000001
siesta:     10   -0.110216    0.134911    0.000001
siesta:     11   -0.183838   -0.366771    0.000001
siesta:     12   -0.278844    0.044384   -0.000000
siesta:     13   -0.122897   -0.050641    0.000000
siesta:     14    0.032193   -0.114347   -0.000000
siesta:     15    0.107647    0.094210    0.000000
siesta:     16   -0.106753   -0.050366   -0.000950
siesta:     17    0.035621   -0.087016   -0.000790
siesta:     18   -0.144933    0.037814    0.005207
siesta:     19    0.089196   -0.100246   -0.001430
siesta:     20    0.120354    0.077518   -0.001085
siesta:     21    0.057958   -0.024178   -0.006972
siesta:     22    0.078419    0.018377    0.138239
siesta:     23    0.004798   -0.002959   -0.009646
siesta:     24    0.072540    0.039867   -0.104852
siesta:     25   -0.635279   -0.406228    0.001042
siesta:     26    3.339441    0.397499    0.000518
siesta:     27    0.346440   -0.442745   -0.000554
siesta:     28   -0.160747    0.709299   -0.000073
siesta:     29    0.145633    0.169213   -0.000221
siesta:     30   -1.302841   -2.934516    0.000256
siesta: ----------------------------------------
siesta:    Tot    1.965572   -2.594317    0.018689

siesta: Stress tensor (static) (eV/Ang**3):
siesta:     0.000069    0.000076    0.000000
siesta:     0.000076    0.000208   -0.000004
siesta:     0.000000   -0.000004   -0.000004

siesta: Cell volume =      13500.000000 Ang**3

siesta: Pressure (static):
siesta:                Solid            Molecule  Units
siesta:          -0.00000099          0.00000624  Ry/Bohr**3
siesta:          -0.00009103          0.00057301  eV/Ang**3
siesta:          -0.14584845          0.91808015  kBar
(Free)E+ p_basis*V_orbitals  =       -3977.584115
(Free)Eharris+ p_basis*V_orbitals  =       -3977.584115
     spin moment: S , {S} =    0.00000  -0.00000   0.00000   0.00000

siesta: Electric dipole (a.u.)  =   -1.163248    1.576707   -0.001834
siesta: Electric dipole (Debye) =   -2.956683    4.007591   -0.004661

cite: Please see "AT.bib" for an exhaustive BiBTeX file.
cite: Please clearly indicate Siesta version in published work: v4.1.5-1-g384057250
cite: This calculation has made use of the following articles
cite: which are encouraged to be cited in a published work.
        Primary SIESTA paper
          DOI: www.doi.org/10.1088/0953-8984/14/11/302
        Spin-orbit coupling (on-site approximation)
          DOI: www.doi.org/10.1088/0953-8984/19/19/489001


WARNING: alloc-realloc-dealloc name mismatch
         Name: atomlist isa
         Size:              -120. Bytes
         Node:     0
         Subsequent mismatches will not be reported
>> End of run:   1-FEB-2024  20:21:19
Job completed
