Siesta Version  : v4.1.5-1-g384057250
Architecture    : gcc
Compiler version: GNU Fortran (Ubuntu 11.3.0-1ubuntu1~22.04) 11.3.0
Compiler flags  : mpifort -O2 -fPIC -ftree-vectorize -fallow-argument-mismatch
PP flags        : -DFC_HAVE_ABORT -DMPI -DSIESTA__FLOOK -DSIESTA__METIS -DSIESTA__MUMPS -DCDF -DNCDF -DNCDF_4 -DNCDF_PARALLEL -DSIESTA__MRRR -DSIESTA__ELPA
Libraries       : libncdf.a libfdict.a  -lflookall -ldl -lnetcdff -lnetcdf -lhdf5_hl -lhdf5 -lhdf5_fortran -lz -lscalapack-openmpi -lopenblas -lmetis -lzmumps -lcmumps -ldmumps -lmumps_common -lpord -lsmumps -lesmumps -lscotch -lscotcherr -fopenmp -lelpa
PARALLEL version
NetCDF support
NetCDF-4 support
NetCDF-4 MPI-IO support
METIS ordering support
Lua support

* Running on 4 nodes in parallel
>> Start of run:  12-MAY-2023  11:35:05

                           ***********************       
                           *  WELCOME TO SIESTA  *       
                           ***********************       

reinit: Reading from standard input
reinit: Dumped input in INPUT_TMP.59370
************************** Dump of input data file ****************************
# mpirun -np 4 siesta-4.1.5 < Adenine.fdf > Adenine.out
SystemLabel      Adenine
NumberOfAtoms    15
NumberOfSpecies  3
%block ChemicalSpeciesLabel
    1    1  H
    2    7  N
    3   14  Si
%endblock ChemicalSpeciesLabel
############################################
# This overrides Defaults.fdf configuration
############################################
MD.TypeOfRun                CG # CG, Verlet
AtomicCoordinatesFormat NotScaledCartesianAng
%block AtomicCoordinatesAndAtomicSpecies
    2.45678154   -5.19628603    0.00000000   1       1  H
    1.53043803   -4.68850309    0.00000000   2       2  N
   -0.05994288   -5.52124565    0.00000000   3       3  Si
   -0.00012610   -7.01526228    0.00000000   1       4  H
   -1.49856740   -4.60156292    0.00000000   2       5  N
   -0.94448620   -2.88146937    0.00000000   3       6  Si
   -1.28997922   -0.69291309    0.00000000   3       7  Si
   -2.82542950    0.15885311    0.00000000   2       8  N
   -2.86640446    1.21156880    0.00000000   1       9  H
   -3.75591339   -0.33501627    0.00000000   1      10  H
    0.09801750    0.34309317    0.00000000   2      11  N
    1.75090491   -0.12159776    0.00000000   3      12  Si
    2.70168860    1.03869620    0.00000000   1      13  H
    2.53038958   -1.67804686    0.00000000   2      14  N
    1.27127984   -2.87467609    0.00000000   3      15  Si
%endblock AtomicCoordinatesAndAtomicSpecies
%include ../../Defaults.fdf
************************** End of input data file *****************************

reinit: -----------------------------------------------------------------------
reinit: System Name: 
reinit: -----------------------------------------------------------------------
reinit: System Label: Adenine
reinit: -----------------------------------------------------------------------

initatom: Reading input for the pseudopotentials and atomic orbitals ----------
Species number:   1 Atomic number:    1 Label: H
Species number:   2 Atomic number:    7 Label: N
Species number:   3 Atomic number:   14 Label: Si

Ground state valence configuration:   1s01
Reading pseudopotential information in formatted form from H.psf

Pseudopotential generated from a relativistic atomic calculation

Valence configuration for pseudopotential generation:
1s( 1.00) rc: 0.01
2p( 0.00) rc: 0.60
3d( 0.00) rc: 1.99
4f( 0.00) rc: 2.49
Ground state valence configuration:   2s02  2p03
Reading pseudopotential information in formatted form from N.psf

Pseudopotential generated from a relativistic atomic calculation

Valence configuration for pseudopotential generation:
2s( 2.00) rc: 0.94
2p( 3.00) rc: 0.59
3d( 0.00) rc: 3.46
4f( 0.00) rc: 2.47
Ground state valence configuration:   3s02  3p02
Reading pseudopotential information in formatted form from Si.psf

Pseudopotential generated from a relativistic atomic calculation

Valence configuration for pseudopotential generation:
3s( 2.00) rc: 1.67
3p( 2.00) rc: 2.04
3d( 0.00) rc: 2.89
4f( 0.00) rc: 2.49
For H, standard SIESTA heuristics set lmxkb to 2
 (one more than the basis l, including polarization orbitals).
Use PS.lmax or PS.KBprojectors blocks to override.
For N, standard SIESTA heuristics set lmxkb to 3
 (one more than the basis l, including polarization orbitals).
Use PS.lmax or PS.KBprojectors blocks to override.
For Si, standard SIESTA heuristics set lmxkb to 3
 (one more than the basis l, including polarization orbitals).
Use PS.lmax or PS.KBprojectors blocks to override.

<basis_specs>
===============================================================================
H                    Z=   1    Mass=  1.0100        Charge= 0.17977+309
Lmxo=0 Lmxkb= 2    BasisType=split      Semic=F
L=0  Nsemic=0  Cnfigmx=1
          i=1  nzeta=2  polorb=1  (1s)
            splnorm:   0.62000    
               vcte:    0.0000    
               rinn:    0.0000    
               qcoe:    0.0000    
               qyuk:    0.0000    
               qwid:   0.10000E-01
                rcs:    0.0000      0.0000    
            lambdas:    1.0000      1.0000    
-------------------------------------------------------------------------------
L=0  Nkbl=1  erefs: 0.17977+309
L=1  Nkbl=1  erefs: 0.17977+309
L=2  Nkbl=1  erefs: 0.17977+309
===============================================================================
</basis_specs>

atom: Called for H                     (Z =   1)

read_vps: Pseudopotential generation method:
read_vps: ATM4.2.7  Troullier-Martins                       
Valence charge for ps generation:    1.00000

xc_check: Exchange-correlation functional:
xc_check: GGA Perdew, Burke & Ernzerhof 1996
V l=0 = -2*Zval/r beyond r=  0.0098
V l=1 = -2*Zval/r beyond r=  0.5817
V l=2 = -2*Zval/r beyond r=  1.9372
All V_l potentials equal beyond r=  1.9372
This should be close to max(r_c) in ps generation
All pots = -2*Zval/r beyond r=  1.9372

VLOCAL1: 99.0% of the norm of Vloc inside     11.567 Ry
VLOCAL1: 99.9% of the norm of Vloc inside     26.362 Ry
atom: Maximum radius for 4*pi*r*r*local-pseudopot. charge    2.25106
atom: Maximum radius for r*vlocal+2*Zval:    1.91306
GHOST: No ghost state for L =  0
GHOST: No ghost state for L =  1
GHOST: No ghost state for L =  2

KBgen: Kleinman-Bylander projectors: 
   l= 0   rc=  2.036604   el= -0.477180   Ekb= -6.081590   kbcos= -0.277285
   l= 1   rc=  2.195416   el=  0.001076   Ekb= -0.926943   kbcos= -0.034643
   l= 2   rc=  2.251056   el=  0.002010   Ekb= -0.130941   kbcos= -0.009788

KBgen: Total number of Kleinman-Bylander projectors:    9
atom: -------------------------------------------------------------------------

atom: SANKEY-TYPE ORBITALS:
atom: Selected multiple-zeta basis: split     

SPLIT: Orbitals with angular momentum L= 0

SPLIT: Basis orbitals for state 1s

SPLIT: PAO cut-off radius determined from an
SPLIT: energy shift=  0.002000 Ry

   izeta = 1
                 lambda =    1.000000
                     rc =    6.518340
                 energy =   -0.475305
                kinetic =    0.912139
    potential(screened) =   -1.387444
       potential(ionic) =   -1.907295

   izeta = 2
                 rmatch =    2.141150
              splitnorm =    0.620000
                 energy =    0.566467
                kinetic =    3.772856
    potential(screened) =   -3.206389
       potential(ionic) =   -3.759093

POLgen: Perturbative polarization orbital with L=  1

POLgen: Polarization orbital for state 1s

   izeta = 1
                     rc =    6.518340
                 energy =    0.533861
                kinetic =    1.121086
    potential(screened) =   -0.587225
       potential(ionic) =   -1.053027
atom: Total number of Sankey-type orbitals:  5

atm_pop: Valence configuration (for local Pseudopot. screening):
 1s( 1.00)                                                            
Vna: chval, zval:    1.00000   1.00000

Vna:  Cut-off radius for the neutral-atom potential:   6.518340

atom: _________________________________________________________________________

<basis_specs>
===============================================================================
N                    Z=   7    Mass=  14.010        Charge= 0.17977+309
Lmxo=1 Lmxkb= 3    BasisType=split      Semic=F
L=0  Nsemic=0  Cnfigmx=2
          i=1  nzeta=2  polorb=0  (2s)
            splnorm:   0.28000    
               vcte:    0.0000    
               rinn:    0.0000    
               qcoe:    0.0000    
               qyuk:    0.0000    
               qwid:   0.10000E-01
                rcs:    0.0000      0.0000    
            lambdas:    1.0000      1.0000    
L=1  Nsemic=0  Cnfigmx=2
          i=1  nzeta=2  polorb=1  (2p)
            splnorm:   0.28000    
               vcte:    0.0000    
               rinn:    0.0000    
               qcoe:    0.0000    
               qyuk:    0.0000    
               qwid:   0.10000E-01
                rcs:    0.0000      0.0000    
            lambdas:    1.0000      1.0000    
-------------------------------------------------------------------------------
L=0  Nkbl=1  erefs: 0.17977+309
L=1  Nkbl=1  erefs: 0.17977+309
L=2  Nkbl=1  erefs: 0.17977+309
L=3  Nkbl=1  erefs: 0.17977+309
===============================================================================
</basis_specs>

atom: Called for N                     (Z =   7)

read_vps: Pseudopotential generation method:
read_vps: ATM4.2.7  Troullier-Martins                       
Valence charge for ps generation:    5.00000

xc_check: Exchange-correlation functional:
xc_check: GGA Perdew, Burke & Ernzerhof 1996
V l=0 = -2*Zval/r beyond r=  1.2889
V l=1 = -2*Zval/r beyond r=  1.2889
V l=2 = -2*Zval/r beyond r=  3.4178
V l=3 = -2*Zval/r beyond r=  2.4084
All V_l potentials equal beyond r=  3.3753
This should be close to max(r_c) in ps generation
All pots = -2*Zval/r beyond r=  3.4178

VLOCAL1: 99.0% of the norm of Vloc inside      3.810 Ry
VLOCAL1: 99.9% of the norm of Vloc inside      8.683 Ry
atom: Maximum radius for 4*pi*r*r*local-pseudopot. charge    4.02088
atom: Maximum radius for r*vlocal+2*Zval:    3.54838
GHOST: No ghost state for L =  0
GHOST: No ghost state for L =  1
GHOST: No ghost state for L =  2
GHOST: No ghost state for L =  3

KBgen: Kleinman-Bylander projectors: 
   l= 0   rc=  3.417763   el= -1.365098   Ekb= -4.433130   kbcos= -0.707855
   l= 1   rc=  3.375302   el= -0.521201   Ekb=-13.264039   kbcos= -0.535594
   l= 2   rc=  3.872880   el=  0.001991   Ekb= -0.641094   kbcos= -0.062456
   l= 3   rc=  3.970931   el=  0.003093   Ekb= -0.474517   kbcos= -0.018236

KBgen: Total number of Kleinman-Bylander projectors:   16
atom: -------------------------------------------------------------------------

atom: SANKEY-TYPE ORBITALS:
atom: Selected multiple-zeta basis: split     

SPLIT: Orbitals with angular momentum L= 0

SPLIT: Basis orbitals for state 2s

SPLIT: PAO cut-off radius determined from an
SPLIT: energy shift=  0.002000 Ry

   izeta = 1
                 lambda =    1.000000
                     rc =    4.730425
                 energy =   -1.363399
                kinetic =    1.245246
    potential(screened) =   -2.608645
       potential(ionic) =   -8.121105

   izeta = 2
                 rmatch =    2.531849
              splitnorm =    0.280000
                 energy =   -0.959908
                kinetic =    2.409435
    potential(screened) =   -3.369343
       potential(ionic) =   -9.427975

SPLIT: Orbitals with angular momentum L= 1

SPLIT: Basis orbitals for state 2p

SPLIT: PAO cut-off radius determined from an
SPLIT: energy shift=  0.002000 Ry

   izeta = 1
                 lambda =    1.000000
                     rc =    5.924108
                 energy =   -0.519262
                kinetic =    3.672940
    potential(screened) =   -4.192202
       potential(ionic) =   -9.518354

   izeta = 2
                 rmatch =    2.531849
              splitnorm =    0.280000
                 energy =   -0.104258
                kinetic =    6.807538
    potential(screened) =   -6.911796
       potential(ionic) =  -13.149920

POLgen: Perturbative polarization orbital with L=  2

POLgen: Polarization orbital for state 2p

   izeta = 1
                     rc =    5.924108
                 energy =    1.427508
                kinetic =    2.872379
    potential(screened) =   -1.444871
       potential(ionic) =   -5.563644
atom: Total number of Sankey-type orbitals: 13

atm_pop: Valence configuration (for local Pseudopot. screening):
 2s( 2.00)                                                            
 2p( 3.00)                                                            
Vna: chval, zval:    5.00000   5.00000

Vna:  Cut-off radius for the neutral-atom potential:   5.924108

atom: _________________________________________________________________________

<basis_specs>
===============================================================================
Si                   Z=  14    Mass=  28.090        Charge= 0.17977+309
Lmxo=1 Lmxkb= 3    BasisType=split      Semic=F
L=0  Nsemic=0  Cnfigmx=3
          i=1  nzeta=2  polorb=0  (3s)
            splnorm:   0.28000    
               vcte:    0.0000    
               rinn:    0.0000    
               qcoe:    0.0000    
               qyuk:    0.0000    
               qwid:   0.10000E-01
                rcs:    0.0000      0.0000    
            lambdas:    1.0000      1.0000    
L=1  Nsemic=0  Cnfigmx=3
          i=1  nzeta=2  polorb=1  (3p)
            splnorm:   0.28000    
               vcte:    0.0000    
               rinn:    0.0000    
               qcoe:    0.0000    
               qyuk:    0.0000    
               qwid:   0.10000E-01
                rcs:    0.0000      0.0000    
            lambdas:    1.0000      1.0000    
-------------------------------------------------------------------------------
L=0  Nkbl=1  erefs: 0.17977+309
L=1  Nkbl=1  erefs: 0.17977+309
L=2  Nkbl=1  erefs: 0.17977+309
L=3  Nkbl=1  erefs: 0.17977+309
===============================================================================
</basis_specs>

atom: Called for Si                    (Z =  14)

read_vps: Pseudopotential generation method:
read_vps: ATM4.2.7  Troullier-Martins                       
Valence charge for ps generation:    4.00000

xc_check: Exchange-correlation functional:
xc_check: GGA Perdew, Burke & Ernzerhof 1996
V l=0 = -2*Zval/r beyond r=  2.7826
V l=1 = -2*Zval/r beyond r=  2.7826
V l=2 = -2*Zval/r beyond r=  2.9253
V l=3 = -2*Zval/r beyond r=  2.7826
All V_l potentials equal beyond r=  2.8530
This should be close to max(r_c) in ps generation
All pots = -2*Zval/r beyond r=  2.9253

VLOCAL1: 99.0% of the norm of Vloc inside      5.333 Ry
VLOCAL1: 99.9% of the norm of Vloc inside     12.154 Ry
atom: Maximum radius for 4*pi*r*r*local-pseudopot. charge    3.39869
atom: Maximum radius for r*vlocal+2*Zval:    2.96205
GHOST: No ghost state for L =  0
GHOST: No ghost state for L =  1
GHOST: No ghost state for L =  2
GHOST: No ghost state for L =  3

KBgen: Kleinman-Bylander projectors: 
   l= 0   rc=  3.075247   el= -0.794092   Ekb=  5.879390   kbcos=  0.167461
   l= 1   rc=  3.153101   el= -0.300068   Ekb=  2.642817   kbcos=  0.058301
   l= 2   rc=  3.273594   el=  0.001958   Ekb= -1.185135   kbcos= -0.104411
   l= 3   rc=  3.232927   el=  0.003046   Ekb= -0.497174   kbcos= -0.015889

KBgen: Total number of Kleinman-Bylander projectors:   16
atom: -------------------------------------------------------------------------

atom: SANKEY-TYPE ORBITALS:
atom: Selected multiple-zeta basis: split     

SPLIT: Orbitals with angular momentum L= 0

SPLIT: Basis orbitals for state 3s

SPLIT: PAO cut-off radius determined from an
SPLIT: energy shift=  0.002000 Ry

   izeta = 1
                 lambda =    1.000000
                     rc =    6.429618
                 energy =   -0.792283
                kinetic =    0.525293
    potential(screened) =   -1.317576
       potential(ionic) =   -3.744923

   izeta = 2
                 rmatch =    3.998416
              splitnorm =    0.280000
                 energy =   -0.583081
                kinetic =    1.069570
    potential(screened) =   -1.652651
       potential(ionic) =   -4.235185

SPLIT: Orbitals with angular momentum L= 1

SPLIT: Basis orbitals for state 3p

SPLIT: PAO cut-off radius determined from an
SPLIT: energy shift=  0.002000 Ry

   izeta = 1
                 lambda =    1.000000
                     rc =    8.464845
                 energy =   -0.298236
                kinetic =    0.785360
    potential(screened) =   -1.083596
       potential(ionic) =   -3.273779

   izeta = 2
                 rmatch =    4.587816
              splitnorm =    0.280000
                 energy =   -0.131871
                kinetic =    1.403687
    potential(screened) =   -1.535557
       potential(ionic) =   -4.015310

POLgen: Perturbative polarization orbital with L=  2

POLgen: Polarization orbital for state 3p

   izeta = 1
                     rc =    8.464845
                 energy =    0.321949
                kinetic =    1.055677
    potential(screened) =   -0.733728
       potential(ionic) =   -2.672950
atom: Total number of Sankey-type orbitals: 13

atm_pop: Valence configuration (for local Pseudopot. screening):
 3s( 2.00)                                                            
 3p( 2.00)                                                            
Vna: chval, zval:    4.00000   4.00000

Vna:  Cut-off radius for the neutral-atom potential:   8.464845

atom: _________________________________________________________________________

prinput: Basis input ----------------------------------------------------------

PAO.BasisType split     

%block ChemicalSpeciesLabel
    1    1 H                       # Species index, atomic number, species label
    2    7 N                       # Species index, atomic number, species label
    3   14 Si                      # Species index, atomic number, species label
%endblock ChemicalSpeciesLabel

%block PAO.Basis                 # Define Basis set
H                     1                    # Species label, number of l-shells
 n=1   0   2 P   1                   # n, l, Nzeta, Polarization, NzetaPol
   6.518      2.141   
   1.000      1.000   
N                     2                    # Species label, number of l-shells
 n=2   0   2                         # n, l, Nzeta 
   4.730      2.532   
   1.000      1.000   
 n=2   1   2 P   1                   # n, l, Nzeta, Polarization, NzetaPol
   5.924      2.532   
   1.000      1.000   
Si                    2                    # Species label, number of l-shells
 n=3   0   2                         # n, l, Nzeta 
   6.430      3.998   
   1.000      1.000   
 n=3   1   2 P   1                   # n, l, Nzeta, Polarization, NzetaPol
   8.465      4.588   
   1.000      1.000   
%endblock PAO.Basis

prinput: ----------------------------------------------------------------------

Dumping basis to NetCDF file H.ion.nc
Dumping basis to NetCDF file N.ion.nc
Dumping basis to NetCDF file Si.ion.nc
coor:   Atomic-coordinates input format  =     Cartesian coordinates
coor:                                          (in Angstroms)

siesta: Atomic coordinates (Bohr) and species
siesta:      4.64265  -9.81956   0.00000  1        1
siesta:      2.89211  -8.85999   0.00000  2        2
siesta:     -0.11328 -10.43365   0.00000  3        3
siesta:     -0.00024 -13.25693   0.00000  1        4
siesta:     -2.83188  -8.69570   0.00000  2        5
siesta:     -1.78482  -5.44519   0.00000  3        6
siesta:     -2.43771  -1.30942   0.00000  3        7
siesta:     -5.33929   0.30019   0.00000  2        8
siesta:     -5.41672   2.28953   0.00000  1        9
siesta:     -7.09765  -0.63309   0.00000  1       10
siesta:      0.18523   0.64835   0.00000  2       11
siesta:      3.30873  -0.22979   0.00000  3       12
siesta:      5.10545   1.96285   0.00000  1       13
siesta:      4.78175  -3.17105   0.00000  2       14
siesta:      2.40237  -5.43235   0.00000  3       15

siesta: Automatic unit cell vectors (Ang):
siesta:   14.779133    0.000000    0.000000
siesta:    0.000000   16.638097    0.000000
siesta:    0.000000    0.000000    9.854683

siesta: System type = molecule  

initatomlists: Number of atoms, orbitals, and projectors:     15   155   205

siesta: ******************** Simulation parameters ****************************
siesta:
siesta: The following are some of the parameters of the simulation.
siesta: A complete list of the parameters used, including default values,
siesta: can be found in file out.fdf
siesta:
redata: Spin configuration                          = spin-orbit
redata: Number of spin components                   = 8
redata: Time-Reversal Symmetry                      = F
redata: Spin spiral                                 = F
############################################################
This spin-orbit implementation uses a local approximation.
From 4.2 and onwards the full non-local approximation is implemented
You are strongly advised to use >=4.2 versions!
############################################################
redata: Long output                                 =   F
redata: Number of Atomic Species                    =        3
redata: Charge density info will appear in .RHO file
redata: Write Mulliken Pop.                         = Atomic and Orbital charges
redata: Matel table size (NRTAB)                    =     1024
redata: Mesh Cutoff                                 =   340.0000 Ry
redata: Net charge of the system                    =     0.0000 |e|
redata: Min. number of SCF Iter                     =        1
redata: Max. number of SCF Iter                     =      200
redata: SCF convergence failure will abort job
redata: SCF mix quantity                            = Hamiltonian
redata: Mix DM or H after convergence               =   F
redata: Recompute H after scf cycle                 =   F
redata: Mix DM in first SCF step                    =   T
redata: Write Pulay info on disk                    =   F
redata: New DM Occupancy tolerance                  = 0.000000000001
redata: No kicks to SCF
redata: DM Mixing Weight for Kicks                  =     0.5000
redata: Require Harris convergence for SCF          =   F
redata: Harris energy tolerance for SCF             =     0.000100 eV
redata: Require DM convergence for SCF              =   T
redata: DM tolerance for SCF                        =     0.000008
redata: Require EDM convergence for SCF             =   F
redata: EDM tolerance for SCF                       =     0.001000 eV
redata: Require H convergence for SCF               =   T
redata: Hamiltonian tolerance for SCF               =     0.000001 eV
redata: Require (free) Energy convergence for SCF   =   F
redata: (free) Energy tolerance for SCF             =     0.000100 eV
redata: Using Saved Data (generic)                  =   F
redata: Use continuation files for DM               =   F
redata: Neglect nonoverlap interactions             =   F
redata: Method of Calculation                       = Diagonalization
redata: Electronic Temperature                      =   299.9978 K
redata: Fix the spin of the system                  =   F
redata: Dynamics option                             = CG coord. optimization
redata: Variable cell                               =   F
redata: Use continuation files for CG               =   F
redata: Max atomic displ per move                   =     0.3000 Ang
redata: Maximum number of optimization moves        =      185
redata: Force tolerance                             =     0.0050 eV/Ang
mix.SCF: Pulay mixing                            = Pulay
mix.SCF:    Variant                              = stable
mix.SCF:    History steps                        = 6
mix.SCF:    Linear mixing weight                 =     0.250000
mix.SCF:    Mixing weight                        =     0.250000
mix.SCF:    SVD condition                        = 0.1000E-07
mix.SCF:    Restart steps                        = 24
mix.SCF:    Restart save steps                   = 3
mix.SCF: Spin-component mixing                   all
redata: Save all siesta data in one NC              =   F
redata: ***********************************************************************

%block SCF.Mixers
  Pulay
%endblock SCF.Mixers

%block SCF.Mixer.Pulay
  # Mixing method
  method pulay
  variant stable

  # Mixing options
  weight 0.2500
  weight.linear 0.2500
  history 6
  restart 24
  restart.save 3
%endblock SCF.Mixer.Pulay

DM_history_depth set to one: no extrapolation allowed by default for geometry relaxation
Size of DM history Fstack: 1
Total number of electrons:    50.000000
Total ionic charge:    50.000000

* ProcessorY, Blocksize:    2  24


* Orbital distribution balance (max,min):    48    24


Time-reversal symmetry not used.

siesta: k-grid: Number of k-points =     1
siesta: k-grid: Cutoff (effective) =     4.927 Ang
siesta: k-grid: Supercell and displacements
siesta: k-grid:    1   0   0      0.000
siesta: k-grid:    0   1   0      0.000
siesta: k-grid:    0   0   1      0.000

diag: Algorithm                                     = ELPA-1stage
diag: Parallel over k                               =   F
diag: Use parallel 2D distribution                  =   T
diag: Parallel block-size                           = 24
diag: Parallel distribution                         =     2 x     2
diag: Used triangular part                          = Lower
diag: Absolute tolerance                            =  0.100E-15
diag: Orthogonalization factor                      =  0.100E-05
diag: Memory factor                                 =  1.0000


ts: **************************************************************
ts: Save H and S matrices                           =    F
ts: Save DM and EDM matrices                        =    F
ts: Only save the overlap matrix S                  =    F
ts: **************************************************************

************************ Begin: TS CHECKS AND WARNINGS ************************
************************ End: TS CHECKS AND WARNINGS **************************


                     ====================================
                        Begin CG opt. move =      0
                     ====================================

outcoor: Atomic coordinates (Ang):                          
    2.45678154   -5.19628603    0.00000000   1       1  H
    1.53043803   -4.68850309    0.00000000   2       2  N
   -0.05994288   -5.52124565    0.00000000   3       3  Si
   -0.00012610   -7.01526228    0.00000000   1       4  H
   -1.49856740   -4.60156292    0.00000000   2       5  N
   -0.94448620   -2.88146937    0.00000000   3       6  Si
   -1.28997922   -0.69291309    0.00000000   3       7  Si
   -2.82542950    0.15885311    0.00000000   2       8  N
   -2.86640446    1.21156880    0.00000000   1       9  H
   -3.75591339   -0.33501627    0.00000000   1      10  H
    0.09801750    0.34309317    0.00000000   2      11  N
    1.75090491   -0.12159776    0.00000000   3      12  Si
    2.70168860    1.03869620    0.00000000   1      13  H
    2.53038958   -1.67804686    0.00000000   2      14  N
    1.27127984   -2.87467609    0.00000000   3      15  Si

outcell: Unit cell vectors (Ang):
       14.779133    0.000000    0.000000
        0.000000   16.638097    0.000000
        0.000000    0.000000    9.854683

outcell: Cell vector modules (Ang)   :   14.779133   16.638097    9.854683
outcell: Cell angles (23,13,12) (deg):     90.0000     90.0000     90.0000
outcell: Cell volume (Ang**3)        :   2423.2336
<dSpData1D:S at geom step 0
  <sparsity:sparsity for geom step 0
    nrows_g=155 nrows=48 sparsity=.3022 nnzs=7261, refcount: 8>
  <dData1D:(new from dSpData1D) n=7261, refcount: 1>
refcount: 1>
new_DM -- step:     1
Initializing Density Matrix...
DM filled with atomic data:
<dSpData2D:DM initialized from atoms
  <sparsity:sparsity for geom step 0
    nrows_g=155 nrows=48 sparsity=.3022 nnzs=7261, refcount: 9>
  <dData2D:DM n=7261 m=8, refcount: 1>
refcount: 1>
     spin moment: S , {S} =   30.00000   0.00000   0.00000  30.00000
No. of atoms with KB's overlaping orbs in proc 0. Max # of overlaps:      15     133

Initializing spin-orbit part of the Hamiltonian
  Adding spin-orbit effects for H 
  Adding spin-orbit effects for N 
  Adding spin-orbit effects for Si


New grid distribution:   1
           1       1:   90    1:   48    1:   30
           2       1:   90    1:   48   31:   60
           3       1:   90   49:   96    1:   30
           4       1:   90   49:   96   31:   60

InitMesh: MESH =   180 x   192 x   120 =     4147200
InitMesh: (bp) =    90 x    96 x    60 =      518400
InitMesh: Mesh cutoff (required, used) =   340.000   368.042 Ry
ExtMesh (bp) on 0 =   202 x   152 x   142 =     4359968
New grid distribution:   2
           1      26:   90    1:   75    1:   60
           2       1:   25    1:   75    1:   60
           3      23:   90   76:   96    1:   60
           4       1:   22   76:   96    1:   60
New grid distribution:   3
           1      35:   90    1:   62    1:   60
           2       1:   34    1:   62    1:   60
           3      36:   90   63:   96    1:   60
           4       1:   35   63:   96    1:   60
Setting up quadratic distribution...
ExtMesh (bp) on 0 =   177 x   179 x   172 =     5449476
PhiOnMesh: Number of (b)points on node 0 =               292500
PhiOnMesh: nlist on node 0 =              1756072

stepf: Fermi-Dirac step function

siesta: Program's energy decomposition (eV):
siesta: Ebs     =      -308.325451
siesta: Eions   =      1645.679058
siesta: Ena     =       215.298979
siesta: Ekin    =      1534.130993
siesta: Enl     =     -1588.027446
siesta: Eso     =        -0.001643
siesta: Edftu   =         0.000000
siesta: DEna    =        98.318720
siesta: DUscf   =        42.825996
siesta: DUext   =         0.000000
siesta: Exc     =      -591.313668
siesta: eta*DQ  =         0.000000
siesta: Emadel  =         0.000000
siesta: Emeta   =         0.000000
siesta: Emolmec =         0.000000
siesta: Ekinion =         0.000000
siesta: Eharris =     -1887.893923
siesta: Etot    =     -1934.447128
siesta: FreeEng =     -1934.447129

        iscf     Eharris(eV)        E_KS(eV)     FreeEng(eV)     dDmax    Ef(eV) dHmax(eV)
   scf:    1    -1887.893923    -1934.447128    -1934.447129  0.945797 -4.887067 19.295708
     spin moment: S , {S} =    2.00002  -0.00000  -0.00000   2.00002
timer: Routine,Calls,Time,% = IterSCF        1       6.899  32.14
   scf:    2    -1968.728110    -1957.146548    -1957.152381  0.317010 -4.044863  8.473985
     spin moment: S , {S} =    0.04776  -0.00000  -0.00000   0.04776
   scf:    3    -1959.898641    -1958.850035    -1958.850035  0.057040 -3.620858  6.531337
     spin moment: S , {S} =    0.00006  -0.00000   0.00000   0.00006
   scf:    4    -1959.609923    -1959.251366    -1959.251366  0.023794 -3.397734  4.476353
     spin moment: S , {S} =    0.00004  -0.00000   0.00000   0.00004
   scf:    5    -1959.811081    -1959.528937    -1959.528937  0.030594 -3.263549  1.730291
     spin moment: S , {S} =    0.00002  -0.00000   0.00000   0.00002
   scf:    6    -1959.735302    -1959.627508    -1959.627508  0.020978 -3.801282  0.513730
     spin moment: S , {S} =    0.00001   0.00000  -0.00000   0.00001
   scf:    7    -1959.706942    -1959.664936    -1959.664936  0.012541 -3.769748  0.206477
     spin moment: S , {S} =    0.00000   0.00000  -0.00000   0.00000
   scf:    8    -1959.685057    -1959.674565    -1959.674565  0.006011 -3.763731  0.108874
     spin moment: S , {S} =    0.00000   0.00000  -0.00000   0.00000
   scf:    9    -1959.689698    -1959.681618    -1959.681618  0.006600 -3.761161  0.077525
     spin moment: S , {S} =    0.00000   0.00000  -0.00000   0.00000
   scf:   10    -1959.694517    -1959.687158    -1959.687158  0.008946 -3.757798  0.048341
     spin moment: S , {S} =    0.00000   0.00000  -0.00000   0.00000
   scf:   11    -1959.690613    -1959.688594    -1959.688594  0.005614 -3.756435  0.025375
     spin moment: S , {S} =    0.00000   0.00000  -0.00000   0.00000
   scf:   12    -1959.689314    -1959.688902    -1959.688902  0.002925 -3.755030  0.015997
     spin moment: S , {S} =    0.00000   0.00000  -0.00000   0.00000
   scf:   13    -1959.689047    -1959.688968    -1959.688968  0.001182 -3.755376  0.009684
     spin moment: S , {S} =    0.00000   0.00000  -0.00000   0.00000
   scf:   14    -1959.689061    -1959.689009    -1959.689009  0.001072 -3.754966  0.006907
     spin moment: S , {S} =    0.00000   0.00000  -0.00000   0.00000
   scf:   15    -1959.689059    -1959.689029    -1959.689029  0.001049 -3.754728  0.002309
     spin moment: S , {S} =    0.00000   0.00000   0.00000  -0.00000
   scf:   16    -1959.689035    -1959.689032    -1959.689032  0.000304 -3.754569  0.001643
     spin moment: S , {S} =    0.00000   0.00000   0.00000  -0.00000
   scf:   17    -1959.689034    -1959.689033    -1959.689033  0.000195 -3.754508  0.000879
     spin moment: S , {S} =    0.00000   0.00000   0.00000  -0.00000
   scf:   18    -1959.689033    -1959.689033    -1959.689033  0.000092 -3.754481  0.000631
     spin moment: S , {S} =    0.00000   0.00000   0.00000  -0.00000
   scf:   19    -1959.689033    -1959.689033    -1959.689033  0.000045 -3.754476  0.000479
     spin moment: S , {S} =    0.00000   0.00000   0.00000  -0.00000
   scf:   20    -1959.689033    -1959.689033    -1959.689033  0.000036 -3.754475  0.000295
     spin moment: S , {S} =    0.00000   0.00000   0.00000  -0.00000
   scf:   21    -1959.689033    -1959.689033    -1959.689033  0.000027 -3.754468  0.000176
     spin moment: S , {S} =    0.00000   0.00000   0.00000  -0.00000
   scf:   22    -1959.689033    -1959.689033    -1959.689033  0.000013 -3.754468  0.000124
     spin moment: S , {S} =    0.00000   0.00000   0.00000  -0.00000
   scf:   23    -1959.689033    -1959.689033    -1959.689033  0.000011 -3.754472  0.000100
     spin moment: S , {S} =    0.00000   0.00000   0.00000  -0.00000
   scf:   24    -1959.689033    -1959.689033    -1959.689033  0.000006 -3.754474  0.000072
     spin moment: S , {S} =    0.00000   0.00000   0.00000  -0.00000
mix: Pulay -- resetting history
   scf:   25    -1959.689033    -1959.689033    -1959.689033  0.000005 -3.754473  0.000045
     spin moment: S , {S} =    0.00000   0.00000   0.00000  -0.00000
   scf:   26    -1959.689033    -1959.689033    -1959.689033  0.000006 -3.754472  0.000024
     spin moment: S , {S} =    0.00000   0.00000   0.00000  -0.00000
   scf:   27    -1959.689033    -1959.689033    -1959.689033  0.000003 -3.754472  0.000010
     spin moment: S , {S} =    0.00000   0.00000   0.00000  -0.00000
   scf:   28    -1959.689033    -1959.689033    -1959.689033  0.000001 -3.754472  0.000006
     spin moment: S , {S} =    0.00000   0.00000   0.00000  -0.00000
   scf:   29    -1959.689033    -1959.689033    -1959.689033  0.000001 -3.754472  0.000004
     spin moment: S , {S} =    0.00000   0.00000   0.00000  -0.00000
   scf:   30    -1959.689033    -1959.689033    -1959.689033  0.000001 -3.754472  0.000002
     spin moment: S , {S} =    0.00000   0.00000   0.00000  -0.00000
   scf:   31    -1959.689033    -1959.689033    -1959.689033  0.000000 -3.754472  0.000001
     spin moment: S , {S} =    0.00000   0.00000   0.00000  -0.00000

SCF Convergence by DM+H criterion
max |DM_out - DM_in|         :     0.0000001934
max |H_out - H_in|      (eV) :     0.0000006379
SCF cycle converged after 31 iterations

Using DM_out to compute the final energy and forces
No. of atoms with KB's overlaping orbs in proc 0. Max # of overlaps:      15     133

siesta: E_KS(eV) =            -1959.6890

siesta: E_KS - E_eggbox =     -1959.6890
     spin moment: S , {S} =    0.00000   0.00000   0.00000  -0.00000

siesta: Atomic forces (eV/Ang):
     1    0.172110   -0.070965   -0.000000
     2    0.005022    0.001840   -0.000000
     3    0.007593    0.002103   -0.000000
     4   -0.001913   -0.194389    0.000000
     5   -0.018031   -0.003151    0.000000
     6   -0.003197   -0.004440   -0.000000
     7   -0.002525   -0.004427    0.000000
     8   -0.000396   -0.002479   -0.000000
     9   -0.189612   -0.024715    0.000000
    10    0.005284    0.040556   -0.000000
    11   -0.003120   -0.005110   -0.000000
    12    0.002372    0.005650    0.000000
    13    0.129043   -0.013838    0.000000
    14   -0.006430    0.008032   -0.000000
    15   -0.005736   -0.006933    0.000000
----------------------------------------
   Tot    0.090464   -0.272265   -0.000000
----------------------------------------
   Max    0.194389
   Res    0.053391    sqrt( Sum f_i^2 / 3N )
----------------------------------------
   Max    0.194389    constrained

Stress tensor Voigt[x,y,z,yz,xz,xy] (kbar):        0.14        0.09        0.02       -0.00        0.00        0.17
(Free)E + p*V (eV/cell)    -1959.8160
Target enthalpy (eV/cell)    -1959.6890

mulliken: Atomic and Orbital Populations:

Species: H                   

Atom      Orb        Charge      Spin       Svec
----------------------------------------------------------------
    1  1 1s         0.50517   0.00000      0.000  -0.000   0.000
    1  2 1s         0.18913   0.00000     -0.000  -0.000   0.000
    1  3 2Ppy       0.02762   0.00000      0.000  -0.000  -0.000
    1  4 2Ppz       0.03916   0.00000     -0.000   0.000   0.000
    1  5 2Ppx       0.02490   0.00000      0.000   0.000   0.000
    1     Total     0.78597   0.00000      0.000   0.000   0.000

    4  1 1s         1.01859   0.00000      0.000  -0.000  -0.000
    4  2 1s         0.09603   0.00000     -0.000   0.000   0.000
    4  3 2Ppy       0.03965   0.00000     -0.000  -0.000   0.000
    4  4 2Ppz       0.01916   0.00000      0.000  -0.000   0.000
    4  5 2Ppx       0.01355   0.00000      0.000   0.000  -0.000
    4     Total     1.18698   0.00000      0.000  -0.000  -0.000

    9  1 1s         0.48542   0.00000      0.000   0.000   0.000
    9  2 1s         0.19470   0.00000     -0.000  -0.000   0.000
    9  3 2Ppy       0.02318   0.00000      0.000   0.000  -0.000
    9  4 2Ppz       0.05085   0.00000      0.000  -0.000   0.000
    9  5 2Ppx       0.01303   0.00000      0.000  -0.000   0.000
    9     Total     0.76717   0.00000      0.000   0.000   0.000

   10  1 1s         0.48225   0.00000      0.000   0.000   0.000
   10  2 1s         0.19587   0.00000     -0.000  -0.000   0.000
   10  3 2Ppy       0.00702   0.00000      0.000   0.000  -0.000
   10  4 2Ppz       0.05318   0.00000     -0.000  -0.000   0.000
   10  5 2Ppx       0.02908   0.00000      0.000   0.000  -0.000
   10     Total     0.76740   0.00000      0.000   0.000   0.000

   13  1 1s         1.01855   0.00000      0.000  -0.000   0.000
   13  2 1s         0.09951   0.00000     -0.000   0.000  -0.000
   13  3 2Ppy       0.02435   0.00000      0.000   0.000   0.000
   13  4 2Ppz       0.01490   0.00000      0.000   0.000  -0.000
   13  5 2Ppx       0.01698   0.00000      0.000  -0.000   0.000
   13     Total     1.17428   0.00000      0.000  -0.000   0.000

----------------------------------------------------------------
Total               4.68180   0.00000      0.000  -0.000  -0.000


Species: N                   

Atom      Orb        Charge      Spin       Svec
----------------------------------------------------------------
    2  1 2s         1.37995   0.00000     -0.000   0.000  -0.000
    2  2 2s         0.12699   0.00000      0.000   0.000  -0.000
    2  3 2py        1.06692   0.00000     -0.000   0.000  -0.000
    2  4 2pz        1.49599   0.00000      0.000   0.000  -0.000
    2  5 2px        1.01915   0.00000     -0.000   0.000  -0.000
    2  6 2py        0.19657   0.00000     -0.000  -0.000  -0.000
    2  7 2pz        0.01381   0.00000     -0.000   0.000  -0.000
    2  8 2px        0.20998   0.00000      0.000  -0.000  -0.000
    2  9 3Pdxy      0.00664   0.00000      0.000  -0.000   0.000
    2 10 3Pdyz      0.00596   0.00000      0.000  -0.000  -0.000
    2 11 3Pdz2      0.00148   0.00000      0.000  -0.000   0.000
    2 12 3Pdxz      0.00303   0.00000      0.000  -0.000   0.000
    2 13 3Pdx2-y2   0.00293   0.00000     -0.000  -0.000  -0.000
    2     Total     5.52939   0.00000     -0.000   0.000  -0.000

    5  1 2s         1.55851   0.00000      0.000   0.000  -0.000
    5  2 2s         0.08083   0.00000     -0.000  -0.000   0.000
    5  3 2py        0.90199   0.00000      0.000   0.000  -0.000
    5  4 2pz        1.22464   0.00000     -0.000   0.000  -0.000
    5  5 2px        1.13892   0.00000     -0.000  -0.000  -0.000
    5  6 2py        0.23063   0.00000     -0.000   0.000   0.000
    5  7 2pz        0.05535   0.00000      0.000  -0.000   0.000
    5  8 2px        0.14782   0.00000     -0.000   0.000   0.000
    5  9 3Pdxy      0.00858   0.00000      0.000  -0.000   0.000
    5 10 3Pdyz      0.00686   0.00000     -0.000  -0.000   0.000
    5 11 3Pdz2      0.00190   0.00000     -0.000  -0.000   0.000
    5 12 3Pdxz      0.01134   0.00000     -0.000   0.000   0.000
    5 13 3Pdx2-y2   0.00923   0.00000     -0.000   0.000  -0.000
    5     Total     5.37659   0.00000     -0.000   0.000  -0.000

    8  1 2s         1.28421   0.00000      0.000  -0.000   0.000
    8  2 2s         0.17148   0.00000     -0.000   0.000  -0.000
    8  3 2py        1.05790   0.00000     -0.000   0.000  -0.000
    8  4 2pz        1.57471   0.00000      0.000  -0.000  -0.000
    8  5 2px        1.00437   0.00000     -0.000  -0.000  -0.000
    8  6 2py        0.19543   0.00000      0.000   0.000  -0.000
    8  7 2pz        0.02731   0.00000     -0.000  -0.000  -0.000
    8  8 2px        0.22914   0.00000      0.000  -0.000  -0.000
    8  9 3Pdxy      0.00266   0.00000     -0.000  -0.000  -0.000
    8 10 3Pdyz      0.00082   0.00000      0.000  -0.000  -0.000
    8 11 3Pdz2      0.00273   0.00000     -0.000   0.000  -0.000
    8 12 3Pdxz      0.00246   0.00000      0.000   0.000  -0.000
    8 13 3Pdx2-y2   0.00445   0.00000      0.000   0.000  -0.000
    8     Total     5.55767   0.00000     -0.000  -0.000  -0.000

   11  1 2s         1.45657   0.00000      0.000   0.000   0.000
   11  2 2s         0.11478   0.00000     -0.000  -0.000  -0.000
   11  3 2py        1.22608   0.00000      0.000   0.000  -0.000
   11  4 2pz        1.28752   0.00000     -0.000   0.000   0.000
   11  5 2px        0.79876   0.00000     -0.000  -0.000   0.000
   11  6 2py        0.11155   0.00000     -0.000  -0.000  -0.000
   11  7 2pz        0.04623   0.00000      0.000   0.000  -0.000
   11  8 2px        0.31799   0.00000      0.000   0.000  -0.000
   11  9 3Pdxy      0.00733   0.00000      0.000  -0.000   0.000
   11 10 3Pdyz      0.00602   0.00000      0.000  -0.000  -0.000
   11 11 3Pdz2      0.00053   0.00000      0.000   0.000  -0.000
   11 12 3Pdxz      0.00505   0.00000      0.000   0.000  -0.000
   11 13 3Pdx2-y2   0.00520   0.00000     -0.000  -0.000   0.000
   11     Total     5.38362   0.00000      0.000   0.000   0.000

   14  1 2s         1.50746   0.00000      0.000  -0.000   0.000
   14  2 2s         0.10208   0.00000     -0.000   0.000  -0.000
   14  3 2py        0.84470   0.00000      0.000   0.000   0.000
   14  4 2pz        1.23591   0.00000      0.000  -0.000   0.000
   14  5 2px        1.17600   0.00000      0.000  -0.000   0.000
   14  6 2py        0.27745   0.00000     -0.000  -0.000  -0.000
   14  7 2pz        0.05465   0.00000     -0.000   0.000  -0.000
   14  8 2px        0.13248   0.00000     -0.000   0.000  -0.000
   14  9 3Pdxy      0.00952   0.00000      0.000  -0.000   0.000
   14 10 3Pdyz      0.00498   0.00000      0.000   0.000  -0.000
   14 11 3Pdz2      0.00147   0.00000      0.000   0.000   0.000
   14 12 3Pdxz      0.01070   0.00000      0.000   0.000  -0.000
   14 13 3Pdx2-y2   0.00794   0.00000     -0.000   0.000   0.000
   14     Total     5.36533   0.00000      0.000  -0.000   0.000

----------------------------------------------------------------
Total              31.89441   0.00000      0.000  -0.000   0.000


Species: Si                  

Atom      Orb        Charge      Spin       Svec
----------------------------------------------------------------
    3  1 3s         0.55176   0.00000      0.000   0.000   0.000
    3  2 3s         0.38864   0.00000     -0.000  -0.000   0.000
    3  3 3py        0.07453   0.00000     -0.000   0.000   0.000
    3  4 3pz        0.51918   0.00000      0.000  -0.000   0.000
    3  5 3px        0.36596   0.00000     -0.000   0.000   0.000
    3  6 3py        0.50630   0.00000     -0.000  -0.000  -0.000
    3  7 3pz        0.17920   0.00000     -0.000   0.000   0.000
    3  8 3px        0.23804   0.00000      0.000  -0.000   0.000
    3  9 3Pdxy      0.10800   0.00000      0.000   0.000   0.000
    3 10 3Pdyz      0.05102   0.00000      0.000  -0.000   0.000
    3 11 3Pdz2      0.00988   0.00000     -0.000  -0.000  -0.000
    3 12 3Pdxz      0.13149   0.00000      0.000   0.000   0.000
    3 13 3Pdx2-y2   0.32271   0.00000      0.000  -0.000   0.000
    3     Total     3.44671   0.00000      0.000  -0.000   0.000

    6  1 3s         0.66004   0.00000      0.000   0.000   0.000
    6  2 3s         0.37111   0.00000     -0.000   0.000   0.000
    6  3 3py        0.13100   0.00000      0.000  -0.000   0.000
    6  4 3pz        0.68857   0.00000      0.000   0.000   0.000
    6  5 3px        0.48910   0.00000     -0.000  -0.000   0.000
    6  6 3py        0.46600   0.00000     -0.000   0.000   0.000
    6  7 3pz        0.24448   0.00000     -0.000  -0.000   0.000
    6  8 3px        0.24667   0.00000      0.000   0.000   0.000
    6  9 3Pdxy      0.18600   0.00000     -0.000   0.000   0.000
    6 10 3Pdyz      0.14981   0.00000     -0.000   0.000   0.000
    6 11 3Pdz2      0.01154   0.00000      0.000  -0.000  -0.000
    6 12 3Pdxz      0.03676   0.00000     -0.000   0.000  -0.000
    6 13 3Pdx2-y2   0.18896   0.00000     -0.000  -0.000  -0.000
    6     Total     3.87004   0.00000      0.000   0.000   0.000

    7  1 3s         0.62784   0.00000     -0.000  -0.000   0.000
    7  2 3s         0.36869   0.00000      0.000   0.000  -0.000
    7  3 3py        0.37258   0.00000     -0.000  -0.000  -0.000
    7  4 3pz        0.49815   0.00000     -0.000  -0.000  -0.000
    7  5 3px        0.07889   0.00000     -0.000   0.000  -0.000
    7  6 3py        0.30413   0.00000     -0.000   0.000  -0.000
    7  7 3pz        0.20796   0.00000      0.000   0.000  -0.000
    7  8 3px        0.42135   0.00000      0.000  -0.000   0.000
    7  9 3Pdxy      0.20471   0.00000      0.000  -0.000   0.000
    7 10 3Pdyz      0.14447   0.00000     -0.000  -0.000   0.000
    7 11 3Pdz2      0.01076   0.00000      0.000  -0.000   0.000
    7 12 3Pdxz      0.14928   0.00000     -0.000  -0.000  -0.000
    7 13 3Pdx2-y2   0.24155   0.00000     -0.000  -0.000  -0.000
    7     Total     3.63035   0.00000     -0.000  -0.000  -0.000

   12  1 3s         0.52448   0.00000     -0.000   0.000  -0.000
   12  2 3s         0.40245   0.00000      0.000  -0.000  -0.000
   12  3 3py        0.23252   0.00000     -0.000  -0.000  -0.000
   12  4 3pz        0.44583   0.00000      0.000   0.000  -0.000
   12  5 3px        0.29300   0.00000     -0.000  -0.000  -0.000
   12  6 3py        0.39319   0.00000      0.000   0.000  -0.000
   12  7 3pz        0.17018   0.00000      0.000   0.000  -0.000
   12  8 3px        0.34169   0.00000      0.000   0.000   0.000
   12  9 3Pdxy      0.38973   0.00000      0.000   0.000  -0.000
   12 10 3Pdyz      0.08129   0.00000     -0.000  -0.000  -0.000
   12 11 3Pdz2      0.01072   0.00000      0.000   0.000  -0.000
   12 12 3Pdxz      0.09324   0.00000      0.000   0.000  -0.000
   12 13 3Pdx2-y2   0.16620   0.00000     -0.000   0.000  -0.000
   12     Total     3.54454   0.00000     -0.000   0.000  -0.000

   15  1 3s         0.65912   0.00000     -0.000   0.000  -0.000
   15  2 3s         0.36801   0.00000     -0.000  -0.000  -0.000
   15  3 3py       -0.03238   0.00000     -0.000  -0.000  -0.000
   15  4 3pz        0.50664   0.00000      0.000  -0.000  -0.000
   15  5 3px        0.38639   0.00000     -0.000   0.000  -0.000
   15  6 3py        0.47556   0.00000      0.000   0.000   0.000
   15  7 3pz        0.20142   0.00000     -0.000   0.000  -0.000
   15  8 3px        0.34132   0.00000      0.000  -0.000   0.000
   15  9 3Pdxy      0.14167   0.00000     -0.000  -0.000   0.000
   15 10 3Pdyz      0.12654   0.00000     -0.000   0.000  -0.000
   15 11 3Pdz2      0.01380   0.00000      0.000   0.000  -0.000
   15 12 3Pdxz      0.12393   0.00000     -0.000   0.000  -0.000
   15 13 3Pdx2-y2   0.30194   0.00000     -0.000   0.000  -0.000
   15     Total     3.61396   0.00000     -0.000  -0.000  -0.000

----------------------------------------------------------------
Total              50.00000   0.00000      0.000   0.000  -0.000


                     ====================================
                        Begin CG opt. move =      1
                     ====================================

outcoor: Atomic coordinates (Ang):                          
    2.60094427   -5.25572758   -0.00000000   1       1  H
    1.53464419   -4.68696178   -0.00000001   2       2  N
   -0.05358252   -5.51948441   -0.00000000   3       3  Si
   -0.00172854   -7.17808648    0.00000000   1       4  H
   -1.51367083   -4.60420216    0.00000001   2       5  N
   -0.94716382   -2.88518805   -0.00000001   3       6  Si
   -1.29209384   -0.69662099    0.00000003   3       7  Si
   -2.82576125    0.15677644   -0.00000000   2       8  N
   -3.02522771    1.19086718    0.00000001   1       9  H
   -3.75148752   -0.30104574   -0.00000001   1      10  H
    0.09540422    0.33881282   -0.00000002   2      11  N
    1.75289162   -0.11686535    0.00000002   3      12  Si
    2.80977790    1.02710523    0.00000001   1      13  H
    2.52500403   -1.67131948   -0.00000003   2      14  N
    1.26647505   -2.88048318    0.00000000   3      15  Si

outcell: Unit cell vectors (Ang):
       14.779133    0.000000    0.000000
        0.000000   16.638097    0.000000
        0.000000    0.000000    9.854683

outcell: Cell vector modules (Ang)   :   14.779133   16.638097    9.854683
outcell: Cell angles (23,13,12) (deg):     90.0000     90.0000     90.0000
outcell: Cell volume (Ang**3)        :   2423.2336
<dSpData1D:S at geom step 1
  <sparsity:sparsity for geom step 1
    nrows_g=155 nrows=48 sparsity=.3019 nnzs=7253, refcount: 8>
  <dData1D:(new from dSpData1D) n=7253, refcount: 1>
refcount: 1>
new_DM -- step:     2
Re-using DM from previous geometries...
Number of DMs in history: 1
 DM extrapolation coefficients: 
1   1.00000
New DM after history re-use:
<dSpData2D:SpM extrapolated using coords
  <sparsity:sparsity for geom step 1
    nrows_g=155 nrows=48 sparsity=.3019 nnzs=7253, refcount: 10>
  <dData2D:(temp array for extrapolation) n=7253 m=8, refcount: 1>
refcount: 1>
     spin moment: S , {S} =    0.00000  -0.00000  -0.00000  -0.00000
Note: For starting DM, Qtot, Tr[D*S] =         50.00000000         49.78052374
No. of atoms with KB's overlaping orbs in proc 0. Max # of overlaps:      15     133
New grid distribution:   1
           1       1:   90    1:   48    1:   30
           2       1:   90    1:   48   31:   60
           3       1:   90   49:   96    1:   30
           4       1:   90   49:   96   31:   60

InitMesh: MESH =   180 x   192 x   120 =     4147200
InitMesh: (bp) =    90 x    96 x    60 =      518400
InitMesh: Mesh cutoff (required, used) =   340.000   368.042 Ry
ExtMesh (bp) on 0 =   202 x   152 x   142 =     4359968
New grid distribution:   2
           1      25:   90    1:   76    1:   60
           2       1:   24    1:   76    1:   60
           3      24:   90   77:   96    1:   60
           4       1:   23   77:   96    1:   60
New grid distribution:   3
           1      35:   90    1:   62    1:   60
           2       1:   34    1:   62    1:   60
           3      36:   90   63:   96    1:   60
           4       1:   35   63:   96    1:   60
Setting up quadratic distribution...
ExtMesh (bp) on 0 =   178 x   180 x   172 =     5510880
PhiOnMesh: Number of (b)points on node 0 =               300960
PhiOnMesh: nlist on node 0 =              1846085

        iscf     Eharris(eV)        E_KS(eV)     FreeEng(eV)     dDmax    Ef(eV) dHmax(eV)
   scf:    1    -1957.033238    -1958.228042    -1958.228042  0.092048 -3.578342  2.804149
     spin moment: S , {S} =    0.00000  -0.00000   0.00000   0.00000
   scf:    2    -1940.386202    -1953.295608    -1953.295608  0.207586 -4.504842  8.066786
     spin moment: S , {S} =    0.00000  -0.00000  -0.00000  -0.00000
   scf:    3    -1960.791920    -1959.036114    -1959.036114  0.140624 -3.592672  0.422423
     spin moment: S , {S} =    0.00000  -0.00000  -0.00000  -0.00000
   scf:    4    -1959.062010    -1959.055188    -1959.055188  0.011325 -3.584044  0.273532
     spin moment: S , {S} =    0.00000  -0.00000  -0.00000  -0.00000
   scf:    5    -1959.057682    -1959.056678    -1959.056678  0.002140 -3.602684  0.125302
     spin moment: S , {S} =    0.00000  -0.00000  -0.00000  -0.00000
   scf:    6    -1959.057316    -1959.057114    -1959.057114  0.001401 -3.615768  0.025290
     spin moment: S , {S} =    0.00000  -0.00000  -0.00000  -0.00000
   scf:    7    -1959.057166    -1959.057148    -1959.057148  0.000320 -3.619210  0.004616
     spin moment: S , {S} =    0.00000  -0.00000   0.00000  -0.00000
   scf:    8    -1959.057156    -1959.057152    -1959.057152  0.000150 -3.620282  0.001698
     spin moment: S , {S} =    0.00000  -0.00000  -0.00000  -0.00000
   scf:    9    -1959.057154    -1959.057153    -1959.057153  0.000075 -3.620905  0.001061
     spin moment: S , {S} =    0.00000  -0.00000  -0.00000  -0.00000
   scf:   10    -1959.057154    -1959.057153    -1959.057153  0.000045 -3.621341  0.000640
     spin moment: S , {S} =    0.00000  -0.00000  -0.00000  -0.00000
   scf:   11    -1959.057154    -1959.057153    -1959.057153  0.000030 -3.621481  0.000232
     spin moment: S , {S} =    0.00000  -0.00000  -0.00000  -0.00000
   scf:   12    -1959.057154    -1959.057153    -1959.057153  0.000009 -3.621530  0.000126
     spin moment: S , {S} =    0.00000  -0.00000  -0.00000  -0.00000
   scf:   13    -1959.057153    -1959.057153    -1959.057153  0.000003 -3.621531  0.000068
     spin moment: S , {S} =    0.00000  -0.00000  -0.00000  -0.00000
   scf:   14    -1959.057153    -1959.057153    -1959.057153  0.000003 -3.621534  0.000023
     spin moment: S , {S} =    0.00000  -0.00000  -0.00000  -0.00000
   scf:   15    -1959.057153    -1959.057153    -1959.057153  0.000001 -3.621533  0.000010
     spin moment: S , {S} =    0.00000  -0.00000  -0.00000  -0.00000
   scf:   16    -1959.057153    -1959.057153    -1959.057153  0.000000 -3.621533  0.000006
     spin moment: S , {S} =    0.00000  -0.00000  -0.00000  -0.00000
   scf:   17    -1959.057153    -1959.057153    -1959.057153  0.000000 -3.621533  0.000001
     spin moment: S , {S} =    0.00000  -0.00000  -0.00000  -0.00000

SCF Convergence by DM+H criterion
max |DM_out - DM_in|         :     0.0000001703
max |H_out - H_in|      (eV) :     0.0000009243
SCF cycle converged after 17 iterations

Using DM_out to compute the final energy and forces
No. of atoms with KB's overlaping orbs in proc 0. Max # of overlaps:      15     133

siesta: E_KS(eV) =            -1959.0572
     spin moment: S , {S} =    0.00000  -0.00000  -0.00000  -0.00000

siesta: Atomic forces (eV/Ang):
     1   -3.191069    1.648916   -0.000000
     2    3.147199   -1.696844    0.000000
     3   -0.265260   -1.960847    0.000000
     4   -0.026245    1.901131   -0.000000
     5    0.293797   -0.186025    0.000000
     6   -0.034116   -0.018133   -0.000000
     7    0.026468    0.244825   -0.000000
     8   -0.098116    0.561468   -0.000000
     9    0.729989    0.278567   -0.000000
    10   -0.631108   -0.977631    0.000000
    11    0.142674    0.061369    0.000000
    12    0.509398    0.554886   -0.000000
    13   -0.814826   -0.484244    0.000000
    14   -0.101133   -0.309316    0.000000
    15    0.234682    0.341622   -0.000000
----------------------------------------
   Tot   -0.077667   -0.040258   -0.000000
----------------------------------------
   Max    3.191069
   Res    0.912340    sqrt( Sum f_i^2 / 3N )
----------------------------------------
   Max    3.191069    constrained

Stress tensor Voigt[x,y,z,yz,xz,xy] (kbar):        3.25        2.80        0.02       -0.00        0.00       -1.57
(Free)E + p*V (eV/cell)    -1962.1201
Target enthalpy (eV/cell)    -1959.0572

mulliken: Atomic and Orbital Populations:

Species: H                   

Atom      Orb        Charge      Spin       Svec
----------------------------------------------------------------
    1  1 1s         0.60319   0.00000     -0.000   0.000   0.000
    1  2 1s         0.13163   0.00000      0.000  -0.000  -0.000
    1  3 2Ppy       0.02213   0.00000      0.000  -0.000  -0.000
    1  4 2Ppz       0.02961   0.00000     -0.000   0.000  -0.000
    1  5 2Ppx       0.02559   0.00000      0.000   0.000   0.000
    1     Total     0.81214   0.00000      0.000   0.000   0.000

    4  1 1s         1.03490   0.00000      0.000  -0.000  -0.000
    4  2 1s         0.07130   0.00000     -0.000   0.000  -0.000
    4  3 2Ppy       0.04328   0.00000     -0.000  -0.000   0.000
    4  4 2Ppz       0.01459   0.00000      0.000  -0.000   0.000
    4  5 2Ppx       0.01015   0.00000      0.000  -0.000   0.000
    4     Total     1.17422   0.00000      0.000  -0.000   0.000

    9  1 1s         0.48876   0.00000     -0.000  -0.000  -0.000
    9  2 1s         0.19323   0.00000     -0.000   0.000   0.000
    9  3 2Ppy       0.02065   0.00000     -0.000  -0.000   0.000
    9  4 2Ppz       0.05153   0.00000     -0.000   0.000   0.000
    9  5 2Ppx       0.01464   0.00000     -0.000  -0.000  -0.000
    9     Total     0.76881   0.00000     -0.000  -0.000  -0.000

   10  1 1s         0.46988   0.00000      0.000  -0.000   0.000
   10  2 1s         0.20293   0.00000     -0.000   0.000  -0.000
   10  3 2Ppy       0.00608   0.00000     -0.000  -0.000   0.000
   10  4 2Ppz       0.05495   0.00000      0.000  -0.000   0.000
   10  5 2Ppx       0.02872   0.00000     -0.000  -0.000   0.000
   10     Total     0.76256   0.00000      0.000  -0.000   0.000

   13  1 1s         1.02884   0.00000     -0.000   0.000  -0.000
   13  2 1s         0.08922   0.00000      0.000  -0.000   0.000
   13  3 2Ppy       0.02147   0.00000      0.000   0.000   0.000
   13  4 2Ppz       0.01370   0.00000     -0.000   0.000   0.000
   13  5 2Ppx       0.02154   0.00000      0.000  -0.000  -0.000
   13     Total     1.17478   0.00000     -0.000   0.000  -0.000

----------------------------------------------------------------
Total               4.69252   0.00000     -0.000  -0.000   0.000


Species: N                   

Atom      Orb        Charge      Spin       Svec
----------------------------------------------------------------
    2  1 2s         1.42936   0.00000     -0.000  -0.000  -0.000
    2  2 2s         0.10884   0.00000      0.000   0.000   0.000
    2  3 2py        1.04488   0.00000      0.000   0.000  -0.000
    2  4 2pz        1.49670   0.00000      0.000  -0.000  -0.000
    2  5 2px        0.98706   0.00000      0.000  -0.000  -0.000
    2  6 2py        0.19734   0.00000     -0.000  -0.000   0.000
    2  7 2pz        0.01364   0.00000     -0.000  -0.000  -0.000
    2  8 2px        0.19205   0.00000     -0.000   0.000   0.000
    2  9 3Pdxy      0.00776   0.00000      0.000   0.000   0.000
    2 10 3Pdyz      0.00599   0.00000      0.000   0.000   0.000
    2 11 3Pdz2      0.00164   0.00000      0.000  -0.000   0.000
    2 12 3Pdxz      0.00355   0.00000      0.000  -0.000   0.000
    2 13 3Pdx2-y2   0.00392   0.00000      0.000  -0.000  -0.000
    2     Total     5.49274   0.00000      0.000  -0.000  -0.000

    5  1 2s         1.57602   0.00000      0.000   0.000  -0.000
    5  2 2s         0.07471   0.00000     -0.000  -0.000   0.000
    5  3 2py        0.90327   0.00000      0.000  -0.000  -0.000
    5  4 2pz        1.23345   0.00000      0.000   0.000  -0.000
    5  5 2px        1.12557   0.00000     -0.000   0.000  -0.000
    5  6 2py        0.22611   0.00000     -0.000   0.000  -0.000
    5  7 2pz        0.05405   0.00000     -0.000  -0.000   0.000
    5  8 2px        0.14484   0.00000      0.000   0.000  -0.000
    5  9 3Pdxy      0.00908   0.00000      0.000   0.000   0.000
    5 10 3Pdyz      0.00677   0.00000      0.000   0.000  -0.000
    5 11 3Pdz2      0.00211   0.00000      0.000   0.000  -0.000
    5 12 3Pdxz      0.01131   0.00000     -0.000  -0.000   0.000
    5 13 3Pdx2-y2   0.00917   0.00000     -0.000  -0.000   0.000
    5     Total     5.37646   0.00000      0.000   0.000  -0.000

    8  1 2s         1.27967   0.00000      0.000   0.000  -0.000
    8  2 2s         0.17399   0.00000     -0.000  -0.000   0.000
    8  3 2py        1.05432   0.00000     -0.000  -0.000   0.000
    8  4 2pz        1.57072   0.00000     -0.000  -0.000   0.000
    8  5 2px        1.01866   0.00000      0.000   0.000   0.000
    8  6 2py        0.19798   0.00000      0.000   0.000  -0.000
    8  7 2pz        0.02977   0.00000     -0.000  -0.000   0.000
    8  8 2px        0.22762   0.00000     -0.000  -0.000  -0.000
    8  9 3Pdxy      0.00337   0.00000      0.000  -0.000   0.000
    8 10 3Pdyz      0.00080   0.00000      0.000  -0.000  -0.000
    8 11 3Pdz2      0.00300   0.00000     -0.000  -0.000   0.000
    8 12 3Pdxz      0.00211   0.00000      0.000   0.000  -0.000
    8 13 3Pdx2-y2   0.00395   0.00000      0.000   0.000   0.000
    8     Total     5.56599   0.00000      0.000   0.000   0.000

   11  1 2s         1.45344   0.00000      0.000   0.000   0.000
   11  2 2s         0.11608   0.00000     -0.000  -0.000  -0.000
   11  3 2py        1.22793   0.00000      0.000   0.000  -0.000
   11  4 2pz        1.28913   0.00000      0.000   0.000  -0.000
   11  5 2px        0.79452   0.00000     -0.000   0.000  -0.000
   11  6 2py        0.11191   0.00000     -0.000  -0.000   0.000
   11  7 2pz        0.04644   0.00000     -0.000  -0.000   0.000
   11  8 2px        0.31890   0.00000      0.000  -0.000   0.000
   11  9 3Pdxy      0.00714   0.00000     -0.000  -0.000   0.000
   11 10 3Pdyz      0.00598   0.00000     -0.000  -0.000  -0.000
   11 11 3Pdz2      0.00067   0.00000     -0.000  -0.000  -0.000
   11 12 3Pdxz      0.00508   0.00000     -0.000  -0.000  -0.000
   11 13 3Pdx2-y2   0.00547   0.00000     -0.000  -0.000   0.000
   11     Total     5.38269   0.00000      0.000   0.000  -0.000

   14  1 2s         1.50801   0.00000      0.000   0.000   0.000
   14  2 2s         0.10216   0.00000     -0.000  -0.000  -0.000
   14  3 2py        0.84545   0.00000      0.000  -0.000   0.000
   14  4 2pz        1.23597   0.00000     -0.000   0.000  -0.000
   14  5 2px        1.17913   0.00000      0.000   0.000  -0.000
   14  6 2py        0.27634   0.00000     -0.000   0.000   0.000
   14  7 2pz        0.05415   0.00000      0.000  -0.000   0.000
   14  8 2px        0.13033   0.00000     -0.000  -0.000   0.000
   14  9 3Pdxy      0.00962   0.00000      0.000   0.000   0.000
   14 10 3Pdyz      0.00502   0.00000     -0.000  -0.000  -0.000
   14 11 3Pdz2      0.00145   0.00000      0.000   0.000   0.000
   14 12 3Pdxz      0.01056   0.00000     -0.000  -0.000  -0.000
   14 13 3Pdx2-y2   0.00774   0.00000     -0.000  -0.000  -0.000
   14     Total     5.36592   0.00000      0.000   0.000   0.000

----------------------------------------------------------------
Total              31.87631   0.00000      0.000   0.000  -0.000


Species: Si                  

Atom      Orb        Charge      Spin       Svec
----------------------------------------------------------------
    3  1 3s         0.63534   0.00000     -0.000   0.000  -0.000
    3  2 3s         0.35899   0.00000      0.000  -0.000   0.000
    3  3 3py        0.09936   0.00000      0.000   0.000  -0.000
    3  4 3pz        0.51784   0.00000     -0.000  -0.000   0.000
    3  5 3px        0.36533   0.00000      0.000   0.000   0.000
    3  6 3py        0.46326   0.00000     -0.000  -0.000   0.000
    3  7 3pz        0.17664   0.00000      0.000   0.000   0.000
    3  8 3px        0.23579   0.00000     -0.000  -0.000   0.000
    3  9 3Pdxy      0.10325   0.00000      0.000  -0.000   0.000
    3 10 3Pdyz      0.04984   0.00000     -0.000  -0.000   0.000
    3 11 3Pdz2      0.00813   0.00000      0.000   0.000   0.000
    3 12 3Pdxz      0.13121   0.00000      0.000  -0.000   0.000
    3 13 3Pdx2-y2   0.31584   0.00000     -0.000  -0.000   0.000
    3     Total     3.46081   0.00000      0.000  -0.000   0.000

    6  1 3s         0.65682   0.00000      0.000   0.000   0.000
    6  2 3s         0.37184   0.00000     -0.000  -0.000  -0.000
    6  3 3py        0.13135   0.00000      0.000  -0.000   0.000
    6  4 3pz        0.68755   0.00000      0.000   0.000  -0.000
    6  5 3px        0.48008   0.00000      0.000   0.000  -0.000
    6  6 3py        0.46529   0.00000     -0.000   0.000  -0.000
    6  7 3pz        0.24711   0.00000      0.000  -0.000   0.000
    6  8 3px        0.24922   0.00000      0.000  -0.000   0.000
    6  9 3Pdxy      0.18498   0.00000      0.000  -0.000   0.000
    6 10 3Pdyz      0.15158   0.00000      0.000  -0.000  -0.000
    6 11 3Pdz2      0.01164   0.00000      0.000   0.000  -0.000
    6 12 3Pdxz      0.03761   0.00000     -0.000   0.000   0.000
    6 13 3Pdx2-y2   0.18951   0.00000     -0.000  -0.000  -0.000
    6     Total     3.86457   0.00000      0.000   0.000  -0.000

    7  1 3s         0.61556   0.00000     -0.000   0.000   0.000
    7  2 3s         0.37396   0.00000      0.000  -0.000  -0.000
    7  3 3py        0.38485   0.00000     -0.000   0.000  -0.000
    7  4 3pz        0.49827   0.00000     -0.000   0.000  -0.000
    7  5 3px        0.08197   0.00000     -0.000  -0.000  -0.000
    7  6 3py        0.29947   0.00000      0.000  -0.000   0.000
    7  7 3pz        0.21072   0.00000      0.000  -0.000  -0.000
    7  8 3px        0.41492   0.00000      0.000   0.000   0.000
    7  9 3Pdxy      0.21154   0.00000      0.000  -0.000  -0.000
    7 10 3Pdyz      0.14440   0.00000     -0.000   0.000  -0.000
    7 11 3Pdz2      0.01135   0.00000     -0.000  -0.000   0.000
    7 12 3Pdxz      0.14925   0.00000      0.000  -0.000  -0.000
    7 13 3Pdx2-y2   0.24047   0.00000      0.000  -0.000   0.000
    7     Total     3.63673   0.00000     -0.000  -0.000  -0.000

   12  1 3s         0.54703   0.00000     -0.000   0.000  -0.000
   12  2 3s         0.39182   0.00000      0.000  -0.000   0.000
   12  3 3py        0.25897   0.00000     -0.000  -0.000  -0.000
   12  4 3pz        0.44767   0.00000      0.000   0.000   0.000
   12  5 3px        0.27514   0.00000      0.000  -0.000  -0.000
   12  6 3py        0.36454   0.00000      0.000   0.000   0.000
   12  7 3pz        0.17025   0.00000     -0.000  -0.000   0.000
   12  8 3px        0.35496   0.00000     -0.000   0.000  -0.000
   12  9 3Pdxy      0.38926   0.00000      0.000  -0.000   0.000
   12 10 3Pdyz      0.08001   0.00000     -0.000  -0.000  -0.000
   12 11 3Pdz2      0.01003   0.00000      0.000   0.000  -0.000
   12 12 3Pdxz      0.09383   0.00000     -0.000  -0.000  -0.000
   12 13 3Pdx2-y2   0.16054   0.00000     -0.000  -0.000  -0.000
   12     Total     3.54404   0.00000      0.000  -0.000  -0.000

   15  1 3s         0.66597   0.00000     -0.000  -0.000  -0.000
   15  2 3s         0.36457   0.00000      0.000   0.000   0.000
   15  3 3py       -0.02388   0.00000     -0.000   0.000  -0.000
   15  4 3pz        0.50802   0.00000      0.000  -0.000   0.000
   15  5 3px        0.38585   0.00000     -0.000  -0.000  -0.000
   15  6 3py        0.46838   0.00000      0.000  -0.000   0.000
   15  7 3pz        0.20204   0.00000      0.000   0.000  -0.000
   15  8 3px        0.33890   0.00000      0.000   0.000   0.000
   15  9 3Pdxy      0.14799   0.00000     -0.000   0.000   0.000
   15 10 3Pdyz      0.12731   0.00000     -0.000  -0.000  -0.000
   15 11 3Pdz2      0.01293   0.00000      0.000  -0.000   0.000
   15 12 3Pdxz      0.12325   0.00000     -0.000  -0.000   0.000
   15 13 3Pdx2-y2   0.29618   0.00000      0.000  -0.000   0.000
   15     Total     3.61753   0.00000     -0.000  -0.000   0.000

----------------------------------------------------------------
Total              50.00000   0.00000     -0.000  -0.000  -0.000


                     ====================================
                        Begin CG opt. move =      2
                     ====================================

outcoor: Atomic coordinates (Ang):                          
    2.46950712   -5.20153308   -0.00000000   1       1  H
    1.53080932   -4.68836703   -0.00000000   2       2  N
   -0.05938144   -5.52109018   -0.00000000   3       3  Si
   -0.00026755   -7.02963516    0.00000000   1       4  H
   -1.49990062   -4.60179589    0.00000000   2       5  N
   -0.94472256   -2.88179763   -0.00000000   3       6  Si
   -1.29016588   -0.69324040    0.00000000   3       7  Si
   -2.82545878    0.15866980   -0.00000000   2       8  N
   -2.88042416    1.20974142    0.00000000   1       9  H
   -3.75552271   -0.33201761   -0.00000000   1      10  H
    0.09778682    0.34271533   -0.00000000   2      11  N
    1.75108028   -0.12118002    0.00000000   3      12  Si
    2.71122990    1.03767304    0.00000000   1      13  H
    2.52991418   -1.67745302   -0.00000000   2      14  N
    1.27085571   -2.87518870    0.00000000   3      15  Si

outcell: Unit cell vectors (Ang):
       14.779133    0.000000    0.000000
        0.000000   16.638097    0.000000
        0.000000    0.000000    9.854683

outcell: Cell vector modules (Ang)   :   14.779133   16.638097    9.854683
outcell: Cell angles (23,13,12) (deg):     90.0000     90.0000     90.0000
outcell: Cell volume (Ang**3)        :   2423.2336
<dSpData1D:S at geom step 2
  <sparsity:sparsity for geom step 2
    nrows_g=155 nrows=48 sparsity=.3022 nnzs=7261, refcount: 8>
  <dData1D:(new from dSpData1D) n=7261, refcount: 1>
refcount: 1>
new_DM -- step:     3
Re-using DM from previous geometries...
Number of DMs in history: 1
 DM extrapolation coefficients: 
1   1.00000
New DM after history re-use:
<dSpData2D:SpM extrapolated using coords
  <sparsity:sparsity for geom step 2
    nrows_g=155 nrows=48 sparsity=.3022 nnzs=7261, refcount: 10>
  <dData2D:(temp array for extrapolation) n=7261 m=8, refcount: 1>
refcount: 1>
     spin moment: S , {S} =    0.00000   0.00000  -0.00000  -0.00000
Note: For starting DM, Qtot, Tr[D*S] =         50.00000000         50.18880849
No. of atoms with KB's overlaping orbs in proc 0. Max # of overlaps:      15     133
New grid distribution:   1
           1       1:   90    1:   48    1:   30
           2       1:   90    1:   48   31:   60
           3       1:   90   49:   96    1:   30
           4       1:   90   49:   96   31:   60

InitMesh: MESH =   180 x   192 x   120 =     4147200
InitMesh: (bp) =    90 x    96 x    60 =      518400
InitMesh: Mesh cutoff (required, used) =   340.000   368.042 Ry
ExtMesh (bp) on 0 =   202 x   152 x   142 =     4359968
New grid distribution:   2
           1      26:   90    1:   75    1:   60
           2       1:   25    1:   75    1:   60
           3      23:   90   76:   96    1:   60
           4       1:   22   76:   96    1:   60
New grid distribution:   3
           1      35:   90    1:   62    1:   60
           2       1:   34    1:   62    1:   60
           3      36:   90   63:   96    1:   60
           4       1:   35   63:   96    1:   60
Setting up quadratic distribution...
ExtMesh (bp) on 0 =   177 x   179 x   172 =     5449476
PhiOnMesh: Number of (b)points on node 0 =               292500
PhiOnMesh: nlist on node 0 =              1756515

        iscf     Eharris(eV)        E_KS(eV)     FreeEng(eV)     dDmax    Ef(eV) dHmax(eV)
   scf:    1    -1957.781229    -1959.270042    -1959.270042  0.056932 -4.163037  2.112856
     spin moment: S , {S} =    0.00000  -0.00000  -0.00000  -0.00000
   scf:    2    -1944.016673    -1954.759865    -1954.759865  0.264655 -3.319053  6.816635
     spin moment: S , {S} =    0.00000  -0.00000  -0.00000  -0.00000
   scf:    3    -1960.327680    -1959.666891    -1959.666891  0.227267 -3.719434  0.516240
     spin moment: S , {S} =    0.00000  -0.00000   0.00000  -0.00000
   scf:    4    -1959.690195    -1959.683458    -1959.683458  0.010340 -3.689716  0.153453
     spin moment: S , {S} =    0.00000  -0.00000   0.00000  -0.00000
   scf:    5    -1959.684392    -1959.684035    -1959.684035  0.001382 -3.695836  0.051403
     spin moment: S , {S} =    0.00000  -0.00000   0.00000  -0.00000
   scf:    6    -1959.684200    -1959.684137    -1959.684137  0.000433 -3.699033  0.025593
     spin moment: S , {S} =    0.00000  -0.00000   0.00000  -0.00000
   scf:    7    -1959.684182    -1959.684165    -1959.684165  0.000434 -3.700632  0.005705
     spin moment: S , {S} =    0.00000  -0.00000   0.00000  -0.00000
   scf:    8    -1959.684171    -1959.684169    -1959.684169  0.000100 -3.700712  0.001804
     spin moment: S , {S} =    0.00000  -0.00000   0.00000  -0.00000
   scf:    9    -1959.684170    -1959.684169    -1959.684169  0.000065 -3.700634  0.000746
     spin moment: S , {S} =    0.00000  -0.00000   0.00000  -0.00000
   scf:   10    -1959.684169    -1959.684169    -1959.684169  0.000021 -3.700525  0.000210
     spin moment: S , {S} =    0.00000  -0.00000   0.00000  -0.00000
   scf:   11    -1959.684169    -1959.684169    -1959.684169  0.000008 -3.700475  0.000098
     spin moment: S , {S} =    0.00000  -0.00000   0.00000  -0.00000
   scf:   12    -1959.684169    -1959.684169    -1959.684169  0.000003 -3.700465  0.000050
     spin moment: S , {S} =    0.00000  -0.00000   0.00000  -0.00000
   scf:   13    -1959.684169    -1959.684169    -1959.684169  0.000001 -3.700464  0.000029
     spin moment: S , {S} =    0.00000  -0.00000   0.00000  -0.00000
   scf:   14    -1959.684169    -1959.684169    -1959.684169  0.000002 -3.700464  0.000012
     spin moment: S , {S} =    0.00000  -0.00000   0.00000  -0.00000
   scf:   15    -1959.684169    -1959.684169    -1959.684169  0.000001 -3.700464  0.000007
     spin moment: S , {S} =    0.00000  -0.00000   0.00000  -0.00000
   scf:   16    -1959.684169    -1959.684169    -1959.684169  0.000000 -3.700464  0.000004
     spin moment: S , {S} =    0.00000  -0.00000   0.00000  -0.00000
   scf:   17    -1959.684169    -1959.684169    -1959.684169  0.000000 -3.700464  0.000002
     spin moment: S , {S} =    0.00000  -0.00000   0.00000  -0.00000
   scf:   18    -1959.684169    -1959.684169    -1959.684169  0.000000 -3.700465  0.000001
     spin moment: S , {S} =    0.00000  -0.00000   0.00000  -0.00000

SCF Convergence by DM+H criterion
max |DM_out - DM_in|         :     0.0000000188
max |H_out - H_in|      (eV) :     0.0000005657
SCF cycle converged after 18 iterations

Using DM_out to compute the final energy and forces
No. of atoms with KB's overlaping orbs in proc 0. Max # of overlaps:      15     133

siesta: E_KS(eV) =            -1959.6842
     spin moment: S , {S} =    0.00000  -0.00000   0.00000  -0.00000

siesta: Atomic forces (eV/Ang):
     1   -0.549271    0.278995   -0.000000
     2    0.429448   -0.231012    0.000000
     3   -0.013857   -0.233608    0.000000
     4   -0.010017    0.359992   -0.000000
     5    0.012692   -0.018577   -0.000000
     6   -0.006003   -0.005440   -0.000000
     7    0.000140    0.019130    0.000000
     8   -0.011522    0.015742    0.000000
     9    0.161463    0.059971   -0.000000
    10   -0.041775   -0.050853   -0.000000
    11    0.011767    0.001406    0.000000
    12    0.048669    0.060443    0.000000
    13   -0.182397    0.033264   -0.000000
    14   -0.014768   -0.021439    0.000000
    15    0.015376    0.024795   -0.000000
----------------------------------------
   Tot   -0.150055    0.292807    0.000000
----------------------------------------
   Max    0.549271
   Res    0.139775    sqrt( Sum f_i^2 / 3N )
----------------------------------------
   Max    0.549271    constrained

Stress tensor Voigt[x,y,z,yz,xz,xy] (kbar):        0.47        0.39        0.02       -0.00       -0.00       -0.03
(Free)E + p*V (eV/cell)    -1960.1292
Target enthalpy (eV/cell)    -1959.6842

mulliken: Atomic and Orbital Populations:

Species: H                   

Atom      Orb        Charge      Spin       Svec
----------------------------------------------------------------
    1  1 1s         0.51567   0.00000      0.000  -0.000   0.000
    1  2 1s         0.18321   0.00000     -0.000   0.000  -0.000
    1  3 2Ppy       0.02718   0.00000      0.000  -0.000   0.000
    1  4 2Ppz       0.03826   0.00000     -0.000   0.000  -0.000
    1  5 2Ppx       0.02509   0.00000      0.000   0.000   0.000
    1     Total     0.78941   0.00000      0.000   0.000   0.000

    4  1 1s         1.02188   0.00000      0.000  -0.000  -0.000
    4  2 1s         0.09304   0.00000     -0.000   0.000   0.000
    4  3 2Ppy       0.04031   0.00000     -0.000   0.000   0.000
    4  4 2Ppz       0.01873   0.00000      0.000  -0.000  -0.000
    4  5 2Ppx       0.01323   0.00000      0.000   0.000  -0.000
    4     Total     1.18719   0.00000      0.000  -0.000   0.000

    9  1 1s         0.48504   0.00000     -0.000  -0.000   0.000
    9  2 1s         0.19507   0.00000      0.000   0.000  -0.000
    9  3 2Ppy       0.02297   0.00000     -0.000   0.000  -0.000
    9  4 2Ppz       0.05096   0.00000     -0.000  -0.000  -0.000
    9  5 2Ppx       0.01300   0.00000      0.000  -0.000   0.000
    9     Total     0.76703   0.00000     -0.000  -0.000   0.000

   10  1 1s         0.48129   0.00000      0.000   0.000   0.000
   10  2 1s         0.19653   0.00000     -0.000  -0.000  -0.000
   10  3 2Ppy       0.00677   0.00000     -0.000  -0.000  -0.000
   10  4 2Ppz       0.05332   0.00000     -0.000  -0.000   0.000
   10  5 2Ppx       0.02905   0.00000     -0.000  -0.000   0.000
   10     Total     0.76696   0.00000     -0.000  -0.000   0.000

   13  1 1s         1.01964   0.00000      0.000  -0.000  -0.000
   13  2 1s         0.09866   0.00000     -0.000   0.000  -0.000
   13  3 2Ppy       0.02410   0.00000      0.000   0.000   0.000
   13  4 2Ppz       0.01479   0.00000      0.000   0.000  -0.000
   13  5 2Ppx       0.01743   0.00000     -0.000  -0.000   0.000
   13     Total     1.17463   0.00000      0.000  -0.000  -0.000

----------------------------------------------------------------
Total               4.68522   0.00000      0.000  -0.000   0.000


Species: N                   

Atom      Orb        Charge      Spin       Svec
----------------------------------------------------------------
    2  1 2s         1.38362   0.00000     -0.000   0.000   0.000
    2  2 2s         0.12564   0.00000      0.000  -0.000  -0.000
    2  3 2py        1.06496   0.00000      0.000   0.000  -0.000
    2  4 2pz        1.49620   0.00000      0.000   0.000   0.000
    2  5 2px        1.01576   0.00000     -0.000  -0.000  -0.000
    2  6 2py        0.19655   0.00000     -0.000  -0.000   0.000
    2  7 2pz        0.01365   0.00000     -0.000  -0.000  -0.000
    2  8 2px        0.20854   0.00000      0.000   0.000   0.000
    2  9 3Pdxy      0.00676   0.00000      0.000  -0.000   0.000
    2 10 3Pdyz      0.00597   0.00000      0.000  -0.000   0.000
    2 11 3Pdz2      0.00151   0.00000      0.000  -0.000   0.000
    2 12 3Pdxz      0.00307   0.00000      0.000   0.000  -0.000
    2 13 3Pdx2-y2   0.00303   0.00000     -0.000  -0.000  -0.000
    2     Total     5.52527   0.00000     -0.000   0.000   0.000

    5  1 2s         1.56009   0.00000      0.000   0.000  -0.000
[...]

siesta: Atomic forces (eV/Ang):
     1    0.002255    0.001025    0.000000
     2    0.001911    0.002232    0.000000
     3   -0.001374    0.000783    0.000000
     4   -0.002120   -0.000432    0.000000
     5    0.000790   -0.004334    0.000000
     6    0.002269   -0.000806   -0.000000
     7   -0.000473   -0.001644    0.000000
     8   -0.000467    0.001365   -0.000000
     9   -0.001668    0.001563   -0.000000
    10    0.000221   -0.000716    0.000000
    11   -0.002071   -0.003045    0.000000
    12    0.001288    0.002188    0.000000
    13   -0.004466   -0.002510    0.000000
    14    0.001995    0.001542    0.000000
    15    0.000688    0.001643    0.000000
----------------------------------------
   Tot   -0.001222   -0.001145    0.000000
----------------------------------------
   Max    0.004466
   Res    0.001590    sqrt( Sum f_i^2 / 3N )
----------------------------------------
   Max    0.004466    constrained

Stress tensor Voigt[x,y,z,yz,xz,xy] (kbar):        0.29        0.27        0.02       -0.00        0.00        0.12
(Free)E + p*V (eV/cell)    -1959.9869
Target enthalpy (eV/cell)    -1959.6925

mulliken: Atomic and Orbital Populations:

Species: H                   

Atom      Orb        Charge      Spin       Svec
----------------------------------------------------------------
    1  1 1s         0.50602   0.00000      0.000  -0.000   0.000
    1  2 1s         0.18876   0.00000     -0.000  -0.000  -0.000
    1  3 2Ppy       0.02754   0.00000      0.000  -0.000   0.000
    1  4 2Ppz       0.03915   0.00000     -0.000   0.000  -0.000
    1  5 2Ppx       0.02498   0.00000      0.000   0.000   0.000
    1     Total     0.78644   0.00000      0.000   0.000   0.000

    4  1 1s         1.01866   0.00000      0.000  -0.000   0.000
    4  2 1s         0.09590   0.00000     -0.000   0.000  -0.000
    4  3 2Ppy       0.03972   0.00000     -0.000  -0.000   0.000
    4  4 2Ppz       0.01911   0.00000      0.000  -0.000  -0.000
    4  5 2Ppx       0.01351   0.00000      0.000   0.000  -0.000
    4     Total     1.18690   0.00000      0.000  -0.000   0.000

    9  1 1s         0.48574   0.00000      0.000   0.000  -0.000
    9  2 1s         0.19475   0.00000     -0.000  -0.000   0.000
    9  3 2Ppy       0.02309   0.00000      0.000   0.000  -0.000
    9  4 2Ppz       0.05091   0.00000     -0.000   0.000   0.000
    9  5 2Ppx       0.01299   0.00000      0.000  -0.000   0.000
    9     Total     0.76747   0.00000     -0.000   0.000  -0.000

   10  1 1s         0.48216   0.00000      0.000   0.000  -0.000
   10  2 1s         0.19598   0.00000     -0.000  -0.000   0.000
   10  3 2Ppy       0.00690   0.00000      0.000   0.000  -0.000
   10  4 2Ppz       0.05327   0.00000     -0.000   0.000   0.000
   10  5 2Ppx       0.02904   0.00000      0.000   0.000  -0.000
   10     Total     0.76734   0.00000      0.000   0.000  -0.000

   13  1 1s         1.01895   0.00000      0.000  -0.000   0.000
   13  2 1s         0.09921   0.00000     -0.000   0.000  -0.000
   13  3 2Ppy       0.02423   0.00000      0.000   0.000   0.000
   13  4 2Ppz       0.01487   0.00000      0.000   0.000  -0.000
   13  5 2Ppx       0.01729   0.00000      0.000  -0.000   0.000
   13     Total     1.17454   0.00000      0.000  -0.000   0.000

----------------------------------------------------------------
Total               4.68269   0.00000      0.000   0.000   0.000


Species: N                   

Atom      Orb        Charge      Spin       Svec
----------------------------------------------------------------
    2  1 2s         1.38072   0.00000     -0.000   0.000   0.000
    2  2 2s         0.12670   0.00000      0.000  -0.000  -0.000
    2  3 2py        1.06754   0.00000     -0.000   0.000  -0.000
    2  4 2pz        1.49623   0.00000      0.000  -0.000   0.000
    2  5 2px        1.01855   0.00000     -0.000   0.000   0.000
    2  6 2py        0.19589   0.00000     -0.000  -0.000   0.000
    2  7 2pz        0.01375   0.00000     -0.000   0.000   0.000
    2  8 2px        0.20993   0.00000      0.000  -0.000  -0.000
    2  9 3Pdxy      0.00663   0.00000      0.000  -0.000   0.000
    2 10 3Pdyz      0.00594   0.00000      0.000  -0.000  -0.000
    2 11 3Pdz2      0.00149   0.00000      0.000  -0.000   0.000
    2 12 3Pdxz      0.00303   0.00000      0.000  -0.000   0.000
    2 13 3Pdx2-y2   0.00296   0.00000     -0.000  -0.000  -0.000
    2     Total     5.52937   0.00000     -0.000   0.000   0.000

    5  1 2s         1.55954   0.00000      0.000   0.000  -0.000
    5  2 2s         0.08049   0.00000     -0.000  -0.000   0.000
    5  3 2py        0.90263   0.00000      0.000  -0.000   0.000
    5  4 2pz        1.22482   0.00000     -0.000   0.000   0.000
    5  5 2px        1.13858   0.00000     -0.000  -0.000  -0.000
    5  6 2py        0.23008   0.00000     -0.000   0.000  -0.000
    5  7 2pz        0.05518   0.00000      0.000  -0.000  -0.000
    5  8 2px        0.14760   0.00000     -0.000   0.000   0.000
    5  9 3Pdxy      0.00856   0.00000      0.000  -0.000   0.000
    5 10 3Pdyz      0.00684   0.00000      0.000  -0.000   0.000
    5 11 3Pdz2      0.00191   0.00000     -0.000  -0.000   0.000
    5 12 3Pdxz      0.01133   0.00000      0.000   0.000   0.000
    5 13 3Pdx2-y2   0.00925   0.00000     -0.000   0.000   0.000
    5     Total     5.37682   0.00000     -0.000   0.000   0.000

    8  1 2s         1.28471   0.00000      0.000  -0.000   0.000
    8  2 2s         0.17130   0.00000     -0.000   0.000  -0.000
    8  3 2py        1.05721   0.00000     -0.000  -0.000   0.000
    8  4 2pz        1.57490   0.00000      0.000  -0.000   0.000
    8  5 2px        1.00517   0.00000     -0.000  -0.000   0.000
    8  6 2py        0.19569   0.00000      0.000   0.000  -0.000
    8  7 2pz        0.02728   0.00000     -0.000   0.000  -0.000
    8  8 2px        0.22865   0.00000      0.000   0.000  -0.000
    8  9 3Pdxy      0.00268   0.00000     -0.000   0.000   0.000
    8 10 3Pdyz      0.00082   0.00000      0.000  -0.000  -0.000
    8 11 3Pdz2      0.00275   0.00000     -0.000   0.000   0.000
    8 12 3Pdxz      0.00244   0.00000      0.000   0.000   0.000
    8 13 3Pdx2-y2   0.00444   0.00000     -0.000   0.000  -0.000
    8     Total     5.55803   0.00000     -0.000  -0.000   0.000

   11  1 2s         1.45670   0.00000      0.000   0.000   0.000
   11  2 2s         0.11469   0.00000     -0.000  -0.000  -0.000
   11  3 2py        1.22732   0.00000      0.000   0.000  -0.000
   11  4 2pz        1.28745   0.00000     -0.000   0.000  -0.000
   11  5 2px        0.79867   0.00000     -0.000  -0.000   0.000
   11  6 2py        0.11117   0.00000     -0.000  -0.000   0.000
   11  7 2pz        0.04615   0.00000      0.000  -0.000   0.000
   11  8 2px        0.31783   0.00000      0.000   0.000  -0.000
   11  9 3Pdxy      0.00731   0.00000     -0.000   0.000   0.000
   11 10 3Pdyz      0.00600   0.00000      0.000  -0.000   0.000
   11 11 3Pdz2      0.00054   0.00000      0.000   0.000  -0.000
   11 12 3Pdxz      0.00506   0.00000      0.000   0.000  -0.000
   11 13 3Pdx2-y2   0.00521   0.00000     -0.000  -0.000   0.000
   11     Total     5.38409   0.00000      0.000   0.000  -0.000

   14  1 2s         1.50623   0.00000      0.000  -0.000   0.000
   14  2 2s         0.10250   0.00000     -0.000   0.000  -0.000
   14  3 2py        0.84381   0.00000      0.000   0.000   0.000
   14  4 2pz        1.23597   0.00000      0.000  -0.000   0.000
   14  5 2px        1.17842   0.00000      0.000  -0.000   0.000
   14  6 2py        0.27778   0.00000     -0.000  -0.000  -0.000
   14  7 2pz        0.05454   0.00000     -0.000   0.000  -0.000
   14  8 2px        0.13204   0.00000     -0.000   0.000  -0.000
   14  9 3Pdxy      0.00949   0.00000      0.000  -0.000   0.000
   14 10 3Pdyz      0.00499   0.00000      0.000   0.000  -0.000
   14 11 3Pdz2      0.00146   0.00000      0.000   0.000   0.000
   14 12 3Pdxz      0.01064   0.00000      0.000   0.000   0.000
   14 13 3Pdx2-y2   0.00790   0.00000     -0.000   0.000  -0.000
   14     Total     5.36577   0.00000      0.000  -0.000   0.000

----------------------------------------------------------------
Total              31.89678   0.00000      0.000  -0.000   0.000


Species: Si                  

Atom      Orb        Charge      Spin       Svec
----------------------------------------------------------------
    3  1 3s         0.55227   0.00000      0.000   0.000  -0.000
    3  2 3s         0.38859   0.00000     -0.000  -0.000   0.000
    3  3 3py        0.07513   0.00000      0.000   0.000   0.000
    3  4 3pz        0.51949   0.00000      0.000  -0.000  -0.000
    3  5 3px        0.36594   0.00000     -0.000   0.000   0.000
    3  6 3py        0.50565   0.00000     -0.000  -0.000  -0.000
    3  7 3pz        0.17889   0.00000     -0.000   0.000  -0.000
    3  8 3px        0.23792   0.00000      0.000  -0.000   0.000
    3  9 3Pdxy      0.10784   0.00000      0.000   0.000   0.000
    3 10 3Pdyz      0.05088   0.00000      0.000  -0.000   0.000
    3 11 3Pdz2      0.00988   0.00000     -0.000  -0.000  -0.000
    3 12 3Pdxz      0.13148   0.00000     -0.000   0.000  -0.000
    3 13 3Pdx2-y2   0.32257   0.00000      0.000  -0.000  -0.000
    3     Total     3.44653   0.00000      0.000  -0.000  -0.000

    6  1 3s         0.66115   0.00000      0.000  -0.000   0.000
    6  2 3s         0.37071   0.00000     -0.000   0.000  -0.000
    6  3 3py        0.13103   0.00000      0.000  -0.000   0.000
    6  4 3pz        0.68985   0.00000      0.000   0.000   0.000
    6  5 3px        0.48944   0.00000     -0.000  -0.000  -0.000
    6  6 3py        0.46564   0.00000     -0.000   0.000  -0.000
    6  7 3pz        0.24371   0.00000     -0.000   0.000   0.000
    6  8 3px        0.24613   0.00000      0.000   0.000   0.000
    6  9 3Pdxy      0.18567   0.00000     -0.000  -0.000  -0.000
    6 10 3Pdyz      0.14946   0.00000     -0.000   0.000   0.000
    6 11 3Pdz2      0.01161   0.00000      0.000  -0.000  -0.000
    6 12 3Pdxz      0.03666   0.00000     -0.000   0.000  -0.000
    6 13 3Pdx2-y2   0.18880   0.00000     -0.000  -0.000  -0.000
    6     Total     3.86986   0.00000      0.000  -0.000   0.000

    7  1 3s         0.62837   0.00000     -0.000   0.000   0.000
    7  2 3s         0.36859   0.00000      0.000  -0.000  -0.000
    7  3 3py        0.37378   0.00000     -0.000   0.000  -0.000
    7  4 3pz        0.49907   0.00000     -0.000  -0.000   0.000
    7  5 3px        0.07995   0.00000     -0.000  -0.000  -0.000
    7  6 3py        0.30309   0.00000     -0.000  -0.000   0.000
    7  7 3pz        0.20761   0.00000      0.000   0.000   0.000
    7  8 3px        0.42022   0.00000      0.000   0.000   0.000
    7  9 3Pdxy      0.20453   0.00000      0.000  -0.000  -0.000
    7 10 3Pdyz      0.14391   0.00000     -0.000  -0.000   0.000
    7 11 3Pdz2      0.01077   0.00000      0.000  -0.000   0.000
    7 12 3Pdxz      0.14905   0.00000     -0.000  -0.000  -0.000
    7 13 3Pdx2-y2   0.24126   0.00000     -0.000  -0.000   0.000
    7     Total     3.63020   0.00000     -0.000  -0.000   0.000

   12  1 3s         0.52504   0.00000     -0.000   0.000  -0.000
   12  2 3s         0.40201   0.00000      0.000  -0.000   0.000
   12  3 3py        0.23431   0.00000     -0.000  -0.000  -0.000
   12  4 3pz        0.44677   0.00000      0.000   0.000   0.000
   12  5 3px        0.29229   0.00000     -0.000  -0.000  -0.000
   12  6 3py        0.39137   0.00000      0.000   0.000   0.000
   12  7 3pz        0.17002   0.00000     -0.000   0.000  -0.000
   12  8 3px        0.34211   0.00000      0.000   0.000   0.000
   12  9 3Pdxy      0.38906   0.00000      0.000   0.000   0.000
   12 10 3Pdyz      0.08103   0.00000     -0.000   0.000  -0.000
   12 11 3Pdz2      0.01066   0.00000      0.000   0.000   0.000
   12 12 3Pdxz      0.09307   0.00000      0.000   0.000  -0.000
   12 13 3Pdx2-y2   0.16561   0.00000     -0.000   0.000  -0.000
   12     Total     3.54334   0.00000     -0.000   0.000  -0.000

   15  1 3s         0.65977   0.00000     -0.000   0.000   0.000
   15  2 3s         0.36771   0.00000     -0.000  -0.000  -0.000
   15  3 3py       -0.03235   0.00000     -0.000  -0.000  -0.000
   15  4 3pz        0.50747   0.00000      0.000  -0.000  -0.000
   15  5 3px        0.38742   0.00000     -0.000   0.000  -0.000
   15  6 3py        0.47522   0.00000      0.000   0.000   0.000
   15  7 3pz        0.20108   0.00000     -0.000   0.000  -0.000
   15  8 3px        0.34028   0.00000      0.000  -0.000   0.000
   15  9 3Pdxy      0.14207   0.00000     -0.000   0.000   0.000
   15 10 3Pdyz      0.12634   0.00000     -0.000   0.000   0.000
   15 11 3Pdz2      0.01380   0.00000      0.000   0.000   0.000
   15 12 3Pdxz      0.12351   0.00000     -0.000   0.000  -0.000
   15 13 3Pdx2-y2   0.30097   0.00000     -0.000   0.000  -0.000
   15     Total     3.61329   0.00000     -0.000   0.000  -0.000

----------------------------------------------------------------
Total              50.00000   0.00000     -0.000   0.000  -0.000


outcoor: Relaxed atomic coordinates (Ang):                  
    2.46315851   -5.19921295   -0.00000000   1       1  H
    1.53554010   -4.69174449   -0.00000000   2       2  N
   -0.05609030   -5.52408710   -0.00000000   3       3  Si
    0.00000410   -7.01923201    0.00000000   1       4  H
   -1.49611119   -4.60498625    0.00000000   2       5  N
   -0.94359104   -2.88324895   -0.00000000   3       6  Si
   -1.28979062   -0.69238461    0.00000001   3       7  Si
   -2.82615282    0.16010171    0.00000000   2       8  N
   -2.87378880    1.21247611    0.00000000   1       9  H
   -3.75689478   -0.33235037   -0.00000000   1      10  H
    0.09887265    0.34342352   -0.00000000   2      11  N
    1.75278496   -0.11954481   -0.00000000   3      12  Si
    2.70878199    1.03908226    0.00000000   1      13  H
    2.52893094   -1.67740698   -0.00000000   2      14  N
    1.27270224   -2.87710973   -0.00000000   3      15  Si

siesta: Eigenvalues (eV):
ik =     1
  -21.2849  -21.2849  -21.1548  -21.1548  -19.7727  -19.7727  -19.5101  -19.5101  -18.9823  -18.9823
  -13.9381  -13.9381  -13.1693  -13.1693  -12.8213  -12.8213  -12.4045  -12.4045  -11.9097  -11.9097
  -11.2579  -11.2579  -10.5000  -10.5000   -9.4669   -9.4669   -9.1256   -9.1256   -8.5416   -8.5416
   -8.4204   -8.4204   -8.2478   -8.2478   -7.6936   -7.6936   -7.6597   -7.6597   -7.0994   -7.0994
   -6.6802   -6.6802   -6.4353   -6.4353   -6.1071   -6.1071   -5.8904   -5.8904   -4.5446   -4.5446
   -2.4825   -2.4825   -2.3424   -2.3424   -2.0145   -2.0145   -1.9042   -1.9042   -1.6611   -1.6611
   -0.9313   -0.9313   -0.5506   -0.5506   -0.5043   -0.5043    0.2411    0.2411    0.3181    0.3181
    1.0104    1.0104    1.0217    1.0217    1.6157    1.6157    1.8772    1.8772    2.2033    2.2033
    2.5157    2.5157    2.5991    2.5991    2.7820    2.7820    2.8507    2.8507    3.5070    3.5070
    3.8157    3.8157    4.0376    4.0376    4.3857    4.3857    4.4057    4.4057    4.8049    4.8049
    4.9339    4.9339    5.5583    5.5583    5.6257    5.6257    5.8274    5.8274    6.0001    6.0001
    6.3207    6.3207    6.8310    6.8310    6.9198    6.9198    7.2352    7.2352    7.4367    7.4367
    7.6740    7.6740    8.0246    8.0246    8.0410    8.0410    8.6197    8.6197    8.6502    8.6502
    9.0738    9.0738    9.3833    9.3833    9.6091    9.6091    9.6212    9.6212   10.1412   10.1412
   10.6177   10.6177   11.0920   11.0920   11.2796   11.2796   11.4464   11.4464   12.1150   12.1150
   12.5247   12.5247   12.7683   12.7683   13.0096   13.0096   13.6333   13.6333   14.2434   14.2434
   14.4757   14.4757   14.8446   14.8446   16.1367   16.1367   16.5418   16.5418   17.0364   17.0364
   17.6444   17.6444   18.2746   18.2746   18.5180   18.5180   18.5364   18.5364   20.0043   20.0043
   20.7953   20.7953   20.9132   20.9132   21.9671   21.9671   22.6159   22.6159   22.8119   22.8119
   24.3962   24.3962   25.3474   25.3474   25.8517   25.8517   26.3651   26.3651   28.2186   28.2186
   29.5825   29.5825   30.2888   30.2888   30.5678   30.5678   30.6270   30.6270   31.0357   31.0357
   31.3880   31.3880   32.0689   32.0689   32.0801   32.0801   33.3572   33.3572   34.6059   34.6059
   35.8576   35.8576   36.9808   36.9808   37.3107   37.3107   37.3594   37.3594   38.2207   38.2207
   40.1749   40.1749   40.4840   40.4840   41.1335   41.1335   41.3552   41.3552   41.4511   41.4511
   43.0001   43.0001   43.6424   43.6424   44.2197   44.2197   44.4670   44.4670   44.9547   44.9547
   45.0330   45.0330   46.1691   46.1691   46.3477   46.3477   46.9162   46.9162   48.5626   48.5626
   50.0124   50.0124   50.3369   50.3369   51.6038   51.6038   53.7543   53.7543   54.7023   54.7023
   56.0164   56.0164   56.5995   56.5995   57.2877   57.2877   59.4336   59.4336   59.9766   59.9766
   60.9243   60.9243   61.3335   61.3335   61.8818   61.8818   65.3798   65.3798   66.8628   66.8628
   68.5387   68.5387   71.1865   71.1865   78.3937   78.3937   92.7032   92.7032   95.3076   95.3076
  100.1887  100.1887  102.7216  102.7216  113.0407  113.0407  122.8240  122.8240  140.0846  140.0846
siesta: Fermi energy =      -3.741285 eV

siesta: Program's energy decomposition (eV):
siesta: Ebs     =      -565.235946
siesta: Eions   =      1645.679058
siesta: Ena     =       215.231456
siesta: Ekin    =      1308.442528
siesta: Enl     =     -1325.105979
siesta: Eso     =        -0.002265
siesta: Edftu   =         0.000000
siesta: DEna    =        29.140882
siesta: DUscf   =         7.191618
siesta: DUext   =         0.000000
siesta: Exc     =      -548.911715
siesta: eta*DQ  =         0.000000
siesta: Emadel  =         0.000000
siesta: Emeta   =         0.000000
siesta: Emolmec =         0.000000
siesta: Ekinion =         0.000000
siesta: Eharris =     -1959.692534
siesta: Etot    =     -1959.692534
siesta: FreeEng =     -1959.692534

siesta: Final energy (eV):
siesta:  Band Struct. =    -565.235946
siesta:       Kinetic =    1308.442528
siesta:       Hartree =    3300.602577
siesta:       Edftu   =       0.000000
siesta:       Eso     =      -0.002265
siesta:    Ext. field =       0.000000
siesta:   Exch.-corr. =    -548.911715
siesta:  Ion-electron =   -7762.252378
siesta:       Ion-ion =    1742.428718
siesta:       Ekinion =       0.000000
siesta:         Total =   -1959.692534
siesta:         Fermi =      -3.741285

siesta: Stress tensor (static) (eV/Ang**3):
siesta:     0.000184    0.000076   -0.000000
siesta:     0.000076    0.000171   -0.000000
siesta:     0.000000   -0.000000    0.000010

siesta: Cell volume =       2423.233617 Ang**3

siesta: Pressure (static):
siesta:                Solid            Molecule  Units
siesta:          -0.00000132         -0.00000133  Ry/Bohr**3
siesta:          -0.00012146         -0.00012172  eV/Ang**3
siesta:          -0.19460185         -0.19501550  kBar
(Free)E+ p_basis*V_orbitals  =       -1949.010664
(Free)Eharris+ p_basis*V_orbitals  =       -1949.010664
     spin moment: S , {S} =    0.00000  -0.00000   0.00000  -0.00000

siesta: Electric dipole (a.u.)  =   -0.396298   -0.608895   -0.000000
siesta: Electric dipole (Debye) =   -1.007289   -1.547658   -0.000000

cite: Please see "Adenine.bib" for an exhaustive BiBTeX file.
cite: Please clearly indicate Siesta version in published work: v4.1.5-1-g384057250
cite: This calculation has made use of the following articles
cite: which are encouraged to be cited in a published work.
        Primary SIESTA paper
          DOI: www.doi.org/10.1088/0953-8984/14/11/302
        Spin-orbit coupling (on-site approximation)
          DOI: www.doi.org/10.1088/0953-8984/19/19/489001


WARNING: alloc-realloc-dealloc name mismatch
         Name: atomlist isa
         Size:               -60. Bytes
         Node:     0
         Subsequent mismatches will not be reported
>> End of run:  12-MAY-2023  12:10:43
Job completed
