Siesta Version  : v4.1.5-1-g384057250
Architecture    : gcc
Compiler version: GNU Fortran (Ubuntu 11.3.0-1ubuntu1~22.04) 11.3.0
Compiler flags  : mpifort -O2 -fPIC -ftree-vectorize -fallow-argument-mismatch
PP flags        : -DFC_HAVE_ABORT -DMPI -DSIESTA__FLOOK -DSIESTA__METIS -DSIESTA__MUMPS -DCDF -DNCDF -DNCDF_4 -DNCDF_PARALLEL -DSIESTA__MRRR -DSIESTA__ELPA
Libraries       : libncdf.a libfdict.a  -lflookall -ldl -lnetcdff -lnetcdf -lhdf5_hl -lhdf5 -lhdf5_fortran -lz -lscalapack-openmpi -lopenblas -lmetis -lzmumps -lcmumps -ldmumps -lmumps_common -lpord -lsmumps -lesmumps -lscotch -lscotcherr -fopenmp -lelpa
PARALLEL version
NetCDF support
NetCDF-4 support
NetCDF-4 MPI-IO support
METIS ordering support
Lua support

* Running on 4 nodes in parallel
>> Start of run:   1-JUN-2023   9:42:02

                           ***********************       
                           *  WELCOME TO SIESTA  *       
                           ***********************       

reinit: Reading from standard input
reinit: Dumped input in INPUT_TMP.88286
************************** Dump of input data file ****************************
# mpirun -np 4 siesta-4.1.5 < Adenine.fdf > Adenine.out
SystemLabel      Adenine
NumberOfAtoms    15
NumberOfSpecies  3
%block ChemicalSpeciesLabel
    1    1  H
    2    7  N
    3   14  Si
%endblock ChemicalSpeciesLabel
############################################
# This overrides Defaults.fdf configuration
############################################
MD.TypeOfRun                CG # CG, Verlet
AtomicCoordinatesFormat NotScaledCartesianAng
%block AtomicCoordinatesAndAtomicSpecies
    2.45678154   -5.19628603    0.00000000   1       1  H
    1.53043803   -4.68850309    0.00000000   2       2  N
   -0.05994288   -5.52124565    0.00000000   3       3  Si
   -0.00012610   -7.01526228    0.00000000   1       4  H
   -1.49856740   -4.60156292    0.00000000   2       5  N
   -0.94448620   -2.88146937    0.00000000   3       6  Si
   -1.28997922   -0.69291309    0.00000000   3       7  Si
   -2.82542950    0.15885311    0.00000000   2       8  N
   -2.86640446    1.21156880    0.00000000   1       9  H
   -3.75591339   -0.33501627    0.00000000   1      10  H
    0.09801750    0.34309317    0.00000000   2      11  N
    1.75090491   -0.12159776    0.00000000   3      12  Si
    2.70168860    1.03869620    0.00000000   1      13  H
    2.53038958   -1.67804686    0.00000000   2      14  N
    1.27127984   -2.87467609    0.00000000   3      15  Si
%endblock AtomicCoordinatesAndAtomicSpecies
%include ../../Defaults.fdf
************************** End of input data file *****************************

reinit: -----------------------------------------------------------------------
reinit: System Name: 
reinit: -----------------------------------------------------------------------
reinit: System Label: Adenine
reinit: -----------------------------------------------------------------------

initatom: Reading input for the pseudopotentials and atomic orbitals ----------
Species number:   1 Atomic number:    1 Label: H
Species number:   2 Atomic number:    7 Label: N
Species number:   3 Atomic number:   14 Label: Si

Ground state valence configuration:   1s01
Reading pseudopotential information in formatted form from H.psf

Pseudopotential generated from a relativistic atomic calculation

Valence configuration for pseudopotential generation:
1s( 1.00) rc: 0.01
2p( 0.00) rc: 0.60
3d( 0.00) rc: 1.99
4f( 0.00) rc: 2.49
Ground state valence configuration:   2s02  2p03
Reading pseudopotential information in formatted form from N.psf

Pseudopotential generated from a relativistic atomic calculation

Valence configuration for pseudopotential generation:
2s( 2.00) rc: 0.94
2p( 3.00) rc: 0.59
3d( 0.00) rc: 3.46
4f( 0.00) rc: 2.47
Ground state valence configuration:   3s02  3p02
Reading pseudopotential information in formatted form from Si.psf

Pseudopotential generated from a relativistic atomic calculation

Valence configuration for pseudopotential generation:
3s( 2.00) rc: 1.67
3p( 2.00) rc: 2.04
3d( 0.00) rc: 2.89
4f( 0.00) rc: 2.49
For H, standard SIESTA heuristics set lmxkb to 2
 (one more than the basis l, including polarization orbitals).
Use PS.lmax or PS.KBprojectors blocks to override.
For N, standard SIESTA heuristics set lmxkb to 3
 (one more than the basis l, including polarization orbitals).
Use PS.lmax or PS.KBprojectors blocks to override.
For Si, standard SIESTA heuristics set lmxkb to 3
 (one more than the basis l, including polarization orbitals).
Use PS.lmax or PS.KBprojectors blocks to override.

<basis_specs>
===============================================================================
H                    Z=   1    Mass=  1.0100        Charge= 0.17977+309
Lmxo=0 Lmxkb= 2    BasisType=split      Semic=F
L=0  Nsemic=0  Cnfigmx=1
          i=1  nzeta=2  polorb=1  (1s)
            splnorm:   0.62000    
               vcte:    0.0000    
               rinn:    0.0000    
               qcoe:    0.0000    
               qyuk:    0.0000    
               qwid:   0.10000E-01
                rcs:    0.0000      0.0000    
            lambdas:    1.0000      1.0000    
-------------------------------------------------------------------------------
L=0  Nkbl=1  erefs: 0.17977+309
L=1  Nkbl=1  erefs: 0.17977+309
L=2  Nkbl=1  erefs: 0.17977+309
===============================================================================
</basis_specs>

atom: Called for H                     (Z =   1)

read_vps: Pseudopotential generation method:
read_vps: ATM4.2.7  Troullier-Martins                       
Valence charge for ps generation:    1.00000

xc_check: Exchange-correlation functional:
xc_check: GGA Perdew, Burke & Ernzerhof 1996
V l=0 = -2*Zval/r beyond r=  0.0098
V l=1 = -2*Zval/r beyond r=  0.5817
V l=2 = -2*Zval/r beyond r=  1.9372
All V_l potentials equal beyond r=  1.9372
This should be close to max(r_c) in ps generation
All pots = -2*Zval/r beyond r=  1.9372

VLOCAL1: 99.0% of the norm of Vloc inside     11.567 Ry
VLOCAL1: 99.9% of the norm of Vloc inside     26.362 Ry
atom: Maximum radius for 4*pi*r*r*local-pseudopot. charge    2.25106
atom: Maximum radius for r*vlocal+2*Zval:    1.91306
GHOST: No ghost state for L =  0
GHOST: No ghost state for L =  1
GHOST: No ghost state for L =  2

KBgen: Kleinman-Bylander projectors: 
   l= 0   rc=  2.036604   el= -0.477180   Ekb= -6.081590   kbcos= -0.277285
   l= 1   rc=  2.195416   el=  0.001076   Ekb= -0.926943   kbcos= -0.034643
   l= 2   rc=  2.251056   el=  0.002010   Ekb= -0.130941   kbcos= -0.009788

KBgen: Total number of Kleinman-Bylander projectors:    9
atom: -------------------------------------------------------------------------

atom: SANKEY-TYPE ORBITALS:
atom: Selected multiple-zeta basis: split     

SPLIT: Orbitals with angular momentum L= 0

SPLIT: Basis orbitals for state 1s

SPLIT: PAO cut-off radius determined from an
SPLIT: energy shift=  0.002000 Ry

   izeta = 1
                 lambda =    1.000000
                     rc =    6.518340
                 energy =   -0.475305
                kinetic =    0.912139
    potential(screened) =   -1.387444
       potential(ionic) =   -1.907295

   izeta = 2
                 rmatch =    2.141150
              splitnorm =    0.620000
                 energy =    0.566467
                kinetic =    3.772856
    potential(screened) =   -3.206389
       potential(ionic) =   -3.759093

POLgen: Perturbative polarization orbital with L=  1

POLgen: Polarization orbital for state 1s

   izeta = 1
                     rc =    6.518340
                 energy =    0.533861
                kinetic =    1.121086
    potential(screened) =   -0.587225
       potential(ionic) =   -1.053027
atom: Total number of Sankey-type orbitals:  5

atm_pop: Valence configuration (for local Pseudopot. screening):
 1s( 1.00)                                                            
Vna: chval, zval:    1.00000   1.00000

Vna:  Cut-off radius for the neutral-atom potential:   6.518340

atom: _________________________________________________________________________

<basis_specs>
===============================================================================
N                    Z=   7    Mass=  14.010        Charge= 0.17977+309
Lmxo=1 Lmxkb= 3    BasisType=split      Semic=F
L=0  Nsemic=0  Cnfigmx=2
          i=1  nzeta=2  polorb=0  (2s)
            splnorm:   0.28000    
               vcte:    0.0000    
               rinn:    0.0000    
               qcoe:    0.0000    
               qyuk:    0.0000    
               qwid:   0.10000E-01
                rcs:    0.0000      0.0000    
            lambdas:    1.0000      1.0000    
L=1  Nsemic=0  Cnfigmx=2
          i=1  nzeta=2  polorb=1  (2p)
            splnorm:   0.28000    
               vcte:    0.0000    
               rinn:    0.0000    
               qcoe:    0.0000    
               qyuk:    0.0000    
               qwid:   0.10000E-01
                rcs:    0.0000      0.0000    
            lambdas:    1.0000      1.0000    
-------------------------------------------------------------------------------
L=0  Nkbl=1  erefs: 0.17977+309
L=1  Nkbl=1  erefs: 0.17977+309
L=2  Nkbl=1  erefs: 0.17977+309
L=3  Nkbl=1  erefs: 0.17977+309
===============================================================================
</basis_specs>

atom: Called for N                     (Z =   7)

read_vps: Pseudopotential generation method:
read_vps: ATM4.2.7  Troullier-Martins                       
Valence charge for ps generation:    5.00000

xc_check: Exchange-correlation functional:
xc_check: GGA Perdew, Burke & Ernzerhof 1996
V l=0 = -2*Zval/r beyond r=  1.2889
V l=1 = -2*Zval/r beyond r=  1.2889
V l=2 = -2*Zval/r beyond r=  3.4178
V l=3 = -2*Zval/r beyond r=  2.4084
All V_l potentials equal beyond r=  3.3753
This should be close to max(r_c) in ps generation
All pots = -2*Zval/r beyond r=  3.4178

VLOCAL1: 99.0% of the norm of Vloc inside      3.810 Ry
VLOCAL1: 99.9% of the norm of Vloc inside      8.683 Ry
atom: Maximum radius for 4*pi*r*r*local-pseudopot. charge    4.02088
atom: Maximum radius for r*vlocal+2*Zval:    3.54838
GHOST: No ghost state for L =  0
GHOST: No ghost state for L =  1
GHOST: No ghost state for L =  2
GHOST: No ghost state for L =  3

KBgen: Kleinman-Bylander projectors: 
   l= 0   rc=  3.417763   el= -1.365098   Ekb= -4.433130   kbcos= -0.707855
   l= 1   rc=  3.375302   el= -0.521201   Ekb=-13.264039   kbcos= -0.535594
   l= 2   rc=  3.872880   el=  0.001991   Ekb= -0.641094   kbcos= -0.062456
   l= 3   rc=  3.970931   el=  0.003093   Ekb= -0.474517   kbcos= -0.018236

KBgen: Total number of Kleinman-Bylander projectors:   16
atom: -------------------------------------------------------------------------

atom: SANKEY-TYPE ORBITALS:
atom: Selected multiple-zeta basis: split     

SPLIT: Orbitals with angular momentum L= 0

SPLIT: Basis orbitals for state 2s

SPLIT: PAO cut-off radius determined from an
SPLIT: energy shift=  0.002000 Ry

   izeta = 1
                 lambda =    1.000000
                     rc =    4.730425
                 energy =   -1.363399
                kinetic =    1.245246
    potential(screened) =   -2.608645
       potential(ionic) =   -8.121105

   izeta = 2
                 rmatch =    2.531849
              splitnorm =    0.280000
                 energy =   -0.959908
                kinetic =    2.409435
    potential(screened) =   -3.369343
       potential(ionic) =   -9.427975

SPLIT: Orbitals with angular momentum L= 1

SPLIT: Basis orbitals for state 2p

SPLIT: PAO cut-off radius determined from an
SPLIT: energy shift=  0.002000 Ry

   izeta = 1
                 lambda =    1.000000
                     rc =    5.924108
                 energy =   -0.519262
                kinetic =    3.672940
    potential(screened) =   -4.192202
       potential(ionic) =   -9.518354

   izeta = 2
                 rmatch =    2.531849
              splitnorm =    0.280000
                 energy =   -0.104258
                kinetic =    6.807538
    potential(screened) =   -6.911796
       potential(ionic) =  -13.149920

POLgen: Perturbative polarization orbital with L=  2

POLgen: Polarization orbital for state 2p

   izeta = 1
                     rc =    5.924108
                 energy =    1.427508
                kinetic =    2.872379
    potential(screened) =   -1.444871
       potential(ionic) =   -5.563644
atom: Total number of Sankey-type orbitals: 13

atm_pop: Valence configuration (for local Pseudopot. screening):
 2s( 2.00)                                                            
 2p( 3.00)                                                            
Vna: chval, zval:    5.00000   5.00000

Vna:  Cut-off radius for the neutral-atom potential:   5.924108

atom: _________________________________________________________________________

<basis_specs>
===============================================================================
Si                   Z=  14    Mass=  28.090        Charge= 0.17977+309
Lmxo=1 Lmxkb= 3    BasisType=split      Semic=F
L=0  Nsemic=0  Cnfigmx=3
          i=1  nzeta=2  polorb=0  (3s)
            splnorm:   0.28000    
               vcte:    0.0000    
               rinn:    0.0000    
               qcoe:    0.0000    
               qyuk:    0.0000    
               qwid:   0.10000E-01
                rcs:    0.0000      0.0000    
            lambdas:    1.0000      1.0000    
L=1  Nsemic=0  Cnfigmx=3
          i=1  nzeta=2  polorb=1  (3p)
            splnorm:   0.28000    
               vcte:    0.0000    
               rinn:    0.0000    
               qcoe:    0.0000    
               qyuk:    0.0000    
               qwid:   0.10000E-01
                rcs:    0.0000      0.0000    
            lambdas:    1.0000      1.0000    
-------------------------------------------------------------------------------
L=0  Nkbl=1  erefs: 0.17977+309
L=1  Nkbl=1  erefs: 0.17977+309
L=2  Nkbl=1  erefs: 0.17977+309
L=3  Nkbl=1  erefs: 0.17977+309
===============================================================================
</basis_specs>

atom: Called for Si                    (Z =  14)

read_vps: Pseudopotential generation method:
read_vps: ATM4.2.7  Troullier-Martins                       
Valence charge for ps generation:    4.00000

xc_check: Exchange-correlation functional:
xc_check: GGA Perdew, Burke & Ernzerhof 1996
V l=0 = -2*Zval/r beyond r=  2.7826
V l=1 = -2*Zval/r beyond r=  2.7826
V l=2 = -2*Zval/r beyond r=  2.9253
V l=3 = -2*Zval/r beyond r=  2.7826
All V_l potentials equal beyond r=  2.8530
This should be close to max(r_c) in ps generation
All pots = -2*Zval/r beyond r=  2.9253

VLOCAL1: 99.0% of the norm of Vloc inside      5.333 Ry
VLOCAL1: 99.9% of the norm of Vloc inside     12.154 Ry
atom: Maximum radius for 4*pi*r*r*local-pseudopot. charge    3.39869
atom: Maximum radius for r*vlocal+2*Zval:    2.96205
GHOST: No ghost state for L =  0
GHOST: No ghost state for L =  1
GHOST: No ghost state for L =  2
GHOST: No ghost state for L =  3

KBgen: Kleinman-Bylander projectors: 
   l= 0   rc=  3.075247   el= -0.794092   Ekb=  5.879390   kbcos=  0.167461
   l= 1   rc=  3.153101   el= -0.300068   Ekb=  2.642817   kbcos=  0.058301
   l= 2   rc=  3.273594   el=  0.001958   Ekb= -1.185135   kbcos= -0.104411
   l= 3   rc=  3.232927   el=  0.003046   Ekb= -0.497174   kbcos= -0.015889

KBgen: Total number of Kleinman-Bylander projectors:   16
atom: -------------------------------------------------------------------------

atom: SANKEY-TYPE ORBITALS:
atom: Selected multiple-zeta basis: split     

SPLIT: Orbitals with angular momentum L= 0

SPLIT: Basis orbitals for state 3s

SPLIT: PAO cut-off radius determined from an
SPLIT: energy shift=  0.002000 Ry

   izeta = 1
                 lambda =    1.000000
                     rc =    6.429618
                 energy =   -0.792283
                kinetic =    0.525293
    potential(screened) =   -1.317576
       potential(ionic) =   -3.744923

   izeta = 2
                 rmatch =    3.998416
              splitnorm =    0.280000
                 energy =   -0.583081
                kinetic =    1.069570
    potential(screened) =   -1.652651
       potential(ionic) =   -4.235185

SPLIT: Orbitals with angular momentum L= 1

SPLIT: Basis orbitals for state 3p

SPLIT: PAO cut-off radius determined from an
SPLIT: energy shift=  0.002000 Ry

   izeta = 1
                 lambda =    1.000000
                     rc =    8.464845
                 energy =   -0.298236
                kinetic =    0.785360
    potential(screened) =   -1.083596
       potential(ionic) =   -3.273779

   izeta = 2
                 rmatch =    4.587816
              splitnorm =    0.280000
                 energy =   -0.131871
                kinetic =    1.403687
    potential(screened) =   -1.535557
       potential(ionic) =   -4.015310

POLgen: Perturbative polarization orbital with L=  2

POLgen: Polarization orbital for state 3p

   izeta = 1
                     rc =    8.464845
                 energy =    0.321949
                kinetic =    1.055677
    potential(screened) =   -0.733728
       potential(ionic) =   -2.672950
atom: Total number of Sankey-type orbitals: 13

atm_pop: Valence configuration (for local Pseudopot. screening):
 3s( 2.00)                                                            
 3p( 2.00)                                                            
Vna: chval, zval:    4.00000   4.00000

Vna:  Cut-off radius for the neutral-atom potential:   8.464845

atom: _________________________________________________________________________

prinput: Basis input ----------------------------------------------------------

PAO.BasisType split     

%block ChemicalSpeciesLabel
    1    1 H                       # Species index, atomic number, species label
    2    7 N                       # Species index, atomic number, species label
    3   14 Si                      # Species index, atomic number, species label
%endblock ChemicalSpeciesLabel

%block PAO.Basis                 # Define Basis set
H                     1                    # Species label, number of l-shells
 n=1   0   2 P   1                   # n, l, Nzeta, Polarization, NzetaPol
   6.518      2.141   
   1.000      1.000   
N                     2                    # Species label, number of l-shells
 n=2   0   2                         # n, l, Nzeta 
   4.730      2.532   
   1.000      1.000   
 n=2   1   2 P   1                   # n, l, Nzeta, Polarization, NzetaPol
   5.924      2.532   
   1.000      1.000   
Si                    2                    # Species label, number of l-shells
 n=3   0   2                         # n, l, Nzeta 
   6.430      3.998   
   1.000      1.000   
 n=3   1   2 P   1                   # n, l, Nzeta, Polarization, NzetaPol
   8.465      4.588   
   1.000      1.000   
%endblock PAO.Basis

prinput: ----------------------------------------------------------------------

Dumping basis to NetCDF file H.ion.nc
Dumping basis to NetCDF file N.ion.nc
Dumping basis to NetCDF file Si.ion.nc
coor:   Atomic-coordinates input format  =     Cartesian coordinates
coor:                                          (in Angstroms)

siesta: Atomic coordinates (Bohr) and species
siesta:      4.64265  -9.81956   0.00000  1        1
siesta:      2.89211  -8.85999   0.00000  2        2
siesta:     -0.11328 -10.43365   0.00000  3        3
siesta:     -0.00024 -13.25693   0.00000  1        4
siesta:     -2.83188  -8.69570   0.00000  2        5
siesta:     -1.78482  -5.44519   0.00000  3        6
siesta:     -2.43771  -1.30942   0.00000  3        7
siesta:     -5.33929   0.30019   0.00000  2        8
siesta:     -5.41672   2.28953   0.00000  1        9
siesta:     -7.09765  -0.63309   0.00000  1       10
siesta:      0.18523   0.64835   0.00000  2       11
siesta:      3.30873  -0.22979   0.00000  3       12
siesta:      5.10545   1.96285   0.00000  1       13
siesta:      4.78175  -3.17105   0.00000  2       14
siesta:      2.40237  -5.43235   0.00000  3       15

siesta: Automatic unit cell vectors (Ang):
siesta:   14.779133    0.000000    0.000000
siesta:    0.000000   16.638097    0.000000
siesta:    0.000000    0.000000    9.854683

siesta: System type = molecule  

initatomlists: Number of atoms, orbitals, and projectors:     15   155   205

siesta: ******************** Simulation parameters ****************************
siesta:
siesta: The following are some of the parameters of the simulation.
siesta: A complete list of the parameters used, including default values,
siesta: can be found in file out.fdf
siesta:
redata: Spin configuration                          = spin-orbit
redata: Number of spin components                   = 8
redata: Time-Reversal Symmetry                      = F
redata: Spin spiral                                 = F
############################################################
This spin-orbit implementation uses a local approximation.
From 4.2 and onwards the full non-local approximation is implemented
You are strongly advised to use >=4.2 versions!
############################################################
redata: Long output                                 =   F
redata: Number of Atomic Species                    =        3
redata: Charge density info will appear in .RHO file
redata: Write Mulliken Pop.                         = Atomic and Orbital charges
redata: Matel table size (NRTAB)                    =     1024
redata: Mesh Cutoff                                 =   340.0000 Ry
redata: Net charge of the system                    =     0.0000 |e|
redata: Min. number of SCF Iter                     =        1
redata: Max. number of SCF Iter                     =      200
redata: SCF convergence failure will abort job
redata: SCF mix quantity                            = Hamiltonian
redata: Mix DM or H after convergence               =   F
redata: Recompute H after scf cycle                 =   F
redata: Mix DM in first SCF step                    =   T
redata: Write Pulay info on disk                    =   F
redata: New DM Occupancy tolerance                  = 0.000000000001
redata: No kicks to SCF
redata: DM Mixing Weight for Kicks                  =     0.5000
redata: Require Harris convergence for SCF          =   F
redata: Harris energy tolerance for SCF             =     0.000100 eV
redata: Require DM convergence for SCF              =   T
redata: DM tolerance for SCF                        =     0.000008
redata: Require EDM convergence for SCF             =   F
redata: EDM tolerance for SCF                       =     0.001000 eV
redata: Require H convergence for SCF               =   T
redata: Hamiltonian tolerance for SCF               =     0.000001 eV
redata: Require (free) Energy convergence for SCF   =   F
redata: (free) Energy tolerance for SCF             =     0.000100 eV
redata: Using Saved Data (generic)                  =   F
redata: Use continuation files for DM               =   F
redata: Neglect nonoverlap interactions             =   F
redata: Method of Calculation                       = Diagonalization
redata: Electronic Temperature                      =   299.9978 K
redata: Fix the spin of the system                  =   F
redata: Dynamics option                             = CG coord. optimization
redata: Variable cell                               =   F
redata: Use continuation files for CG               =   F
redata: Max atomic displ per move                   =     0.3000 Ang
redata: Maximum number of optimization moves        =      185
redata: Force tolerance                             =     0.0050 eV/Ang
mix.SCF: Pulay mixing                            = Pulay
mix.SCF:    Variant                              = stable
mix.SCF:    History steps                        = 6
mix.SCF:    Linear mixing weight                 =     0.250000
mix.SCF:    Mixing weight                        =     0.250000
mix.SCF:    SVD condition                        = 0.1000E-07
mix.SCF:    Restart steps                        = 24
mix.SCF:    Restart save steps                   = 3
mix.SCF: Spin-component mixing                   all
redata: Save all siesta data in one NC              =   F
redata: ***********************************************************************

%block SCF.Mixers
  Pulay
%endblock SCF.Mixers

%block SCF.Mixer.Pulay
  # Mixing method
  method pulay
  variant stable

  # Mixing options
  weight 0.2500
  weight.linear 0.2500
  history 6
  restart 24
  restart.save 3
%endblock SCF.Mixer.Pulay

DM_history_depth set to one: no extrapolation allowed by default for geometry relaxation
Size of DM history Fstack: 1
Total number of electrons:    50.000000
Total ionic charge:    50.000000

* ProcessorY, Blocksize:    2  24


* Orbital distribution balance (max,min):    48    24


Time-reversal symmetry not used.

siesta: k-grid: Number of k-points =     1
siesta: k-grid: Cutoff (effective) =     4.927 Ang
siesta: k-grid: Supercell and displacements
siesta: k-grid:    1   0   0      0.000
siesta: k-grid:    0   1   0      0.000
siesta: k-grid:    0   0   1      0.000

diag: Algorithm                                     = ELPA-1stage
diag: Parallel over k                               =   F
diag: Use parallel 2D distribution                  =   T
diag: Parallel block-size                           = 24
diag: Parallel distribution                         =     2 x     2
diag: Used triangular part                          = Lower
diag: Absolute tolerance                            =  0.100E-15
diag: Orthogonalization factor                      =  0.100E-05
diag: Memory factor                                 =  1.0000


ts: **************************************************************
ts: Save H and S matrices                           =    F
ts: Save DM and EDM matrices                        =    F
ts: Only save the overlap matrix S                  =    F
ts: **************************************************************

************************ Begin: TS CHECKS AND WARNINGS ************************
************************ End: TS CHECKS AND WARNINGS **************************


                     ====================================
                        Begin CG opt. move =      0
                     ====================================

outcoor: Atomic coordinates (Ang):                          
    2.45678154   -5.19628603    0.00000000   1       1  H
    1.53043803   -4.68850309    0.00000000   2       2  N
   -0.05994288   -5.52124565    0.00000000   3       3  Si
   -0.00012610   -7.01526228    0.00000000   1       4  H
   -1.49856740   -4.60156292    0.00000000   2       5  N
   -0.94448620   -2.88146937    0.00000000   3       6  Si
   -1.28997922   -0.69291309    0.00000000   3       7  Si
   -2.82542950    0.15885311    0.00000000   2       8  N
   -2.86640446    1.21156880    0.00000000   1       9  H
   -3.75591339   -0.33501627    0.00000000   1      10  H
    0.09801750    0.34309317    0.00000000   2      11  N
    1.75090491   -0.12159776    0.00000000   3      12  Si
    2.70168860    1.03869620    0.00000000   1      13  H
    2.53038958   -1.67804686    0.00000000   2      14  N
    1.27127984   -2.87467609    0.00000000   3      15  Si

outcell: Unit cell vectors (Ang):
       14.779133    0.000000    0.000000
        0.000000   16.638097    0.000000
        0.000000    0.000000    9.854683

outcell: Cell vector modules (Ang)   :   14.779133   16.638097    9.854683
outcell: Cell angles (23,13,12) (deg):     90.0000     90.0000     90.0000
outcell: Cell volume (Ang**3)        :   2423.2336
<dSpData1D:S at geom step 0
  <sparsity:sparsity for geom step 0
    nrows_g=155 nrows=48 sparsity=.3022 nnzs=7261, refcount: 8>
  <dData1D:(new from dSpData1D) n=7261, refcount: 1>
refcount: 1>
new_DM -- step:     1
Initializing Density Matrix...
DM filled with atomic data:
<dSpData2D:DM initialized from atoms
  <sparsity:sparsity for geom step 0
    nrows_g=155 nrows=48 sparsity=.3022 nnzs=7261, refcount: 9>
  <dData2D:DM n=7261 m=8, refcount: 1>
refcount: 1>
     spin moment: S , {S} =   30.00000   0.00000   0.00000  30.00000
No. of atoms with KB's overlaping orbs in proc 0. Max # of overlaps:      15     133

Initializing spin-orbit part of the Hamiltonian
  Adding spin-orbit effects for H 
  Adding spin-orbit effects for N 
  Adding spin-orbit effects for Si


New grid distribution:   1
           1       1:   90    1:   48    1:   30
           2       1:   90    1:   48   31:   60
           3       1:   90   49:   96    1:   30
           4       1:   90   49:   96   31:   60

InitMesh: MESH =   180 x   192 x   120 =     4147200
InitMesh: (bp) =    90 x    96 x    60 =      518400
InitMesh: Mesh cutoff (required, used) =   340.000   368.042 Ry
ExtMesh (bp) on 0 =   202 x   152 x   142 =     4359968
New grid distribution:   2
           1      26:   90    1:   75    1:   60
           2       1:   25    1:   75    1:   60
           3      23:   90   76:   96    1:   60
           4       1:   22   76:   96    1:   60
New grid distribution:   3
           1      35:   90    1:   62    1:   60
           2       1:   34    1:   62    1:   60
           3      36:   90   63:   96    1:   60
           4       1:   35   63:   96    1:   60
Setting up quadratic distribution...
ExtMesh (bp) on 0 =   177 x   179 x   172 =     5449476
PhiOnMesh: Number of (b)points on node 0 =               292500
PhiOnMesh: nlist on node 0 =              1756072

stepf: Fermi-Dirac step function

siesta: Program's energy decomposition (eV):
siesta: Ebs     =      -308.325451
siesta: Eions   =      1645.679058
siesta: Ena     =       215.298979
siesta: Ekin    =      1534.130993
siesta: Enl     =     -1588.027446
siesta: Eso     =        -0.001643
siesta: Edftu   =         0.000000
siesta: DEna    =        98.318720
siesta: DUscf   =        42.825996
siesta: DUext   =         0.000000
siesta: Exc     =      -591.313668
siesta: eta*DQ  =         0.000000
siesta: Emadel  =         0.000000
siesta: Emeta   =         0.000000
siesta: Emolmec =         0.000000
siesta: Ekinion =         0.000000
siesta: Eharris =     -1887.893923
siesta: Etot    =     -1934.447128
siesta: FreeEng =     -1934.447129

        iscf     Eharris(eV)        E_KS(eV)     FreeEng(eV)     dDmax    Ef(eV) dHmax(eV)
   scf:    1    -1887.893923    -1934.447128    -1934.447129  0.945797 -4.887067 19.295708
     spin moment: S , {S} =    2.00002  -0.00000  -0.00000   2.00002
timer: Routine,Calls,Time,% = IterSCF        1       6.312  30.96
   scf:    2    -1968.728110    -1957.146548    -1957.152381  0.317010 -4.044863  8.473985
     spin moment: S , {S} =    0.04776  -0.00000  -0.00000   0.04776
   scf:    3    -1959.898641    -1958.850035    -1958.850035  0.057040 -3.620858  6.531337
     spin moment: S , {S} =    0.00006  -0.00000   0.00000   0.00006
   scf:    4    -1959.609923    -1959.251366    -1959.251366  0.023794 -3.397734  4.476353
     spin moment: S , {S} =    0.00004  -0.00000   0.00000   0.00004
   scf:    5    -1959.811081    -1959.528937    -1959.528937  0.030594 -3.263549  1.730291
     spin moment: S , {S} =    0.00002  -0.00000   0.00000   0.00002
   scf:    6    -1959.735302    -1959.627508    -1959.627508  0.020978 -3.801282  0.513730
     spin moment: S , {S} =    0.00001   0.00000  -0.00000   0.00001
   scf:    7    -1959.706942    -1959.664936    -1959.664936  0.012541 -3.769748  0.206477
     spin moment: S , {S} =    0.00000   0.00000  -0.00000   0.00000
   scf:    8    -1959.685057    -1959.674565    -1959.674565  0.006011 -3.763731  0.108874
     spin moment: S , {S} =    0.00000   0.00000  -0.00000   0.00000
   scf:    9    -1959.689698    -1959.681618    -1959.681618  0.006600 -3.761161  0.077525
     spin moment: S , {S} =    0.00000   0.00000  -0.00000   0.00000
   scf:   10    -1959.694517    -1959.687158    -1959.687158  0.008946 -3.757798  0.048341
     spin moment: S , {S} =    0.00000   0.00000  -0.00000   0.00000
   scf:   11    -1959.690613    -1959.688594    -1959.688594  0.005614 -3.756435  0.025375
     spin moment: S , {S} =    0.00000   0.00000  -0.00000   0.00000
   scf:   12    -1959.689314    -1959.688902    -1959.688902  0.002925 -3.755030  0.015997
     spin moment: S , {S} =    0.00000   0.00000  -0.00000   0.00000
   scf:   13    -1959.689047    -1959.688968    -1959.688968  0.001182 -3.755376  0.009684
     spin moment: S , {S} =    0.00000   0.00000  -0.00000   0.00000
   scf:   14    -1959.689061    -1959.689009    -1959.689009  0.001072 -3.754966  0.006907
     spin moment: S , {S} =    0.00000   0.00000  -0.00000   0.00000
   scf:   15    -1959.689059    -1959.689029    -1959.689029  0.001049 -3.754728  0.002309
     spin moment: S , {S} =    0.00000   0.00000   0.00000  -0.00000
   scf:   16    -1959.689035    -1959.689032    -1959.689032  0.000304 -3.754569  0.001643
     spin moment: S , {S} =    0.00000   0.00000   0.00000  -0.00000
   scf:   17    -1959.689034    -1959.689033    -1959.689033  0.000195 -3.754508  0.000879
     spin moment: S , {S} =    0.00000   0.00000   0.00000  -0.00000
   scf:   18    -1959.689033    -1959.689033    -1959.689033  0.000092 -3.754481  0.000631
     spin moment: S , {S} =    0.00000   0.00000   0.00000  -0.00000
   scf:   19    -1959.689033    -1959.689033    -1959.689033  0.000045 -3.754476  0.000479
     spin moment: S , {S} =    0.00000   0.00000   0.00000  -0.00000
   scf:   20    -1959.689033    -1959.689033    -1959.689033  0.000036 -3.754475  0.000295
     spin moment: S , {S} =    0.00000   0.00000   0.00000  -0.00000
   scf:   21    -1959.689033    -1959.689033    -1959.689033  0.000027 -3.754468  0.000176
     spin moment: S , {S} =    0.00000   0.00000   0.00000  -0.00000
   scf:   22    -1959.689033    -1959.689033    -1959.689033  0.000013 -3.754468  0.000124
     spin moment: S , {S} =    0.00000   0.00000   0.00000  -0.00000
   scf:   23    -1959.689033    -1959.689033    -1959.689033  0.000011 -3.754472  0.000100
     spin moment: S , {S} =    0.00000   0.00000   0.00000  -0.00000
   scf:   24    -1959.689033    -1959.689033    -1959.689033  0.000006 -3.754474  0.000072
     spin moment: S , {S} =    0.00000   0.00000   0.00000  -0.00000
mix: Pulay -- resetting history
   scf:   25    -1959.689033    -1959.689033    -1959.689033  0.000005 -3.754473  0.000045
     spin moment: S , {S} =    0.00000   0.00000   0.00000  -0.00000
   scf:   26    -1959.689033    -1959.689033    -1959.689033  0.000006 -3.754472  0.000024
     spin moment: S , {S} =    0.00000   0.00000   0.00000  -0.00000
   scf:   27    -1959.689033    -1959.689033    -1959.689033  0.000003 -3.754472  0.000010
     spin moment: S , {S} =    0.00000   0.00000   0.00000  -0.00000
   scf:   28    -1959.689033    -1959.689033    -1959.689033  0.000001 -3.754472  0.000006
     spin moment: S , {S} =    0.00000   0.00000   0.00000  -0.00000
   scf:   29    -1959.689033    -1959.689033    -1959.689033  0.000001 -3.754472  0.000004
     spin moment: S , {S} =    0.00000   0.00000   0.00000  -0.00000
   scf:   30    -1959.689033    -1959.689033    -1959.689033  0.000001 -3.754472  0.000002
     spin moment: S , {S} =    0.00000   0.00000   0.00000  -0.00000
   scf:   31    -1959.689033    -1959.689033    -1959.689033  0.000000 -3.754472  0.000001
     spin moment: S , {S} =    0.00000   0.00000   0.00000  -0.00000

SCF Convergence by DM+H criterion
max |DM_out - DM_in|         :     0.0000001934
max |H_out - H_in|      (eV) :     0.0000006379
SCF cycle converged after 31 iterations

Using DM_out to compute the final energy and forces
No. of atoms with KB's overlaping orbs in proc 0. Max # of overlaps:      15     133

grdsam: Reading Grid.CellSampling list
grdsam: Grid-cell sampling: 0 / 7
grdsam: Grid-cell sampling: 1 / 7
New grid distribution:   1
           1       1:   90    1:   48    1:   30
           2       1:   90    1:   48   31:   60
           3       1:   90   49:   96    1:   30
           4       1:   90   49:   96   31:   60

InitMesh: MESH =   180 x   192 x   120 =     4147200
InitMesh: (bp) =    90 x    96 x    60 =      518400
InitMesh: Mesh cutoff (required, used) =   340.000   368.042 Ry
ExtMesh (bp) on 0 =   202 x   152 x   142 =     4359968
New grid distribution:   2
           1      24:   90    1:   75    1:   60
           2       1:   23    1:   75    1:   60
           3      22:   90   76:   96    1:   60
           4       1:   21   76:   96    1:   60
New grid distribution:   3
           1      34:   90    1:   62    1:   60
           2       1:   33    1:   62    1:   60
           3      36:   90   63:   96    1:   60
           4       1:   35   63:   96    1:   60
Setting up quadratic distribution...
ExtMesh (bp) on 0 =   179 x   179 x   172 =     5511052
PhiOnMesh: Number of (b)points on node 0 =               301500
PhiOnMesh: nlist on node 0 =              1802995
grdsam: Grid-cell sampling: 2 / 7
New grid distribution:   1
           1       1:   90    1:   48    1:   30
           2       1:   90    1:   48   31:   60
           3       1:   90   49:   96    1:   30
           4       1:   90   49:   96   31:   60

InitMesh: MESH =   180 x   192 x   120 =     4147200
InitMesh: (bp) =    90 x    96 x    60 =      518400
InitMesh: Mesh cutoff (required, used) =   340.000   368.042 Ry
ExtMesh (bp) on 0 =   202 x   152 x   142 =     4359968
New grid distribution:   2
           1      26:   90    1:   75    1:   60
           2       1:   25    1:   75    1:   60
           3      23:   90   76:   96    1:   60
           4       1:   22   76:   96    1:   60
New grid distribution:   3
           1      35:   90    1:   62    1:   60
           2       1:   34    1:   62    1:   60
           3      36:   90   63:   96    1:   60
           4       1:   35   63:   96    1:   60
Setting up quadratic distribution...
ExtMesh (bp) on 0 =   177 x   179 x   172 =     5449476
PhiOnMesh: Number of (b)points on node 0 =               292500
PhiOnMesh: nlist on node 0 =              1759926
grdsam: Grid-cell sampling: 3 / 7
New grid distribution:   1
           1       1:   90    1:   48    1:   30
           2       1:   90    1:   48   31:   60
           3       1:   90   49:   96    1:   30
           4       1:   90   49:   96   31:   60

InitMesh: MESH =   180 x   192 x   120 =     4147200
InitMesh: (bp) =    90 x    96 x    60 =      518400
InitMesh: Mesh cutoff (required, used) =   340.000   368.042 Ry
ExtMesh (bp) on 0 =   202 x   152 x   142 =     4359968
New grid distribution:   2
           1      25:   90    1:   75    1:   60
           2       1:   24    1:   75    1:   60
           3      22:   90   76:   96    1:   60
           4       1:   21   76:   96    1:   60
New grid distribution:   3
           1      34:   90    1:   62    1:   60
           2       1:   33    1:   62    1:   60
           3      35:   90   63:   96    1:   60
           4       1:   34   63:   96    1:   60
Setting up quadratic distribution...
ExtMesh (bp) on 0 =   178 x   179 x   172 =     5480264
PhiOnMesh: Number of (b)points on node 0 =               297000
PhiOnMesh: nlist on node 0 =              1774467
grdsam: Grid-cell sampling: 4 / 7
New grid distribution:   1
           1       1:   90    1:   48    1:   30
           2       1:   90    1:   48   31:   60
           3       1:   90   49:   96    1:   30
           4       1:   90   49:   96   31:   60

InitMesh: MESH =   180 x   192 x   120 =     4147200
InitMesh: (bp) =    90 x    96 x    60 =      518400
InitMesh: Mesh cutoff (required, used) =   340.000   368.042 Ry
ExtMesh (bp) on 0 =   202 x   152 x   142 =     4359968
New grid distribution:   2
           1      26:   90    1:   75    1:   60
           2       1:   25    1:   75    1:   60
           3      23:   90   76:   96    1:   60
           4       1:   22   76:   96    1:   60
New grid distribution:   3
           1      35:   90    1:   62    1:   60
           2       1:   34    1:   62    1:   60
           3      36:   90   63:   96    1:   60
           4       1:   35   63:   96    1:   60
Setting up quadratic distribution...
ExtMesh (bp) on 0 =   177 x   179 x   172 =     5449476
PhiOnMesh: Number of (b)points on node 0 =               292500
PhiOnMesh: nlist on node 0 =              1756758
grdsam: Grid-cell sampling: 5 / 7
New grid distribution:   1
           1       1:   90    1:   48    1:   30
           2       1:   90    1:   48   31:   60
           3       1:   90   49:   96    1:   30
           4       1:   90   49:   96   31:   60

InitMesh: MESH =   180 x   192 x   120 =     4147200
InitMesh: (bp) =    90 x    96 x    60 =      518400
InitMesh: Mesh cutoff (required, used) =   340.000   368.042 Ry
ExtMesh (bp) on 0 =   202 x   152 x   142 =     4359968
New grid distribution:   2
           1      24:   90    1:   75    1:   60
           2       1:   23    1:   75    1:   60
           3      22:   90   76:   96    1:   60
           4       1:   21   76:   96    1:   60
New grid distribution:   3
           1      34:   90    1:   62    1:   60
           2       1:   33    1:   62    1:   60
           3      36:   90   63:   96    1:   60
           4       1:   35   63:   96    1:   60
Setting up quadratic distribution...
ExtMesh (bp) on 0 =   179 x   179 x   172 =     5511052
PhiOnMesh: Number of (b)points on node 0 =               301500
PhiOnMesh: nlist on node 0 =              1803362
grdsam: Grid-cell sampling: 6 / 7
New grid distribution:   1
           1       1:   90    1:   48    1:   30
           2       1:   90    1:   48   31:   60
           3       1:   90   49:   96    1:   30
           4       1:   90   49:   96   31:   60

InitMesh: MESH =   180 x   192 x   120 =     4147200
InitMesh: (bp) =    90 x    96 x    60 =      518400
InitMesh: Mesh cutoff (required, used) =   340.000   368.042 Ry
ExtMesh (bp) on 0 =   202 x   152 x   142 =     4359968
New grid distribution:   2
           1      26:   90    1:   75    1:   60
           2       1:   25    1:   75    1:   60
           3      23:   90   76:   96    1:   60
           4       1:   22   76:   96    1:   60
New grid distribution:   3
           1      35:   90    1:   62    1:   60
           2       1:   34    1:   62    1:   60
           3      36:   90   63:   96    1:   60
           4       1:   35   63:   96    1:   60
Setting up quadratic distribution...
ExtMesh (bp) on 0 =   177 x   179 x   172 =     5449476
PhiOnMesh: Number of (b)points on node 0 =               292500
PhiOnMesh: nlist on node 0 =              1759733
grdsam: Grid-cell sampling: 7 / 7
New grid distribution:   1
           1       1:   90    1:   48    1:   30
           2       1:   90    1:   48   31:   60
           3       1:   90   49:   96    1:   30
           4       1:   90   49:   96   31:   60

InitMesh: MESH =   180 x   192 x   120 =     4147200
InitMesh: (bp) =    90 x    96 x    60 =      518400
InitMesh: Mesh cutoff (required, used) =   340.000   368.042 Ry
ExtMesh (bp) on 0 =   202 x   152 x   142 =     4359968
New grid distribution:   2
           1      25:   90    1:   75    1:   60
           2       1:   24    1:   75    1:   60
           3      22:   90   76:   96    1:   60
           4       1:   21   76:   96    1:   60
New grid distribution:   3
           1      34:   90    1:   62    1:   60
           2       1:   33    1:   62    1:   60
           3      35:   90   63:   96    1:   60
           4       1:   34   63:   96    1:   60
Setting up quadratic distribution...
ExtMesh (bp) on 0 =   178 x   179 x   172 =     5480264
PhiOnMesh: Number of (b)points on node 0 =               297000
PhiOnMesh: nlist on node 0 =              1774504

grdsam: Max (sampled force - avg. force):   0.139684  -0.159215  -0.000000 eV/Ang
grdsam: Standard deviation of sampled force:   0.025523   0.019700   0.000000 eV/Ang
grdsam: Max (sampled stress - avg. stress):   0.009573 kbar

New grid distribution:   1
           1       1:   90    1:   48    1:   30
           2       1:   90    1:   48   31:   60
           3       1:   90   49:   96    1:   30
           4       1:   90   49:   96   31:   60

InitMesh: MESH =   180 x   192 x   120 =     4147200
InitMesh: (bp) =    90 x    96 x    60 =      518400
InitMesh: Mesh cutoff (required, used) =   340.000   368.042 Ry
ExtMesh (bp) on 0 =   202 x   152 x   142 =     4359968
New grid distribution:   2
           1      26:   90    1:   75    1:   60
           2       1:   25    1:   75    1:   60
           3      23:   90   76:   96    1:   60
           4       1:   22   76:   96    1:   60
New grid distribution:   3
           1      35:   90    1:   62    1:   60
           2       1:   34    1:   62    1:   60
           3      36:   90   63:   96    1:   60
           4       1:   35   63:   96    1:   60
Setting up quadratic distribution...
ExtMesh (bp) on 0 =   177 x   179 x   172 =     5449476
PhiOnMesh: Number of (b)points on node 0 =               292500
PhiOnMesh: nlist on node 0 =              1756072

siesta: E_KS(eV) =            -1959.6777

siesta: E_KS - E_eggbox =     -1959.6777
     spin moment: S , {S} =    0.00000   0.00000   0.00000  -0.00000

siesta: Atomic forces (eV/Ang):
     1    0.048120   -0.010088   -0.000000
     2    0.004852    0.005036   -0.000000
     3    0.007666    0.002712   -0.000000
     4   -0.006668   -0.035174    0.000000
     5   -0.002134    0.004840    0.000000
     6   -0.003250   -0.004749   -0.000000
     7   -0.002609   -0.004281    0.000000
     8   -0.000122    0.002995   -0.000000
     9   -0.056964   -0.054266    0.000000
    10    0.072438    0.080269   -0.000000
    11   -0.019783    0.005685   -0.000000
    12    0.001669    0.005200    0.000000
    13   -0.010641   -0.036903    0.000000
    14   -0.007998    0.014360   -0.000000
    15   -0.005673   -0.006838    0.000000
----------------------------------------
   Tot    0.018902   -0.031203    0.000000
----------------------------------------
   Max    0.080269
   Res    0.023126    sqrt( Sum f_i^2 / 3N )
----------------------------------------
   Max    0.080269    constrained

Stress tensor Voigt[x,y,z,yz,xz,xy] (kbar):        0.15        0.10        0.02       -0.00        0.00        0.16
(Free)E + p*V (eV/cell)    -1959.8133
Target enthalpy (eV/cell)    -1959.6777

mulliken: Atomic and Orbital Populations:

Species: H                   

Atom      Orb        Charge      Spin       Svec
----------------------------------------------------------------
    1  1 1s         0.50517   0.00000      0.000  -0.000   0.000
    1  2 1s         0.18913   0.00000     -0.000  -0.000   0.000
    1  3 2Ppy       0.02762   0.00000      0.000  -0.000  -0.000
    1  4 2Ppz       0.03916   0.00000     -0.000   0.000   0.000
    1  5 2Ppx       0.02490   0.00000      0.000   0.000   0.000
    1     Total     0.78597   0.00000      0.000   0.000   0.000

    4  1 1s         1.01859   0.00000      0.000  -0.000  -0.000
    4  2 1s         0.09603   0.00000     -0.000   0.000   0.000
    4  3 2Ppy       0.03965   0.00000     -0.000  -0.000   0.000
    4  4 2Ppz       0.01916   0.00000      0.000  -0.000   0.000
    4  5 2Ppx       0.01355   0.00000      0.000   0.000  -0.000
    4     Total     1.18698   0.00000      0.000  -0.000  -0.000

    9  1 1s         0.48542   0.00000      0.000   0.000   0.000
    9  2 1s         0.19470   0.00000     -0.000  -0.000   0.000
    9  3 2Ppy       0.02318   0.00000      0.000   0.000  -0.000
    9  4 2Ppz       0.05085   0.00000      0.000  -0.000   0.000
    9  5 2Ppx       0.01303   0.00000      0.000  -0.000   0.000
    9     Total     0.76717   0.00000      0.000   0.000   0.000

   10  1 1s         0.48225   0.00000      0.000   0.000   0.000
   10  2 1s         0.19587   0.00000     -0.000  -0.000   0.000
   10  3 2Ppy       0.00702   0.00000      0.000   0.000  -0.000
   10  4 2Ppz       0.05318   0.00000     -0.000  -0.000   0.000
   10  5 2Ppx       0.02908   0.00000      0.000   0.000  -0.000
   10     Total     0.76740   0.00000      0.000   0.000   0.000

   13  1 1s         1.01855   0.00000      0.000  -0.000   0.000
   13  2 1s         0.09951   0.00000     -0.000   0.000  -0.000
   13  3 2Ppy       0.02435   0.00000      0.000   0.000   0.000
   13  4 2Ppz       0.01490   0.00000      0.000   0.000  -0.000
   13  5 2Ppx       0.01698   0.00000      0.000  -0.000   0.000
   13     Total     1.17428   0.00000      0.000  -0.000   0.000

----------------------------------------------------------------
Total               4.68180   0.00000      0.000  -0.000  -0.000


Species: N                   

Atom      Orb        Charge      Spin       Svec
----------------------------------------------------------------
    2  1 2s         1.37995   0.00000     -0.000   0.000  -0.000
    2  2 2s         0.12699   0.00000      0.000   0.000  -0.000
    2  3 2py        1.06692   0.00000     -0.000   0.000  -0.000
    2  4 2pz        1.49599   0.00000      0.000   0.000  -0.000
    2  5 2px        1.01915   0.00000     -0.000   0.000  -0.000
    2  6 2py        0.19657   0.00000     -0.000  -0.000  -0.000
    2  7 2pz        0.01381   0.00000     -0.000   0.000  -0.000
    2  8 2px        0.20998   0.00000      0.000  -0.000  -0.000
    2  9 3Pdxy      0.00664   0.00000      0.000  -0.000   0.000
    2 10 3Pdyz      0.00596   0.00000      0.000  -0.000  -0.000
    2 11 3Pdz2      0.00148   0.00000      0.000  -0.000   0.000
    2 12 3Pdxz      0.00303   0.00000      0.000  -0.000   0.000
    2 13 3Pdx2-y2   0.00293   0.00000     -0.000  -0.000  -0.000
    2     Total     5.52939   0.00000     -0.000   0.000  -0.000

    5  1 2s         1.55851   0.00000      0.000   0.000  -0.000
    5  2 2s         0.08083   0.00000     -0.000  -0.000   0.000
    5  3 2py        0.90199   0.00000      0.000   0.000  -0.000
    5  4 2pz        1.22464   0.00000     -0.000   0.000  -0.000
    5  5 2px        1.13892   0.00000     -0.000  -0.000  -0.000
    5  6 2py        0.23063   0.00000     -0.000   0.000   0.000
    5  7 2pz        0.05535   0.00000      0.000  -0.000   0.000
    5  8 2px        0.14782   0.00000     -0.000   0.000   0.000
    5  9 3Pdxy      0.00858   0.00000      0.000  -0.000   0.000
    5 10 3Pdyz      0.00686   0.00000     -0.000  -0.000   0.000
    5 11 3Pdz2      0.00190   0.00000     -0.000  -0.000   0.000
    5 12 3Pdxz      0.01134   0.00000     -0.000   0.000   0.000
    5 13 3Pdx2-y2   0.00923   0.00000     -0.000   0.000  -0.000
    5     Total     5.37659   0.00000     -0.000   0.000  -0.000

    8  1 2s         1.28421   0.00000      0.000  -0.000   0.000
    8  2 2s         0.17148   0.00000     -0.000   0.000  -0.000
    8  3 2py        1.05790   0.00000     -0.000   0.000  -0.000
    8  4 2pz        1.57471   0.00000      0.000  -0.000  -0.000
    8  5 2px        1.00437   0.00000     -0.000  -0.000  -0.000
    8  6 2py        0.19543   0.00000      0.000   0.000  -0.000
    8  7 2pz        0.02731   0.00000     -0.000  -0.000  -0.000
    8  8 2px        0.22914   0.00000      0.000  -0.000  -0.000
    8  9 3Pdxy      0.00266   0.00000     -0.000  -0.000  -0.000
    8 10 3Pdyz      0.00082   0.00000      0.000  -0.000  -0.000
    8 11 3Pdz2      0.00273   0.00000     -0.000   0.000  -0.000
    8 12 3Pdxz      0.00246   0.00000      0.000   0.000  -0.000
    8 13 3Pdx2-y2   0.00445   0.00000      0.000   0.000  -0.000
    8     Total     5.55767   0.00000     -0.000  -0.000  -0.000

   11  1 2s         1.45657   0.00000      0.000   0.000   0.000
   11  2 2s         0.11478   0.00000     -0.000  -0.000  -0.000
   11  3 2py        1.22608   0.00000      0.000   0.000  -0.000
   11  4 2pz        1.28752   0.00000     -0.000   0.000   0.000
   11  5 2px        0.79876   0.00000     -0.000  -0.000   0.000
   11  6 2py        0.11155   0.00000     -0.000  -0.000  -0.000
   11  7 2pz        0.04623   0.00000      0.000   0.000  -0.000
   11  8 2px        0.31799   0.00000      0.000   0.000  -0.000
   11  9 3Pdxy      0.00733   0.00000      0.000  -0.000   0.000
   11 10 3Pdyz      0.00602   0.00000      0.000  -0.000  -0.000
   11 11 3Pdz2      0.00053   0.00000      0.000   0.000  -0.000
   11 12 3Pdxz      0.00505   0.00000      0.000   0.000  -0.000
   11 13 3Pdx2-y2   0.00520   0.00000     -0.000  -0.000   0.000
   11     Total     5.38362   0.00000      0.000   0.000   0.000

   14  1 2s         1.50746   0.00000      0.000  -0.000   0.000
   14  2 2s         0.10208   0.00000     -0.000   0.000  -0.000
   14  3 2py        0.84470   0.00000      0.000   0.000   0.000
   14  4 2pz        1.23591   0.00000      0.000  -0.000   0.000
   14  5 2px        1.17600   0.00000      0.000  -0.000   0.000
   14  6 2py        0.27745   0.00000     -0.000  -0.000  -0.000
   14  7 2pz        0.05465   0.00000     -0.000   0.000  -0.000
   14  8 2px        0.13248   0.00000     -0.000   0.000  -0.000
   14  9 3Pdxy      0.00952   0.00000      0.000  -0.000   0.000
   14 10 3Pdyz      0.00498   0.00000      0.000   0.000  -0.000
   14 11 3Pdz2      0.00147   0.00000      0.000   0.000   0.000
   14 12 3Pdxz      0.01070   0.00000      0.000   0.000  -0.000
   14 13 3Pdx2-y2   0.00794   0.00000     -0.000   0.000   0.000
   14     Total     5.36533   0.00000      0.000  -0.000   0.000

----------------------------------------------------------------
Total              31.89441   0.00000      0.000  -0.000   0.000


Species: Si                  

Atom      Orb        Charge      Spin       Svec
----------------------------------------------------------------
    3  1 3s         0.55176   0.00000      0.000   0.000   0.000
    3  2 3s         0.38864   0.00000     -0.000  -0.000   0.000
    3  3 3py        0.07453   0.00000     -0.000   0.000   0.000
    3  4 3pz        0.51918   0.00000      0.000  -0.000   0.000
    3  5 3px        0.36596   0.00000     -0.000   0.000   0.000
    3  6 3py        0.50630   0.00000     -0.000  -0.000  -0.000
    3  7 3pz        0.17920   0.00000     -0.000   0.000   0.000
    3  8 3px        0.23804   0.00000      0.000  -0.000   0.000
    3  9 3Pdxy      0.10800   0.00000      0.000   0.000   0.000
    3 10 3Pdyz      0.05102   0.00000      0.000  -0.000   0.000
    3 11 3Pdz2      0.00988   0.00000     -0.000  -0.000  -0.000
    3 12 3Pdxz      0.13149   0.00000      0.000   0.000   0.000
    3 13 3Pdx2-y2   0.32271   0.00000      0.000  -0.000   0.000
    3     Total     3.44671   0.00000      0.000  -0.000   0.000

    6  1 3s         0.66004   0.00000      0.000   0.000   0.000
    6  2 3s         0.37111   0.00000     -0.000   0.000   0.000
    6  3 3py        0.13100   0.00000      0.000  -0.000   0.000
    6  4 3pz        0.68857   0.00000      0.000   0.000   0.000
    6  5 3px        0.48910   0.00000     -0.000  -0.000   0.000
    6  6 3py        0.46600   0.00000     -0.000   0.000   0.000
    6  7 3pz        0.24448   0.00000     -0.000  -0.000   0.000
    6  8 3px        0.24667   0.00000      0.000   0.000   0.000
    6  9 3Pdxy      0.18600   0.00000     -0.000   0.000   0.000
    6 10 3Pdyz      0.14981   0.00000     -0.000   0.000   0.000
    6 11 3Pdz2      0.01154   0.00000      0.000  -0.000  -0.000
    6 12 3Pdxz      0.03676   0.00000     -0.000   0.000  -0.000
    6 13 3Pdx2-y2   0.18896   0.00000     -0.000  -0.000  -0.000
    6     Total     3.87004   0.00000      0.000   0.000   0.000

    7  1 3s         0.62784   0.00000     -0.000  -0.000   0.000
    7  2 3s         0.36869   0.00000      0.000   0.000  -0.000
    7  3 3py        0.37258   0.00000     -0.000  -0.000  -0.000
    7  4 3pz        0.49815   0.00000     -0.000  -0.000  -0.000
    7  5 3px        0.07889   0.00000     -0.000   0.000  -0.000
    7  6 3py        0.30413   0.00000     -0.000   0.000  -0.000
    7  7 3pz        0.20796   0.00000      0.000   0.000  -0.000
    7  8 3px        0.42135   0.00000      0.000  -0.000   0.000
    7  9 3Pdxy      0.20471   0.00000      0.000  -0.000   0.000
    7 10 3Pdyz      0.14447   0.00000     -0.000  -0.000   0.000
    7 11 3Pdz2      0.01076   0.00000      0.000  -0.000   0.000
    7 12 3Pdxz      0.14928   0.00000     -0.000  -0.000  -0.000
    7 13 3Pdx2-y2   0.24155   0.00000     -0.000  -0.000  -0.000
    7     Total     3.63035   0.00000     -0.000  -0.000  -0.000

   12  1 3s         0.52448   0.00000     -0.000   0.000  -0.000
   12  2 3s         0.40245   0.00000      0.000  -0.000  -0.000
   12  3 3py        0.23252   0.00000     -0.000  -0.000  -0.000
   12  4 3pz        0.44583   0.00000      0.000   0.000  -0.000
   12  5 3px        0.29300   0.00000     -0.000  -0.000  -0.000
   12  6 3py        0.39319   0.00000      0.000   0.000  -0.000
   12  7 3pz        0.17018   0.00000      0.000   0.000  -0.000
   12  8 3px        0.34169   0.00000      0.000   0.000   0.000
   12  9 3Pdxy      0.38973   0.00000      0.000   0.000  -0.000
   12 10 3Pdyz      0.08129   0.00000     -0.000  -0.000  -0.000
   12 11 3Pdz2      0.01072   0.00000      0.000   0.000  -0.000
   12 12 3Pdxz      0.09324   0.00000      0.000   0.000  -0.000
   12 13 3Pdx2-y2   0.16620   0.00000     -0.000   0.000  -0.000
   12     Total     3.54454   0.00000     -0.000   0.000  -0.000

   15  1 3s         0.65912   0.00000     -0.000   0.000  -0.000
   15  2 3s         0.36801   0.00000     -0.000  -0.000  -0.000
   15  3 3py       -0.03238   0.00000     -0.000  -0.000  -0.000
   15  4 3pz        0.50664   0.00000      0.000  -0.000  -0.000
   15  5 3px        0.38639   0.00000     -0.000   0.000  -0.000
   15  6 3py        0.47556   0.00000      0.000   0.000   0.000
   15  7 3pz        0.20142   0.00000     -0.000   0.000  -0.000
   15  8 3px        0.34132   0.00000      0.000  -0.000   0.000
   15  9 3Pdxy      0.14167   0.00000     -0.000  -0.000   0.000
   15 10 3Pdyz      0.12654   0.00000     -0.000   0.000  -0.000
   15 11 3Pdz2      0.01380   0.00000      0.000   0.000  -0.000
   15 12 3Pdxz      0.12393   0.00000     -0.000   0.000  -0.000
   15 13 3Pdx2-y2   0.30194   0.00000     -0.000   0.000  -0.000
   15     Total     3.61396   0.00000     -0.000  -0.000  -0.000

----------------------------------------------------------------
Total              50.00000   0.00000      0.000   0.000  -0.000


                     ====================================
                        Begin CG opt. move =      1
                     ====================================

outcoor: Atomic coordinates (Ang):                          
    2.54983661   -5.21579418   -0.00000001   1       1  H
    1.53981995   -4.67876513   -0.00000003   2       2  N
   -0.04511916   -5.51600200   -0.00000001   3       3  Si
   -0.01301983   -7.08328064    0.00000001   1       4  H
   -1.50269357   -4.59220301    0.00000002   2       5  N
   -0.95077032   -2.89065375   -0.00000002   3       6  Si
   -1.29502401   -0.70119194    0.00000007   3       7  Si
   -2.82566516    0.16464441   -0.00000001   2       8  N
   -2.97656172    1.10662951    0.00000002   1       9  H
   -3.61583406   -0.17979178   -0.00000002   1      10  H
    0.05976037    0.35408640   -0.00000004   2      11  N
    1.75413166   -0.11154232    0.00000005   3      12  Si
    2.68111048    0.96733407    0.00000001   1      13  H
    2.51492225   -1.65027809   -0.00000006   2      14  N
    1.26030982   -2.88790018    0.00000001   3      15  Si

outcell: Unit cell vectors (Ang):
       14.779133    0.000000    0.000000
        0.000000   16.638097    0.000000
        0.000000    0.000000    9.854683

outcell: Cell vector modules (Ang)   :   14.779133   16.638097    9.854683
outcell: Cell angles (23,13,12) (deg):     90.0000     90.0000     90.0000
outcell: Cell volume (Ang**3)        :   2423.2336
<dSpData1D:S at geom step 1
  <sparsity:sparsity for geom step 1
    nrows_g=155 nrows=48 sparsity=.3006 nnzs=7221, refcount: 8>
  <dData1D:(new from dSpData1D) n=7221, refcount: 1>
refcount: 1>
new_DM -- step:     2
Re-using DM from previous geometries...
Number of DMs in history: 1
 DM extrapolation coefficients: 
1   1.00000
New DM after history re-use:
<dSpData2D:SpM extrapolated using coords
  <sparsity:sparsity for geom step 1
    nrows_g=155 nrows=48 sparsity=.3006 nnzs=7221, refcount: 10>
  <dData2D:(temp array for extrapolation) n=7221 m=8, refcount: 1>
refcount: 1>
     spin moment: S , {S} =    0.00000  -0.00000  -0.00000  -0.00000
Note: For starting DM, Qtot, Tr[D*S] =         50.00000000         50.08691927
No. of atoms with KB's overlaping orbs in proc 0. Max # of overlaps:      15     133
New grid distribution:   1
           1       1:   90    1:   48    1:   30
           2       1:   90    1:   48   31:   60
           3       1:   90   49:   96    1:   30
           4       1:   90   49:   96   31:   60

InitMesh: MESH =   180 x   192 x   120 =     4147200
InitMesh: (bp) =    90 x    96 x    60 =      518400
InitMesh: Mesh cutoff (required, used) =   340.000   368.042 Ry
ExtMesh (bp) on 0 =   202 x   152 x   142 =     4359968
New grid distribution:   2
           1      26:   90    1:   75    1:   60
           2       1:   25    1:   75    1:   60
           3      23:   90   76:   96    1:   60
           4       1:   22   76:   96    1:   60
New grid distribution:   3
           1      34:   90    1:   62    1:   60
           2       1:   33    1:   62    1:   60
           3      35:   90   63:   96    1:   60
           4       1:   34   63:   96    1:   60
Setting up quadratic distribution...
ExtMesh (bp) on 0 =   177 x   179 x   172 =     5449476
PhiOnMesh: Number of (b)points on node 0 =               292500
PhiOnMesh: nlist on node 0 =              1762032
