Siesta Version  : v4.1.5-1-g384057250
Architecture    : gcc
Compiler version: GNU Fortran (Ubuntu 11.3.0-1ubuntu1~22.04) 11.3.0
Compiler flags  : mpifort -O2 -fPIC -ftree-vectorize -fallow-argument-mismatch
PP flags        : -DFC_HAVE_ABORT -DMPI -DSIESTA__FLOOK -DSIESTA__METIS -DSIESTA__MUMPS -DCDF -DNCDF -DNCDF_4 -DNCDF_PARALLEL -DSIESTA__MRRR -DSIESTA__ELPA
Libraries       : libncdf.a libfdict.a  -lflookall -ldl -lnetcdff -lnetcdf -lhdf5_hl -lhdf5 -lhdf5_fortran -lz -lscalapack-openmpi -lopenblas -lmetis -lzmumps -lcmumps -ldmumps -lmumps_common -lpord -lsmumps -lesmumps -lscotch -lscotcherr -fopenmp -lelpa
PARALLEL version
NetCDF support
NetCDF-4 support
NetCDF-4 MPI-IO support
METIS ordering support
Lua support

* Running on 4 nodes in parallel
>> Start of run:  12-MAY-2023  22:06:21

                           ***********************       
                           *  WELCOME TO SIESTA  *       
                           ***********************       

reinit: Reading from standard input
reinit: Dumped input in INPUT_TMP.20339
************************** Dump of input data file ****************************
# mpirun -np 4 siesta-4.1.5 < Guanine.fdf > Guanine.out
SystemLabel      Guanine
NumberOfAtoms    16
NumberOfSpecies  4
%block ChemicalSpeciesLabel
    1    8  O
    2    7  N
    3   14  Si
    4    1  H
%endblock ChemicalSpeciesLabel
###################################
# This overrides Defaults.fdf conf
###################################
MD.TypeOfRun                CG # CG, Verlet
MD.Steps                    0
AtomicCoordinatesFormat NotScaledCartesianAng
%block AtomicCoordinatesAndAtomicSpecies
    0.89499391    3.93962743   -0.00000000   1       1  O
   -3.11142040    0.86067020   -0.00000000   2       2  N
    1.96858488    1.21081697    0.00000000   2       3  N
    1.01996570   -1.79345982    0.00000000   2       4  N
   -2.11919273   -1.99118873   -0.00000000   2       5  N
    3.82538597   -1.07588459   -0.00000000   2       6  N
   -1.30586761    1.01306632    0.00000000   3       7  Si
   -0.55937368   -1.05926110   -0.00000000   3       8  Si
    0.49324909    2.38732630   -0.00000000   3       9  Si
    2.17336823   -0.53969473    0.00000000   3      10  Si
   -3.47599946   -0.80524044   -0.00000008   3      11  Si
    2.86459403    1.79153918    0.00000000   4      12  H
   -4.83748549   -1.43239859    0.00000000   4      13  H
    4.03501822   -2.10638793    0.00000000   4      14  H
    4.66096981   -0.44684999    0.00000000   4      15  H
   -2.23901898   -3.04469802   -0.00000000   4      16  H
%endblock AtomicCoordinatesAndAtomicSpecies
%include ../../Defaults.fdf
************************** End of input data file *****************************

reinit: -----------------------------------------------------------------------
reinit: System Name: 
reinit: -----------------------------------------------------------------------
reinit: System Label: Guanine
reinit: -----------------------------------------------------------------------

initatom: Reading input for the pseudopotentials and atomic orbitals ----------
Species number:   1 Atomic number:    8 Label: O
Species number:   2 Atomic number:    7 Label: N
Species number:   3 Atomic number:   14 Label: Si
Species number:   4 Atomic number:    1 Label: H

Ground state valence configuration:   2s02  2p04
Reading pseudopotential information in formatted form from O.psf

Pseudopotential generated from a relativistic atomic calculation

Valence configuration for pseudopotential generation:
2s( 2.00) rc: 0.45
2p( 4.00) rc: 0.92
3d( 0.00) rc: 2.24
4f( 0.00) rc: 0.25
Ground state valence configuration:   2s02  2p03
Reading pseudopotential information in formatted form from N.psf

Pseudopotential generated from a relativistic atomic calculation

Valence configuration for pseudopotential generation:
2s( 2.00) rc: 0.94
2p( 3.00) rc: 0.59
3d( 0.00) rc: 3.46
4f( 0.00) rc: 2.47
Ground state valence configuration:   3s02  3p02
Reading pseudopotential information in formatted form from Si.psf

Pseudopotential generated from a relativistic atomic calculation

Valence configuration for pseudopotential generation:
3s( 2.00) rc: 1.67
3p( 2.00) rc: 2.04
3d( 0.00) rc: 2.89
4f( 0.00) rc: 2.49
Ground state valence configuration:   1s01
Reading pseudopotential information in formatted form from H.psf

Pseudopotential generated from a relativistic atomic calculation

Valence configuration for pseudopotential generation:
1s( 1.00) rc: 0.01
2p( 0.00) rc: 0.60
3d( 0.00) rc: 1.99
4f( 0.00) rc: 2.49
For O, standard SIESTA heuristics set lmxkb to 3
 (one more than the basis l, including polarization orbitals).
Use PS.lmax or PS.KBprojectors blocks to override.
For N, standard SIESTA heuristics set lmxkb to 3
 (one more than the basis l, including polarization orbitals).
Use PS.lmax or PS.KBprojectors blocks to override.
For Si, standard SIESTA heuristics set lmxkb to 3
 (one more than the basis l, including polarization orbitals).
Use PS.lmax or PS.KBprojectors blocks to override.
For H, standard SIESTA heuristics set lmxkb to 2
 (one more than the basis l, including polarization orbitals).
Use PS.lmax or PS.KBprojectors blocks to override.

<basis_specs>
===============================================================================
O                    Z=   8    Mass=  16.000        Charge= 0.17977+309
Lmxo=1 Lmxkb= 3    BasisType=split      Semic=F
L=0  Nsemic=0  Cnfigmx=2
          i=1  nzeta=2  polorb=0  (2s)
            splnorm:   0.28000    
               vcte:    0.0000    
               rinn:    0.0000    
               qcoe:    0.0000    
               qyuk:    0.0000    
               qwid:   0.10000E-01
                rcs:    0.0000      0.0000    
            lambdas:    1.0000      1.0000    
L=1  Nsemic=0  Cnfigmx=2
          i=1  nzeta=2  polorb=1  (2p)
            splnorm:   0.28000    
               vcte:    0.0000    
               rinn:    0.0000    
               qcoe:    0.0000    
               qyuk:    0.0000    
               qwid:   0.10000E-01
                rcs:    0.0000      0.0000    
            lambdas:    1.0000      1.0000    
-------------------------------------------------------------------------------
L=0  Nkbl=1  erefs: 0.17977+309
L=1  Nkbl=1  erefs: 0.17977+309
L=2  Nkbl=1  erefs: 0.17977+309
L=3  Nkbl=1  erefs: 0.17977+309
===============================================================================
</basis_specs>

atom: Called for O                     (Z =   8)

read_vps: Pseudopotential generation method:
read_vps: ATM4.2.7  Troullier-Martins                       
Valence charge for ps generation:    6.00000

xc_check: Exchange-correlation functional:
xc_check: GGA Perdew, Burke & Ernzerhof 1996
V l=0 = -2*Zval/r beyond r=  1.1000
V l=1 = -2*Zval/r beyond r=  1.1000
V l=2 = -2*Zval/r beyond r=  2.2154
V l=3 = -2*Zval/r beyond r=  1.1000
All V_l potentials equal beyond r=  2.2154
This should be close to max(r_c) in ps generation
All pots = -2*Zval/r beyond r=  2.2154

VLOCAL1: 99.0% of the norm of Vloc inside      8.845 Ry
VLOCAL1: 99.9% of the norm of Vloc inside     20.157 Ry
atom: Maximum radius for 4*pi*r*r*local-pseudopot. charge    2.67231
atom: Maximum radius for r*vlocal+2*Zval:    2.32897
GHOST: No ghost state for L =  0
GHOST: No ghost state for L =  1
GHOST: No ghost state for L =  2
GHOST: No ghost state for L =  3

KBgen: Kleinman-Bylander projectors: 
   l= 0   rc=  2.243238   el= -1.759686   Ekb=**********   kbcos= -0.171774
   l= 1   rc=  2.328968   el= -0.663873   Ekb=-14.506792   kbcos= -0.519897
   l= 2   rc=  2.573941   el=  0.002031   Ekb= -1.137373   kbcos= -0.019581
   l= 3   rc=  2.606321   el=  0.003153   Ekb= -1.013546   kbcos= -0.003122

KBgen: Total number of Kleinman-Bylander projectors:   16
atom: -------------------------------------------------------------------------

atom: SANKEY-TYPE ORBITALS:
atom: Selected multiple-zeta basis: split     

SPLIT: Orbitals with angular momentum L= 0

SPLIT: Basis orbitals for state 2s

SPLIT: PAO cut-off radius determined from an
SPLIT: energy shift=  0.002000 Ry

   izeta = 1
                 lambda =    1.000000
                     rc =    4.243912
                 energy =   -1.758270
                kinetic =    3.286084
    potential(screened) =   -5.044353
       potential(ionic) =  -12.921184

   izeta = 2
                 rmatch =    2.187845
              splitnorm =    0.280000
                 energy =   -0.885018
                kinetic =    8.134434
    potential(screened) =   -9.019452
       potential(ionic) =  -17.710645

SPLIT: Orbitals with angular momentum L= 1

SPLIT: Basis orbitals for state 2p

SPLIT: PAO cut-off radius determined from an
SPLIT: energy shift=  0.002000 Ry

   izeta = 1
                 lambda =    1.000000
                     rc =    5.314825
                 energy =   -0.661986
                kinetic =    4.917472
    potential(screened) =   -5.579458
       potential(ionic) =  -13.236259

   izeta = 2
                 rmatch =    2.160663
              splitnorm =    0.280000
                 energy =   -0.068760
                kinetic =    9.183374
    potential(screened) =   -9.252135
       potential(ionic) =  -18.274251

POLgen: Perturbative polarization orbital with L=  2

POLgen: Polarization orbital for state 2p

   izeta = 1
                     rc =    5.314825
                 energy =    1.970580
                kinetic =    3.886128
    potential(screened) =   -1.915547
       potential(ionic) =   -7.749584
atom: Total number of Sankey-type orbitals: 13

atm_pop: Valence configuration (for local Pseudopot. screening):
 2s( 2.00)                                                            
 2p( 4.00)                                                            
Vna: chval, zval:    6.00000   6.00000

Vna:  Cut-off radius for the neutral-atom potential:   5.314825

atom: _________________________________________________________________________

<basis_specs>
===============================================================================
N                    Z=   7    Mass=  14.010        Charge= 0.17977+309
Lmxo=1 Lmxkb= 3    BasisType=split      Semic=F
L=0  Nsemic=0  Cnfigmx=2
          i=1  nzeta=2  polorb=0  (2s)
            splnorm:   0.28000    
               vcte:    0.0000    
               rinn:    0.0000    
               qcoe:    0.0000    
               qyuk:    0.0000    
               qwid:   0.10000E-01
                rcs:    0.0000      0.0000    
            lambdas:    1.0000      1.0000    
L=1  Nsemic=0  Cnfigmx=2
          i=1  nzeta=2  polorb=1  (2p)
            splnorm:   0.28000    
               vcte:    0.0000    
               rinn:    0.0000    
               qcoe:    0.0000    
               qyuk:    0.0000    
               qwid:   0.10000E-01
                rcs:    0.0000      0.0000    
            lambdas:    1.0000      1.0000    
-------------------------------------------------------------------------------
L=0  Nkbl=1  erefs: 0.17977+309
L=1  Nkbl=1  erefs: 0.17977+309
L=2  Nkbl=1  erefs: 0.17977+309
L=3  Nkbl=1  erefs: 0.17977+309
===============================================================================
</basis_specs>

atom: Called for N                     (Z =   7)

read_vps: Pseudopotential generation method:
read_vps: ATM4.2.7  Troullier-Martins                       
Valence charge for ps generation:    5.00000

xc_check: Exchange-correlation functional:
xc_check: GGA Perdew, Burke & Ernzerhof 1996
V l=0 = -2*Zval/r beyond r=  1.2889
V l=1 = -2*Zval/r beyond r=  1.2889
V l=2 = -2*Zval/r beyond r=  3.4178
V l=3 = -2*Zval/r beyond r=  2.4084
All V_l potentials equal beyond r=  3.3753
This should be close to max(r_c) in ps generation
All pots = -2*Zval/r beyond r=  3.4178

VLOCAL1: 99.0% of the norm of Vloc inside      3.810 Ry
VLOCAL1: 99.9% of the norm of Vloc inside      8.683 Ry
atom: Maximum radius for 4*pi*r*r*local-pseudopot. charge    4.02088
atom: Maximum radius for r*vlocal+2*Zval:    3.54838
GHOST: No ghost state for L =  0
GHOST: No ghost state for L =  1
GHOST: No ghost state for L =  2
GHOST: No ghost state for L =  3

KBgen: Kleinman-Bylander projectors: 
   l= 0   rc=  3.417763   el= -1.365098   Ekb= -4.433130   kbcos= -0.707855
   l= 1   rc=  3.375302   el= -0.521201   Ekb=-13.264039   kbcos= -0.535594
   l= 2   rc=  3.872880   el=  0.001991   Ekb= -0.641094   kbcos= -0.062456
   l= 3   rc=  3.970931   el=  0.003093   Ekb= -0.474517   kbcos= -0.018236

KBgen: Total number of Kleinman-Bylander projectors:   16
atom: -------------------------------------------------------------------------

atom: SANKEY-TYPE ORBITALS:
atom: Selected multiple-zeta basis: split     

SPLIT: Orbitals with angular momentum L= 0

SPLIT: Basis orbitals for state 2s

SPLIT: PAO cut-off radius determined from an
SPLIT: energy shift=  0.002000 Ry

   izeta = 1
                 lambda =    1.000000
                     rc =    4.730425
                 energy =   -1.363399
                kinetic =    1.245246
    potential(screened) =   -2.608645
       potential(ionic) =   -8.121105

   izeta = 2
                 rmatch =    2.531849
              splitnorm =    0.280000
                 energy =   -0.959908
                kinetic =    2.409435
    potential(screened) =   -3.369343
       potential(ionic) =   -9.427975

SPLIT: Orbitals with angular momentum L= 1

SPLIT: Basis orbitals for state 2p

SPLIT: PAO cut-off radius determined from an
SPLIT: energy shift=  0.002000 Ry

   izeta = 1
                 lambda =    1.000000
                     rc =    5.924108
                 energy =   -0.519262
                kinetic =    3.672940
    potential(screened) =   -4.192202
       potential(ionic) =   -9.518354

   izeta = 2
                 rmatch =    2.531849
              splitnorm =    0.280000
                 energy =   -0.104258
                kinetic =    6.807538
    potential(screened) =   -6.911796
       potential(ionic) =  -13.149920

POLgen: Perturbative polarization orbital with L=  2

POLgen: Polarization orbital for state 2p

   izeta = 1
                     rc =    5.924108
                 energy =    1.427508
                kinetic =    2.872379
    potential(screened) =   -1.444871
       potential(ionic) =   -5.563644
atom: Total number of Sankey-type orbitals: 13

atm_pop: Valence configuration (for local Pseudopot. screening):
 2s( 2.00)                                                            
 2p( 3.00)                                                            
Vna: chval, zval:    5.00000   5.00000

Vna:  Cut-off radius for the neutral-atom potential:   5.924108

atom: _________________________________________________________________________

<basis_specs>
===============================================================================
Si                   Z=  14    Mass=  28.090        Charge= 0.17977+309
Lmxo=1 Lmxkb= 3    BasisType=split      Semic=F
L=0  Nsemic=0  Cnfigmx=3
          i=1  nzeta=2  polorb=0  (3s)
            splnorm:   0.28000    
               vcte:    0.0000    
               rinn:    0.0000    
               qcoe:    0.0000    
               qyuk:    0.0000    
               qwid:   0.10000E-01
                rcs:    0.0000      0.0000    
            lambdas:    1.0000      1.0000    
L=1  Nsemic=0  Cnfigmx=3
          i=1  nzeta=2  polorb=1  (3p)
            splnorm:   0.28000    
               vcte:    0.0000    
               rinn:    0.0000    
               qcoe:    0.0000    
               qyuk:    0.0000    
               qwid:   0.10000E-01
                rcs:    0.0000      0.0000    
            lambdas:    1.0000      1.0000    
-------------------------------------------------------------------------------
L=0  Nkbl=1  erefs: 0.17977+309
L=1  Nkbl=1  erefs: 0.17977+309
L=2  Nkbl=1  erefs: 0.17977+309
L=3  Nkbl=1  erefs: 0.17977+309
===============================================================================
</basis_specs>

atom: Called for Si                    (Z =  14)

read_vps: Pseudopotential generation method:
read_vps: ATM4.2.7  Troullier-Martins                       
Valence charge for ps generation:    4.00000

xc_check: Exchange-correlation functional:
xc_check: GGA Perdew, Burke & Ernzerhof 1996
V l=0 = -2*Zval/r beyond r=  2.7826
V l=1 = -2*Zval/r beyond r=  2.7826
V l=2 = -2*Zval/r beyond r=  2.9253
V l=3 = -2*Zval/r beyond r=  2.7826
All V_l potentials equal beyond r=  2.8530
This should be close to max(r_c) in ps generation
All pots = -2*Zval/r beyond r=  2.9253

VLOCAL1: 99.0% of the norm of Vloc inside      5.333 Ry
VLOCAL1: 99.9% of the norm of Vloc inside     12.154 Ry
atom: Maximum radius for 4*pi*r*r*local-pseudopot. charge    3.39869
atom: Maximum radius for r*vlocal+2*Zval:    2.96205
GHOST: No ghost state for L =  0
GHOST: No ghost state for L =  1
GHOST: No ghost state for L =  2
GHOST: No ghost state for L =  3

KBgen: Kleinman-Bylander projectors: 
   l= 0   rc=  3.075247   el= -0.794092   Ekb=  5.879390   kbcos=  0.167461
   l= 1   rc=  3.153101   el= -0.300068   Ekb=  2.642817   kbcos=  0.058301
   l= 2   rc=  3.273594   el=  0.001958   Ekb= -1.185135   kbcos= -0.104411
   l= 3   rc=  3.232927   el=  0.003046   Ekb= -0.497174   kbcos= -0.015889

KBgen: Total number of Kleinman-Bylander projectors:   16
atom: -------------------------------------------------------------------------

atom: SANKEY-TYPE ORBITALS:
atom: Selected multiple-zeta basis: split     

SPLIT: Orbitals with angular momentum L= 0

SPLIT: Basis orbitals for state 3s

SPLIT: PAO cut-off radius determined from an
SPLIT: energy shift=  0.002000 Ry

   izeta = 1
                 lambda =    1.000000
                     rc =    6.429618
                 energy =   -0.792283
                kinetic =    0.525293
    potential(screened) =   -1.317576
       potential(ionic) =   -3.744923

   izeta = 2
                 rmatch =    3.998416
              splitnorm =    0.280000
                 energy =   -0.583081
                kinetic =    1.069570
    potential(screened) =   -1.652651
       potential(ionic) =   -4.235185

SPLIT: Orbitals with angular momentum L= 1

SPLIT: Basis orbitals for state 3p

SPLIT: PAO cut-off radius determined from an
SPLIT: energy shift=  0.002000 Ry

   izeta = 1
                 lambda =    1.000000
                     rc =    8.464845
                 energy =   -0.298236
                kinetic =    0.785360
    potential(screened) =   -1.083596
       potential(ionic) =   -3.273779

   izeta = 2
                 rmatch =    4.587816
              splitnorm =    0.280000
                 energy =   -0.131871
                kinetic =    1.403687
    potential(screened) =   -1.535557
       potential(ionic) =   -4.015310

POLgen: Perturbative polarization orbital with L=  2

POLgen: Polarization orbital for state 3p

   izeta = 1
                     rc =    8.464845
                 energy =    0.321949
                kinetic =    1.055677
    potential(screened) =   -0.733728
       potential(ionic) =   -2.672950
atom: Total number of Sankey-type orbitals: 13

atm_pop: Valence configuration (for local Pseudopot. screening):
 3s( 2.00)                                                            
 3p( 2.00)                                                            
Vna: chval, zval:    4.00000   4.00000

Vna:  Cut-off radius for the neutral-atom potential:   8.464845

atom: _________________________________________________________________________

<basis_specs>
===============================================================================
H                    Z=   1    Mass=  1.0100        Charge= 0.17977+309
Lmxo=0 Lmxkb= 2    BasisType=split      Semic=F
L=0  Nsemic=0  Cnfigmx=1
          i=1  nzeta=2  polorb=1  (1s)
            splnorm:   0.62000    
               vcte:    0.0000    
               rinn:    0.0000    
               qcoe:    0.0000    
               qyuk:    0.0000    
               qwid:   0.10000E-01
                rcs:    0.0000      0.0000    
            lambdas:    1.0000      1.0000    
-------------------------------------------------------------------------------
L=0  Nkbl=1  erefs: 0.17977+309
L=1  Nkbl=1  erefs: 0.17977+309
L=2  Nkbl=1  erefs: 0.17977+309
===============================================================================
</basis_specs>

atom: Called for H                     (Z =   1)

read_vps: Pseudopotential generation method:
read_vps: ATM4.2.7  Troullier-Martins                       
Valence charge for ps generation:    1.00000

xc_check: Exchange-correlation functional:
xc_check: GGA Perdew, Burke & Ernzerhof 1996
V l=0 = -2*Zval/r beyond r=  0.0098
V l=1 = -2*Zval/r beyond r=  0.5817
V l=2 = -2*Zval/r beyond r=  1.9372
All V_l potentials equal beyond r=  1.9372
This should be close to max(r_c) in ps generation
All pots = -2*Zval/r beyond r=  1.9372

VLOCAL1: 99.0% of the norm of Vloc inside     11.567 Ry
VLOCAL1: 99.9% of the norm of Vloc inside     26.362 Ry
atom: Maximum radius for 4*pi*r*r*local-pseudopot. charge    2.25106
atom: Maximum radius for r*vlocal+2*Zval:    1.91306
GHOST: No ghost state for L =  0
GHOST: No ghost state for L =  1
GHOST: No ghost state for L =  2

KBgen: Kleinman-Bylander projectors: 
   l= 0   rc=  2.036604   el= -0.477180   Ekb= -6.081590   kbcos= -0.277285
   l= 1   rc=  2.195416   el=  0.001076   Ekb= -0.926943   kbcos= -0.034643
   l= 2   rc=  2.251056   el=  0.002010   Ekb= -0.130941   kbcos= -0.009788

KBgen: Total number of Kleinman-Bylander projectors:    9
atom: -------------------------------------------------------------------------

atom: SANKEY-TYPE ORBITALS:
atom: Selected multiple-zeta basis: split     

SPLIT: Orbitals with angular momentum L= 0

SPLIT: Basis orbitals for state 1s

SPLIT: PAO cut-off radius determined from an
SPLIT: energy shift=  0.002000 Ry

   izeta = 1
                 lambda =    1.000000
                     rc =    6.518340
                 energy =   -0.475305
                kinetic =    0.912139
    potential(screened) =   -1.387444
       potential(ionic) =   -1.907295

   izeta = 2
                 rmatch =    2.141150
              splitnorm =    0.620000
                 energy =    0.566467
                kinetic =    3.772856
    potential(screened) =   -3.206389
       potential(ionic) =   -3.759093

POLgen: Perturbative polarization orbital with L=  1

POLgen: Polarization orbital for state 1s

   izeta = 1
                     rc =    6.518340
                 energy =    0.533861
                kinetic =    1.121086
    potential(screened) =   -0.587225
       potential(ionic) =   -1.053027
atom: Total number of Sankey-type orbitals:  5

atm_pop: Valence configuration (for local Pseudopot. screening):
 1s( 1.00)                                                            
Vna: chval, zval:    1.00000   1.00000

Vna:  Cut-off radius for the neutral-atom potential:   6.518340

atom: _________________________________________________________________________

prinput: Basis input ----------------------------------------------------------

PAO.BasisType split     

%block ChemicalSpeciesLabel
    1    8 O                       # Species index, atomic number, species label
    2    7 N                       # Species index, atomic number, species label
    3   14 Si                      # Species index, atomic number, species label
    4    1 H                       # Species index, atomic number, species label
%endblock ChemicalSpeciesLabel

%block PAO.Basis                 # Define Basis set
O                     2                    # Species label, number of l-shells
 n=2   0   2                         # n, l, Nzeta 
   4.244      2.188   
   1.000      1.000   
 n=2   1   2 P   1                   # n, l, Nzeta, Polarization, NzetaPol
   5.315      2.161   
   1.000      1.000   
N                     2                    # Species label, number of l-shells
 n=2   0   2                         # n, l, Nzeta 
   4.730      2.532   
   1.000      1.000   
 n=2   1   2 P   1                   # n, l, Nzeta, Polarization, NzetaPol
   5.924      2.532   
   1.000      1.000   
Si                    2                    # Species label, number of l-shells
 n=3   0   2                         # n, l, Nzeta 
   6.430      3.998   
   1.000      1.000   
 n=3   1   2 P   1                   # n, l, Nzeta, Polarization, NzetaPol
   8.465      4.588   
   1.000      1.000   
H                     1                    # Species label, number of l-shells
 n=1   0   2 P   1                   # n, l, Nzeta, Polarization, NzetaPol
   6.518      2.141   
   1.000      1.000   
%endblock PAO.Basis

prinput: ----------------------------------------------------------------------

Dumping basis to NetCDF file O.ion.nc
Dumping basis to NetCDF file N.ion.nc
Dumping basis to NetCDF file Si.ion.nc
Dumping basis to NetCDF file H.ion.nc
coor:   Atomic-coordinates input format  =     Cartesian coordinates
coor:                                          (in Angstroms)

siesta: Atomic coordinates (Bohr) and species
siesta:      1.69129   7.44482  -0.00000  1        1
siesta:     -5.87973   1.62643  -0.00000  2        2
siesta:      3.72009   2.28811   0.00000  2        3
siesta:      1.92746  -3.38915   0.00000  2        4
siesta:     -4.00470  -3.76280  -0.00000  2        5
siesta:      7.22893  -2.03313  -0.00000  2        6
siesta:     -2.46773   1.91442   0.00000  3        7
siesta:     -1.05706  -2.00171  -0.00000  3        8
siesta:      0.93211   4.51139  -0.00000  3        9
siesta:      4.10707  -1.01988   0.00000  3       10
siesta:     -6.56869  -1.52168  -0.00000  3       11
siesta:      5.41330   3.38552   0.00000  4       12
siesta:     -9.14153  -2.70684   0.00000  4       13
siesta:      7.62508  -3.98050   0.00000  4       14
siesta:      8.80796  -0.84442   0.00000  4       15
siesta:     -4.23113  -5.75365  -0.00000  4       16

siesta: Automatic unit cell vectors (Ang):
siesta:   18.036884    0.000000    0.000000
siesta:    0.000000   14.696860    0.000000
siesta:    0.000000    0.000000    9.854683

siesta: System type = molecule  

initatomlists: Number of atoms, orbitals, and projectors:     16   168   221

siesta: ******************** Simulation parameters ****************************
siesta:
siesta: The following are some of the parameters of the simulation.
siesta: A complete list of the parameters used, including default values,
siesta: can be found in file out.fdf
siesta:
redata: Spin configuration                          = spin-orbit
redata: Number of spin components                   = 8
redata: Time-Reversal Symmetry                      = F
redata: Spin spiral                                 = F
############################################################
This spin-orbit implementation uses a local approximation.
From 4.2 and onwards the full non-local approximation is implemented
You are strongly advised to use >=4.2 versions!
############################################################
redata: Long output                                 =   F
redata: Number of Atomic Species                    =        4
redata: Charge density info will appear in .RHO file
redata: Write Mulliken Pop.                         = Atomic and Orbital charges
redata: Matel table size (NRTAB)                    =     1024
redata: Mesh Cutoff                                 =   340.0000 Ry
redata: Net charge of the system                    =     0.0000 |e|
redata: Min. number of SCF Iter                     =        1
redata: Max. number of SCF Iter                     =      200
redata: SCF convergence failure will abort job
redata: SCF mix quantity                            = Hamiltonian
redata: Mix DM or H after convergence               =   F
redata: Recompute H after scf cycle                 =   F
redata: Mix DM in first SCF step                    =   T
redata: Write Pulay info on disk                    =   F
redata: New DM Occupancy tolerance                  = 0.000000000001
redata: No kicks to SCF
redata: DM Mixing Weight for Kicks                  =     0.5000
redata: Require Harris convergence for SCF          =   F
redata: Harris energy tolerance for SCF             =     0.000100 eV
redata: Require DM convergence for SCF              =   T
redata: DM tolerance for SCF                        =     0.000008
redata: Require EDM convergence for SCF             =   F
redata: EDM tolerance for SCF                       =     0.001000 eV
redata: Require H convergence for SCF               =   T
redata: Hamiltonian tolerance for SCF               =     0.000001 eV
redata: Require (free) Energy convergence for SCF   =   F
redata: (free) Energy tolerance for SCF             =     0.000100 eV
redata: Using Saved Data (generic)                  =   F
redata: Use continuation files for DM               =   F
redata: Neglect nonoverlap interactions             =   F
redata: Method of Calculation                       = Diagonalization
redata: Electronic Temperature                      =   299.9978 K
redata: Fix the spin of the system                  =   F
redata: Dynamics option                             = Single-point calculation
mix.SCF: Pulay mixing                            = Pulay
mix.SCF:    Variant                              = stable
mix.SCF:    History steps                        = 6
mix.SCF:    Linear mixing weight                 =     0.250000
mix.SCF:    Mixing weight                        =     0.250000
mix.SCF:    SVD condition                        = 0.1000E-07
mix.SCF:    Restart steps                        = 24
mix.SCF:    Restart save steps                   = 3
mix.SCF: Spin-component mixing                   all
redata: Save all siesta data in one NC              =   F
redata: ***********************************************************************

%block SCF.Mixers
  Pulay
%endblock SCF.Mixers

%block SCF.Mixer.Pulay
  # Mixing method
  method pulay
  variant stable

  # Mixing options
  weight 0.2500
  weight.linear 0.2500
  history 6
  restart 24
  restart.save 3
%endblock SCF.Mixer.Pulay

DM_history_depth set to one: no extrapolation allowed by default for geometry relaxation
Size of DM history Fstack: 1
Total number of electrons:    56.000000
Total ionic charge:    56.000000

* ProcessorY, Blocksize:    2  24


* Orbital distribution balance (max,min):    48    24


Time-reversal symmetry not used.

siesta: k-grid: Number of k-points =     1
siesta: k-grid: Cutoff (effective) =     4.927 Ang
siesta: k-grid: Supercell and displacements
siesta: k-grid:    1   0   0      0.000
siesta: k-grid:    0   1   0      0.000
siesta: k-grid:    0   0   1      0.000

diag: Algorithm                                     = ELPA-1stage
diag: Parallel over k                               =   F
diag: Use parallel 2D distribution                  =   T
diag: Parallel block-size                           = 24
diag: Parallel distribution                         =     2 x     2
diag: Used triangular part                          = Lower
diag: Absolute tolerance                            =  0.100E-15
diag: Orthogonalization factor                      =  0.100E-05
diag: Memory factor                                 =  1.0000


ts: **************************************************************
ts: Save H and S matrices                           =    F
ts: Save DM and EDM matrices                        =    F
ts: Only save the overlap matrix S                  =    F
ts: **************************************************************

************************ Begin: TS CHECKS AND WARNINGS ************************
************************ End: TS CHECKS AND WARNINGS **************************


                     ====================================
                        Single-point calculation
                     ====================================

outcoor: Atomic coordinates (Ang):                          
    0.89499391    3.93962743    0.00000000   1       1  O
   -3.11142040    0.86067020    0.00000000   2       2  N
    1.96858488    1.21081697    0.00000000   2       3  N
    1.01996570   -1.79345982    0.00000000   2       4  N
   -2.11919273   -1.99118873    0.00000000   2       5  N
    3.82538597   -1.07588459    0.00000000   2       6  N
   -1.30586761    1.01306632    0.00000000   3       7  Si
   -0.55937368   -1.05926110    0.00000000   3       8  Si
    0.49324909    2.38732630    0.00000000   3       9  Si
    2.17336823   -0.53969473    0.00000000   3      10  Si
   -3.47599946   -0.80524044   -0.00000008   3      11  Si
    2.86459403    1.79153918    0.00000000   4      12  H
   -4.83748549   -1.43239859    0.00000000   4      13  H
    4.03501822   -2.10638793    0.00000000   4      14  H
    4.66096981   -0.44684999    0.00000000   4      15  H
   -2.23901898   -3.04469802    0.00000000   4      16  H

outcell: Unit cell vectors (Ang):
       18.036884    0.000000    0.000000
        0.000000   14.696860    0.000000
        0.000000    0.000000    9.854683

outcell: Cell vector modules (Ang)   :   18.036884   14.696860    9.854683
outcell: Cell angles (23,13,12) (deg):     90.0000     90.0000     90.0000
outcell: Cell volume (Ang**3)        :   2612.3342
<dSpData1D:S at geom step 0
  <sparsity:sparsity for geom step 0
    nrows_g=168 nrows=48 sparsity=.2753 nnzs=7769, refcount: 8>
  <dData1D:(new from dSpData1D) n=7769, refcount: 1>
refcount: 1>
new_DM -- step:     1
Initializing Density Matrix...
DM filled with atomic data:
<dSpData2D:DM initialized from atoms
  <sparsity:sparsity for geom step 0
    nrows_g=168 nrows=48 sparsity=.2753 nnzs=7769, refcount: 9>
  <dData2D:DM n=7769 m=8, refcount: 1>
refcount: 1>
     spin moment: S , {S} =   32.00000   0.00000   0.00000  32.00000
No. of atoms with KB's overlaping orbs in proc 0. Max # of overlaps:      16     142

Initializing spin-orbit part of the Hamiltonian
  Adding spin-orbit effects for O 
  Adding spin-orbit effects for N 
  Adding spin-orbit effects for Si
  Adding spin-orbit effects for H 


New grid distribution:   1
           1       1:  108    1:   45    1:   30
           2       1:  108    1:   45   31:   60
           3       1:  108   46:   90    1:   30
           4       1:  108   46:   90   31:   60

InitMesh: MESH =   216 x   180 x   120 =     4665600
InitMesh: (bp) =   108 x    90 x    60 =      583200
InitMesh: Mesh cutoff (required, used) =   340.000   396.357 Ry
ExtMesh (bp) on 0 =   216 x   157 x   142 =     4815504
New grid distribution:   2
           1      66:  108    1:   70    1:   60
           2       1:   65    1:   28    1:   60
           3       1:   65   29:   90    1:   60
           4      66:  108   71:   90    1:   60
New grid distribution:   3
           1       1:   64    1:   41    1:   60
           2      65:  108    1:   59    1:   60
           3       1:   64   42:   90    1:   60
           4      65:  108   60:   90    1:   60
Setting up quadratic distribution...
ExtMesh (bp) on 0 =   151 x   182 x   172 =     4726904
PhiOnMesh: Number of (b)points on node 0 =               180600
PhiOnMesh: nlist on node 0 =              1795771

stepf: Fermi-Dirac step function

siesta: Program's energy decomposition (eV):
siesta: Ebs     =      -373.663801
siesta: Eions   =      2040.955082
siesta: Ena     =       223.142245
siesta: Ekin    =      1954.986126
siesta: Enl     =     -1957.526019
siesta: Eso     =        -0.001684
siesta: Edftu   =         0.000000
siesta: DEna    =        98.745761
siesta: DUscf   =        48.472526
siesta: DUext   =         0.000000
siesta: Exc     =      -694.763510
siesta: eta*DQ  =         0.000000
siesta: Emadel  =         0.000000
siesta: Emeta   =         0.000000
siesta: Emolmec =         0.000000
siesta: Ekinion =         0.000000
siesta: Eharris =     -2315.785592
siesta: Etot    =     -2367.899637
siesta: FreeEng =     -2367.899645

        iscf     Eharris(eV)        E_KS(eV)     FreeEng(eV)     dDmax    Ef(eV) dHmax(eV)
   scf:    1    -2315.785592    -2367.899637    -2367.899645  0.945445 -4.792182 21.148185
     spin moment: S , {S} =    2.00000  -0.00000   0.00000   2.00000
timer: Routine,Calls,Time,% = IterSCF        1      13.194  15.92
   scf:    2    -2405.990446    -2393.084466    -2393.103301  0.333669 -4.145917  8.880364
     spin moment: S , {S} =    0.23619   0.00000   0.00000   0.23619
   scf:    3    -2396.871404    -2395.336938    -2395.336940  0.047758 -3.653923  6.953691
     spin moment: S , {S} =    0.00007  -0.00000  -0.00000   0.00007
   scf:    4    -2396.217680    -2395.799888    -2395.799888  0.021554 -3.404220  4.240512
     spin moment: S , {S} =    0.00004  -0.00000  -0.00000   0.00004
   scf:    5    -2396.319108    -2396.055754    -2396.055754  0.028983 -3.149217  1.570326
     spin moment: S , {S} =    0.00002  -0.00000   0.00000   0.00002
   scf:    6    -2396.215110    -2396.132732    -2396.132732  0.018089 -3.099756  0.480582
     spin moment: S , {S} =    0.00001   0.00000  -0.00000   0.00001
   scf:    7    -2396.185824    -2396.158265    -2396.158265  0.010519 -3.721243  0.203635
     spin moment: S , {S} =    0.00000   0.00000  -0.00000   0.00000
   scf:    8    -2396.176992    -2396.167201    -2396.167201  0.006959 -3.713289  0.102560
     spin moment: S , {S} =    0.00000   0.00000  -0.00000   0.00000
   scf:    9    -2396.179405    -2396.172862    -2396.172862  0.006762 -3.712891  0.078350
     spin moment: S , {S} =    0.00000   0.00000  -0.00000   0.00000
   scf:   10    -2396.182895    -2396.177106    -2396.177106  0.009598 -3.710663  0.046026
     spin moment: S , {S} =    0.00000   0.00000  -0.00000   0.00000
   scf:   11    -2396.179178    -2396.177992    -2396.177992  0.004802 -3.709986  0.027060
     spin moment: S , {S} =    0.00000   0.00000  -0.00000   0.00000
   scf:   12    -2396.178575    -2396.178251    -2396.178251  0.002611 -3.707980  0.018743
     spin moment: S , {S} =    0.00000   0.00000  -0.00000   0.00000
   scf:   13    -2396.178540    -2396.178377    -2396.178377  0.002072 -3.706628  0.012253
     spin moment: S , {S} =    0.00000   0.00000  -0.00000   0.00000
   scf:   14    -2396.178516    -2396.178435    -2396.178435  0.001643 -3.705801  0.006670
     spin moment: S , {S} =    0.00000   0.00000  -0.00000  -0.00000
   scf:   15    -2396.178480    -2396.178454    -2396.178454  0.000967 -3.706160  0.003315
     spin moment: S , {S} =    0.00000   0.00000  -0.00000  -0.00000
   scf:   16    -2396.178468    -2396.178460    -2396.178460  0.000582 -3.706184  0.002073
     spin moment: S , {S} =    0.00000   0.00000   0.00000  -0.00000
   scf:   17    -2396.178463    -2396.178461    -2396.178461  0.000210 -3.706159  0.001430
     spin moment: S , {S} =    0.00000   0.00000   0.00000  -0.00000
   scf:   18    -2396.178463    -2396.178462    -2396.178462  0.000156 -3.706097  0.000771
     spin moment: S , {S} =    0.00000   0.00000   0.00000  -0.00000
   scf:   19    -2396.178462    -2396.178462    -2396.178462  0.000051 -3.706029  0.000431
     spin moment: S , {S} =    0.00000  -0.00000   0.00000  -0.00000
   scf:   20    -2396.178462    -2396.178462    -2396.178462  0.000038 -3.705995  0.000197
     spin moment: S , {S} =    0.00000  -0.00000   0.00000  -0.00000
   scf:   21    -2396.178462    -2396.178462    -2396.178462  0.000018 -3.705978  0.000140
     spin moment: S , {S} =    0.00000   0.00000   0.00000  -0.00000
   scf:   22    -2396.178462    -2396.178462    -2396.178462  0.000009 -3.705978  0.000075
     spin moment: S , {S} =    0.00000   0.00000   0.00000   0.00000
   scf:   23    -2396.178462    -2396.178462    -2396.178462  0.000005 -3.705977  0.000032
     spin moment: S , {S} =    0.00000  -0.00000   0.00000   0.00000
   scf:   24    -2396.178462    -2396.178462    -2396.178462  0.000002 -3.705976  0.000025
     spin moment: S , {S} =    0.00000  -0.00000   0.00000   0.00000
mix: Pulay -- resetting history
   scf:   25    -2396.178462    -2396.178462    -2396.178462  0.000002 -3.705975  0.000021
     spin moment: S , {S} =    0.00000  -0.00000   0.00000   0.00000
   scf:   26    -2396.178462    -2396.178462    -2396.178462  0.000003 -3.705974  0.000009
     spin moment: S , {S} =    0.00000  -0.00000   0.00000  -0.00000
   scf:   27    -2396.178462    -2396.178462    -2396.178462  0.000001 -3.705974  0.000004
     spin moment: S , {S} =    0.00000  -0.00000   0.00000  -0.00000
   scf:   28    -2396.178462    -2396.178462    -2396.178462  0.000001 -3.705974  0.000002
     spin moment: S , {S} =    0.00000  -0.00000   0.00000  -0.00000
   scf:   29    -2396.178462    -2396.178462    -2396.178462  0.000000 -3.705974  0.000001
     spin moment: S , {S} =    0.00000  -0.00000   0.00000  -0.00000
   scf:   30    -2396.178462    -2396.178462    -2396.178462  0.000000 -3.705974  0.000001
     spin moment: S , {S} =    0.00000  -0.00000   0.00000  -0.00000

SCF Convergence by DM+H criterion
max |DM_out - DM_in|         :     0.0000001302
max |H_out - H_in|      (eV) :     0.0000005934
SCF cycle converged after 30 iterations

Using DM_out to compute the final energy and forces
No. of atoms with KB's overlaping orbs in proc 0. Max # of overlaps:      16     142

siesta: E_KS(eV) =            -2396.1785

siesta: E_KS - E_eggbox =     -2396.1785
     spin moment: S , {S} =    0.00000  -0.00000   0.00000  -0.00000

siesta: Atomic forces (eV/Ang):
     1    2.132639   -2.413235    0.000000
     2   -0.005420    0.000281   -0.000000
     3    0.006419   -0.000645    0.000000
     4    0.024070    0.004301    0.000000
     5    0.003063    0.010467   -0.000000
     6   -0.001659   -0.011001    0.000000
     7    0.001162    0.004034    0.000000
     8   -0.000449    0.000867    0.000000
     9   -0.004045   -0.000710   -0.000000
    10    0.001780    0.001109   -0.000000
    11    0.001925    0.000789    0.000000
    12   -0.204889   -0.027387   -0.000000
    13    0.009275    0.086035   -0.000000
    14   -0.035207   -0.030290   -0.000000
    15    0.178209    0.084829    0.000000
    16    0.004994    0.184966   -0.000000
----------------------------------------
   Tot    2.111869   -2.105590    0.000000
----------------------------------------
   Max    2.413235
   Res    0.467671    sqrt( Sum f_i^2 / 3N )
----------------------------------------
   Max    2.413235    constrained

Stress tensor Voigt[x,y,z,yz,xz,xy] (kbar):        0.01        1.23       -0.09       -0.00       -0.00        0.54
(Free)E + p*V (eV/cell)    -2396.8095
Target enthalpy (eV/cell)    -2396.1785

mulliken: Atomic and Orbital Populations:

Species: O                   

Atom      Orb        Charge      Spin       Svec
----------------------------------------------------------------
    1  1 2s         1.74695   0.00000     -0.000  -0.000  -0.000
    1  2 2s         0.06666   0.00000     -0.000   0.000   0.000
    1  3 2py        1.42380   0.00000     -0.000  -0.000  -0.000
    1  4 2pz        1.53966   0.00000      0.000   0.000  -0.000
    1  5 2px        1.61349   0.00000      0.000   0.000  -0.000
    1  6 2py        0.04286   0.00000     -0.000   0.000   0.000
    1  7 2pz       -0.00254   0.00000      0.000  -0.000   0.000
    1  8 2px        0.00938   0.00000     -0.000  -0.000   0.000
    1  9 3Pdxy      0.00757   0.00000      0.000  -0.000   0.000
    1 10 3Pdyz      0.00956   0.00000     -0.000   0.000   0.000
    1 11 3Pdz2      0.00172   0.00000     -0.000  -0.000   0.000
    1 12 3Pdxz      0.00043   0.00000      0.000  -0.000   0.000
    1 13 3Pdx2-y2   0.00718   0.00000     -0.000  -0.000   0.000
    1     Total     6.46674   0.00000      0.000   0.000  -0.000

----------------------------------------------------------------
Total               6.46674   0.00000      0.000   0.000  -0.000


Species: N                   

Atom      Orb        Charge      Spin       Svec
----------------------------------------------------------------
    2  1 2s         1.54936   0.00000      0.000   0.000   0.000
    2  2 2s         0.08441   0.00000     -0.000  -0.000  -0.000
    2  3 2py        1.03264   0.00000      0.000  -0.000   0.000
    2  4 2pz        1.22537   0.00000      0.000  -0.000   0.000
    2  5 2px        1.00489   0.00000      0.000   0.000  -0.000
    2  6 2py        0.19266   0.00000     -0.000  -0.000   0.000
    2  7 2pz        0.05437   0.00000     -0.000   0.000   0.000
    2  8 2px        0.19059   0.00000     -0.000  -0.000   0.000
    2  9 3Pdxy      0.00841   0.00000     -0.000   0.000   0.000
    2 10 3Pdyz      0.01078   0.00000      0.000  -0.000  -0.000
    2 11 3Pdz2      0.00196   0.00000     -0.000  -0.000   0.000
    2 12 3Pdxz      0.00751   0.00000     -0.000   0.000  -0.000
    2 13 3Pdx2-y2   0.00891   0.00000      0.000  -0.000   0.000
    2     Total     5.37186   0.00000      0.000  -0.000   0.000

    3  1 2s         1.40833   0.00000      0.000   0.000  -0.000
    3  2 2s         0.11381   0.00000     -0.000  -0.000   0.000
    3  3 2py        0.93977   0.00000      0.000   0.000  -0.000
    3  4 2pz        1.53799   0.00000     -0.000   0.000  -0.000
    3  5 2px        1.09431   0.00000     -0.000   0.000  -0.000
    3  6 2py        0.24824   0.00000     -0.000  -0.000   0.000
    3  7 2pz        0.00926   0.00000      0.000  -0.000   0.000
    3  8 2px        0.17012   0.00000      0.000  -0.000   0.000
    3  9 3Pdxy      0.00438   0.00000     -0.000  -0.000   0.000
    3 10 3Pdyz      0.00420   0.00000     -0.000  -0.000   0.000
    3 11 3Pdz2      0.00084   0.00000     -0.000   0.000   0.000
    3 12 3Pdxz      0.00271   0.00000     -0.000   0.000   0.000
    3 13 3Pdx2-y2   0.00310   0.00000     -0.000   0.000  -0.000
    3     Total     5.53706   0.00000      0.000   0.000  -0.000

    4  1 2s         1.47127   0.00000      0.000  -0.000  -0.000
    4  2 2s         0.11593   0.00000     -0.000   0.000   0.000
    4  3 2py        1.09921   0.00000      0.000  -0.000  -0.000
    4  4 2pz        1.28859   0.00000     -0.000   0.000  -0.000
    4  5 2px        0.84073   0.00000      0.000  -0.000  -0.000
    4  6 2py        0.15814   0.00000     -0.000   0.000   0.000
    4  7 2pz        0.05493   0.00000      0.000   0.000   0.000
    4  8 2px        0.28726   0.00000     -0.000   0.000   0.000
    4  9 3Pdxy      0.00860   0.00000      0.000   0.000  -0.000
    4 10 3Pdyz      0.01099   0.00000      0.000   0.000   0.000
    4 11 3Pdz2      0.00134   0.00000      0.000   0.000   0.000
    4 12 3Pdxz      0.00493   0.00000     -0.000   0.000   0.000
    4 13 3Pdx2-y2   0.00863   0.00000     -0.000   0.000  -0.000
    4     Total     5.35055   0.00000      0.000   0.000  -0.000

    5  1 2s         1.37370   0.00000     -0.000  -0.000  -0.000
    5  2 2s         0.12904   0.00000      0.000   0.000  -0.000
    5  3 2py        1.03014   0.00000     -0.000  -0.000   0.000
    5  4 2pz        1.49984   0.00000      0.000  -0.000  -0.000
    5  5 2px        1.05757   0.00000      0.000  -0.000  -0.000
    5  6 2py        0.20277   0.00000      0.000   0.000  -0.000
    5  7 2pz        0.01340   0.00000     -0.000   0.000  -0.000
    5  8 2px        0.20267   0.00000     -0.000   0.000   0.000
    5  9 3Pdxy      0.00369   0.00000      0.000  -0.000  -0.000
    5 10 3Pdyz      0.00253   0.00000      0.000  -0.000   0.000
    5 11 3Pdz2      0.00136   0.00000     -0.000  -0.000   0.000
    5 12 3Pdxz      0.00678   0.00000      0.000  -0.000  -0.000
    5 13 3Pdx2-y2   0.00563   0.00000     -0.000   0.000   0.000
    5     Total     5.52913   0.00000      0.000  -0.000  -0.000

    6  1 2s         1.26694   0.00000      0.000  -0.000  -0.000
    6  2 2s         0.17965   0.00000     -0.000   0.000   0.000
    6  3 2py        1.08025   0.00000     -0.000   0.000  -0.000
    6  4 2pz        1.57968   0.00000      0.000   0.000  -0.000
    6  5 2px        0.96850   0.00000      0.000   0.000  -0.000
    6  6 2py        0.18738   0.00000      0.000  -0.000   0.000
    6  7 2pz        0.02913   0.00000     -0.000  -0.000   0.000
    6  8 2px        0.25328   0.00000     -0.000  -0.000   0.000
    6  9 3Pdxy      0.00281   0.00000     -0.000  -0.000   0.000
    6 10 3Pdyz      0.00015   0.00000      0.000  -0.000  -0.000
    6 11 3Pdz2      0.00169   0.00000      0.000  -0.000   0.000
    6 12 3Pdxz      0.00285   0.00000     -0.000  -0.000   0.000
    6 13 3Pdx2-y2   0.00296   0.00000      0.000   0.000  -0.000
    6     Total     5.55527   0.00000      0.000  -0.000  -0.000

----------------------------------------------------------------
Total              33.81061   0.00000      0.000  -0.000  -0.000


Species: Si                  

Atom      Orb        Charge      Spin       Svec
----------------------------------------------------------------
    7  1 3s         0.68874   0.00000     -0.000   0.000   0.000
    7  2 3s         0.35792   0.00000      0.000  -0.000   0.000
    7  3 3py        0.47639   0.00000     -0.000   0.000   0.000
    7  4 3pz        0.70024   0.00000      0.000  -0.000  -0.000
    7  5 3px        0.13703   0.00000     -0.000   0.000  -0.000
    7  6 3py        0.27065   0.00000      0.000  -0.000   0.000
    7  7 3pz        0.25755   0.00000     -0.000   0.000   0.000
    7  8 3px        0.42203   0.00000      0.000   0.000   0.000
    7  9 3Pdxy      0.24303   0.00000     -0.000   0.000   0.000
    7 10 3Pdyz      0.03042   0.00000      0.000  -0.000   0.000
    7 11 3Pdz2      0.01208   0.00000     -0.000  -0.000   0.000
    7 12 3Pdxz      0.13913   0.00000      0.000  -0.000   0.000
    7 13 3Pdx2-y2   0.11300   0.00000     -0.000   0.000   0.000
    7     Total     3.84821   0.00000     -0.000  -0.000   0.000

    8  1 3s         0.64636   0.00000     -0.000  -0.000   0.000
    8  2 3s         0.37223   0.00000      0.000  -0.000   0.000
    8  3 3py        0.38387   0.00000      0.000  -0.000  -0.000
    8  4 3pz        0.52091   0.00000      0.000  -0.000   0.000
    8  5 3px       -0.03250   0.00000     -0.000  -0.000   0.000
    8  6 3py        0.30618   0.00000     -0.000  -0.000   0.000
    8  7 3pz        0.20397   0.00000     -0.000   0.000   0.000
    8  8 3px        0.52074   0.00000      0.000   0.000   0.000
    8  9 3Pdxy      0.25833   0.00000     -0.000   0.000   0.000
    8 10 3Pdyz      0.10996   0.00000      0.000   0.000  -0.000
    8 11 3Pdz2      0.01321   0.00000     -0.000  -0.000  -0.000
    8 12 3Pdxz      0.15541   0.00000      0.000   0.000   0.000
    8 13 3Pdx2-y2   0.18797   0.00000      0.000  -0.000  -0.000
    8     Total     3.64664   0.00000      0.000  -0.000   0.000

    9  1 3s         0.63179   0.00000     -0.000   0.000   0.000
    9  2 3s         0.35518   0.00000      0.000  -0.000   0.000
    9  3 3py        0.08579   0.00000      0.000  -0.000   0.000
    9  4 3pz        0.48621   0.00000     -0.000  -0.000   0.000
    9  5 3px        0.37096   0.00000     -0.000  -0.000   0.000
    9  6 3py        0.43886   0.00000     -0.000   0.000   0.000
    9  7 3pz        0.18417   0.00000      0.000  -0.000   0.000
    9  8 3px        0.26744   0.00000      0.000   0.000   0.000
    9  9 3Pdxy      0.31384   0.00000     -0.000  -0.000   0.000
    9 10 3Pdyz      0.19186   0.00000     -0.000  -0.000   0.000
    9 11 3Pdz2      0.01624   0.00000      0.000   0.000   0.000
    9 12 3Pdxz      0.08769   0.00000     -0.000   0.000   0.000
    9 13 3Pdx2-y2   0.15448   0.00000     -0.000   0.000   0.000
    9     Total     3.58450   0.00000     -0.000  -0.000   0.000

   10  1 3s         0.48481   0.00000      0.000  -0.000   0.000
   10  2 3s         0.37915   0.00000     -0.000   0.000   0.000
   10  3 3py        0.23942   0.00000     -0.000   0.000   0.000
   10  4 3pz        0.41108   0.00000      0.000  -0.000   0.000
   10  5 3px        0.10370   0.00000      0.000   0.000   0.000
   10  6 3py        0.33656   0.00000     -0.000   0.000   0.000
   10  7 3pz        0.22056   0.00000     -0.000   0.000   0.000
   10  8 3px        0.42092   0.00000     -0.000  -0.000   0.000
   10  9 3Pdxy      0.16287   0.00000      0.000  -0.000   0.000
   10 10 3Pdyz      0.14970   0.00000      0.000   0.000   0.000
   10 11 3Pdz2      0.01149   0.00000      0.000  -0.000   0.000
   10 12 3Pdxz      0.16981   0.00000     -0.000  -0.000   0.000
   10 13 3Pdx2-y2   0.32271   0.00000     -0.000   0.000   0.000
   10     Total     3.41278   0.00000      0.000  -0.000   0.000

   11  1 3s         0.55792   0.00000     -0.000  -0.000   0.000
   11  2 3s         0.38251   0.00000      0.000   0.000  -0.000
   11  3 3py        0.30318   0.00000      0.000  -0.000  -0.000
   11  4 3pz        0.53968   0.00000     -0.000   0.000  -0.000
   11  5 3px        0.13801   0.00000     -0.000   0.000  -0.000
   11  6 3py        0.30366   0.00000     -0.000   0.000   0.000
   11  7 3pz        0.17768   0.00000      0.000  -0.000  -0.000
   11  8 3px        0.43263   0.00000      0.000  -0.000   0.000
   11  9 3Pdxy      0.24340   0.00000      0.000  -0.000   0.000
   11 10 3Pdyz      0.12473   0.00000      0.000   0.000  -0.000
   11 11 3Pdz2      0.00935   0.00000     -0.000   0.000   0.000
   11 12 3Pdxz      0.05250   0.00000     -0.000   0.000  -0.000
   11 13 3Pdx2-y2   0.18402   0.00000      0.000  -0.000  -0.000
   11     Total     3.44927   0.00000     -0.000   0.000  -0.000

----------------------------------------------------------------
Total              51.75200   0.00000     -0.000  -0.000   0.000


Species: H                   

Atom      Orb        Charge      Spin       Svec
----------------------------------------------------------------
   12  1 1s         0.49747   0.00000     -0.000  -0.000  -0.000
   12  2 1s         0.18494   0.00000     -0.000  -0.000   0.000
   12  3 2Ppy       0.02918   0.00000     -0.000  -0.000  -0.000
   12  4 2Ppz       0.03702   0.00000      0.000  -0.000  -0.000
   12  5 2Ppx       0.02358   0.00000     -0.000  -0.000  -0.000
   12     Total     0.77219   0.00000     -0.000  -0.000  -0.000

   13  1 1s         1.02070   0.00000      0.000  -0.000  -0.000
   13  2 1s         0.09456   0.00000     -0.000  -0.000   0.000
   13  3 2Ppy       0.01990   0.00000     -0.000   0.000  -0.000
   13  4 2Ppz       0.02006   0.00000      0.000  -0.000  -0.000
   13  5 2Ppx       0.03315   0.00000     -0.000   0.000   0.000
   13     Total     1.18837   0.00000      0.000  -0.000  -0.000

   14  1 1s         0.46179   0.00000     -0.000   0.000  -0.000
   14  2 1s         0.19989   0.00000      0.000  -0.000   0.000
   14  3 2Ppy       0.01822   0.00000      0.000   0.000  -0.000
   14  4 2Ppz       0.04654   0.00000      0.000   0.000  -0.000
   14  5 2Ppx       0.01728   0.00000     -0.000  -0.000   0.000
   14     Total     0.74372   0.00000     -0.000   0.000  -0.000

   15  1 1s         0.47738   0.00000     -0.000   0.000  -0.000
   15  2 1s         0.19819   0.00000      0.000  -0.000   0.000
   15  3 2Ppy       0.00586   0.00000      0.000   0.000   0.000
   15  4 2Ppz       0.05169   0.00000     -0.000  -0.000  -0.000
   15  5 2Ppx       0.02823   0.00000     -0.000   0.000  -0.000
   15     Total     0.76135   0.00000     -0.000   0.000  -0.000

   16  1 1s         0.50327   0.00000     -0.000   0.000  -0.000
   16  2 1s         0.18819   0.00000      0.000  -0.000   0.000
   16  3 2Ppy       0.02997   0.00000      0.000  -0.000  -0.000
   16  4 2Ppz       0.03830   0.00000      0.000  -0.000   0.000
   16  5 2Ppx       0.02264   0.00000     -0.000  -0.000  -0.000
   16     Total     0.78237   0.00000      0.000   0.000  -0.000

----------------------------------------------------------------
Total              56.00000   0.00000     -0.000   0.000  -0.000


siesta: Eigenvalues (eV):
ik =     1
  -22.0674  -22.0674  -21.9030  -21.9030  -21.3904  -21.3904  -20.9989  -20.9989  -19.9891  -19.9891
  -19.4806  -19.4806  -14.0234  -14.0234  -13.3133  -13.3133  -13.2416  -13.2416  -13.0306  -13.0306
  -12.6328  -12.6328  -11.6073  -11.6073  -10.8638  -10.8638  -10.8077  -10.8077   -9.3101   -9.3101
   -9.0835   -9.0835   -8.8843   -8.8843   -8.7612   -8.7612   -8.3201   -8.3201   -7.8827   -7.8827
   -7.5393   -7.5393   -7.4349   -7.4349   -6.9894   -6.9894   -6.6605   -6.6605   -6.4030   -6.4030
   -6.2994   -6.2994   -5.9958   -5.9958   -4.4964   -4.4964   -2.5042   -2.5042   -2.4390   -2.4390
   -2.0822   -2.0822   -1.9821   -1.9821   -1.6646   -1.6646   -1.3695   -1.3695   -0.9326   -0.9326
   -0.5839   -0.5839    0.1643    0.1643    0.1978    0.1978    0.4659    0.4659    0.6105    0.6105
    1.1926    1.1926    1.2999    1.2999    1.5455    1.5455    2.2166    2.2166    2.5526    2.5526
    2.5917    2.5917    2.9085    2.9085    3.1809    3.1809    3.6529    3.6529    3.7637    3.7637
    4.1863    4.1863    4.4295    4.4295    4.5730    4.5730    4.9303    4.9303    5.1103    5.1103
    5.4211    5.4211    5.4653    5.4653    5.7419    5.7419    5.8241    5.8241    6.1963    6.1963
    6.4578    6.4578    7.0240    7.0240    7.1322    7.1322    7.3456    7.3456    7.6686    7.6686
    8.0671    8.0671    8.4503    8.4503    8.5010    8.5010    8.5462    8.5462    9.0254    9.0254
    9.1064    9.1064    9.6276    9.6276    9.6612    9.6612   10.2383   10.2383   10.6810   10.6810
   10.6907   10.6907   10.8590   10.8590   11.7635   11.7635   11.8371   11.8371   11.9263   11.9263
   12.2121   12.2121   12.2521   12.2521   13.2403   13.2403   13.5691   13.5691   13.9150   13.9150
   13.9785   13.9785   14.5393   14.5393   15.6941   15.6941   16.0413   16.0413   16.8196   16.8196
   18.0537   18.0537   18.2271   18.2271   18.3837   18.3837   19.1012   19.1012   19.9306   19.9306
   21.6975   21.6975   22.4288   22.4288   22.9835   22.9835   23.4422   23.4422   23.8137   23.8137
   24.6834   24.6834   26.7891   26.7891   28.6830   28.6830   29.3252   29.3252   29.5746   29.5746
   29.9030   29.9030   30.1695   30.1695   30.5921   30.5921   30.7287   30.7287   30.8711   30.8711
   32.2262   32.2262   33.9586   33.9586   34.1383   34.1383   34.7317   34.7317   35.0546   35.0546
   35.2825   35.2825   36.4777   36.4777   36.7750   36.7750   37.1626   37.1626   37.4171   37.4171
   38.0910   38.0910   39.2473   39.2473   39.7937   39.7937   40.6037   40.6037   40.7304   40.7304
   41.0041   41.0041   41.2361   41.2361   42.7891   42.7891   43.0818   43.0818   43.8209   43.8209
   43.8672   43.8672   44.5265   44.5265   44.5848   44.5848   45.1936   45.1936   46.1527   46.1527
   46.6545   46.6545   47.2698   47.2698   49.0396   49.0396   49.2097   49.2097   50.2437   50.2437
   50.7769   50.7769   51.1234   51.1234   52.3783   52.3783   54.6605   54.6605   54.7430   54.7430
   55.6238   55.6238   56.3105   56.3105   58.0206   58.0206   58.5883   58.5883   60.1020   60.1020
   60.7866   60.7866   61.3126   61.3126   62.0268   62.0268   64.1494   64.1494   66.9973   66.9973
   67.0697   67.0697   68.5534   68.5534   70.5465   70.5465   73.2581   73.2581   89.9482   89.9482
   93.2634   93.2634   98.1342   98.1342  103.1031  103.1031  103.3685  103.3685  110.2597  110.2597
  123.7549  123.7549  130.6491  130.6491  140.9471  140.9471
siesta: Fermi energy =      -3.705974 eV

siesta: Program's energy decomposition (eV):
siesta: Ebs     =      -658.820516
siesta: Eions   =      2040.955082
siesta: Ena     =       223.142245
siesta: Ekin    =      1678.826444
siesta: Enl     =     -1651.030711
siesta: Eso     =        -0.002376
siesta: Edftu   =         0.000000
siesta: DEna    =        30.607265
siesta: DUscf   =         8.035249
siesta: DUext   =         0.000000
siesta: Exc     =      -644.801495
siesta: eta*DQ  =         0.000000
siesta: Emadel  =         0.000000
siesta: Emeta   =         0.000000
siesta: Emolmec =         0.000000
siesta: Ekinion =         0.000000
siesta: Eharris =     -2396.178462
siesta: Etot    =     -2396.178462
siesta: FreeEng =     -2396.178462

siesta: Final energy (eV):
siesta:  Band Struct. =    -658.820516
siesta:       Kinetic =    1678.826444
siesta:       Hartree =    4059.863930
siesta:       Edftu   =       0.000000
siesta:       Eso     =      -0.002376
siesta:    Ext. field =       0.000000
siesta:   Exch.-corr. =    -644.801495
siesta:  Ion-electron =   -9620.199546
siesta:       Ion-ion =    2130.134581
siesta:       Ekinion =       0.000000
siesta:         Total =   -2396.178462
siesta:         Fermi =      -3.705974

siesta: Atomic forces (eV/Ang):
siesta:      1    2.132639   -2.413235    0.000000
siesta:      2   -0.005420    0.000281   -0.000000
siesta:      3    0.006419   -0.000645    0.000000
siesta:      4    0.024070    0.004301    0.000000
siesta:      5    0.003063    0.010467   -0.000000
siesta:      6   -0.001659   -0.011001    0.000000
siesta:      7    0.001162    0.004034    0.000000
siesta:      8   -0.000449    0.000867    0.000000
siesta:      9   -0.004045   -0.000710   -0.000000
siesta:     10    0.001780    0.001109   -0.000000
siesta:     11    0.001925    0.000789    0.000000
siesta:     12   -0.204889   -0.027387   -0.000000
siesta:     13    0.009275    0.086035   -0.000000
siesta:     14   -0.035207   -0.030290   -0.000000
siesta:     15    0.178209    0.084829    0.000000
siesta:     16    0.004994    0.184966   -0.000000
siesta: ----------------------------------------
siesta:    Tot    2.111869   -2.105590    0.000000

siesta: Stress tensor (static) (eV/Ang**3):
siesta:     0.000009    0.000339    0.000000
siesta:     0.000339    0.000770   -0.000000
siesta:    -0.000000   -0.000000   -0.000054

siesta: Cell volume =       2612.334160 Ang**3

siesta: Pressure (static):
siesta:                Solid            Molecule  Units
siesta:          -0.00000263          0.00001018  Ry/Bohr**3
siesta:          -0.00024157          0.00093455  eV/Ang**3
siesta:          -0.38704066          1.49733552  kBar
(Free)E+ p_basis*V_orbitals  =       -2385.188786
(Free)Eharris+ p_basis*V_orbitals  =       -2385.188786
     spin moment: S , {S} =    0.00000  -0.00000   0.00000  -0.00000

siesta: Electric dipole (a.u.)  =    1.115868   -3.168423   -0.000000
siesta: Electric dipole (Debye) =    2.836255   -8.053333   -0.000000

cite: Please see "Guanine.bib" for an exhaustive BiBTeX file.
cite: Please clearly indicate Siesta version in published work: v4.1.5-1-g384057250
cite: This calculation has made use of the following articles
cite: which are encouraged to be cited in a published work.
        Primary SIESTA paper
          DOI: www.doi.org/10.1088/0953-8984/14/11/302
        Spin-orbit coupling (on-site approximation)
          DOI: www.doi.org/10.1088/0953-8984/19/19/489001


WARNING: alloc-realloc-dealloc name mismatch
         Name: atomlist isa
         Size:               -64. Bytes
         Node:     0
         Subsequent mismatches will not be reported
>> End of run:  12-MAY-2023  22:11:31
Job completed
