Siesta Version  : v4.1.5-1-g384057250
Architecture    : gcc
Compiler version: GNU Fortran (Debian 10.2.1-6) 10.2.1 20210110
Compiler flags  : mpifort -O2 -fPIC -ftree-vectorize -fallow-argument-mismatch
PP flags        : -DFC_HAVE_ABORT -DMPI -DSIESTA__FLOOK -DSIESTA__METIS -DSIESTA__MUMPS -DCDF -DNCDF -DNCDF_4 -DNCDF_PARALLEL -DSIESTA__MRRR -DSIESTA__ELPA
Libraries       : libncdf.a libfdict.a  -lflookall -ldl -lnetcdff -lnetcdf -lhdf5_hl -lhdf5 -lhdf5_fortran -lz -lscalapack-openmpi -lopenblas -lmetis -lzmumps -lcmumps -ldmumps -lmumps_common -lpord -lsmumps -lesmumps -lscotch -lscotcherr -fopenmp -lelpa
PARALLEL version
NetCDF support
NetCDF-4 support
NetCDF-4 MPI-IO support
METIS ordering support
Lua support

* Running on 6 nodes in parallel
>> Start of run:  12-MAY-2023   3:26:48

                           ***********************       
                           *  WELCOME TO SIESTA  *       
                           ***********************       

reinit: Reading from standard input
reinit: Dumped input in INPUT_TMP.11636
************************** Dump of input data file ****************************
# mpirun -np 4 siesta-4.1.5 < Guanine.fdf > Guanine.out
SystemLabel      Guanine
NumberOfAtoms    16
NumberOfSpecies  4
%block ChemicalSpeciesLabel
    1    8  O
    2    7  N
    3   14  Si
    4    1  H
%endblock ChemicalSpeciesLabel
###################################
# This overrides Defaults.fdf conf
###################################
MD.TypeOfRun                CG # CG, Verlet
AtomicCoordinatesFormat NotScaledCartesianAng
%block AtomicCoordinatesAndAtomicSpecies
     0.871420000     3.740689000     0.000000000    1
    -3.073620000     0.797194000     0.000000000    2
     1.925949000     1.075908000     0.000000000    2
     0.978044000    -1.830773000     0.000000000    2
    -2.130352000    -2.006333000     0.000000000    2
     3.767725000    -1.090356000     0.000000000    2
    -1.319167000     0.932524000     0.000000000    3
    -0.573353000    -1.128459000     0.000000000    3
     0.499455000     2.232386000     0.000000000    3
     2.127451000    -0.633529000     0.000000000    3
    -3.443129000    -0.822945000     0.000000000    3
     2.805644000     1.646810000     0.000000000    4
    -4.825746000    -1.387455000     0.000000000    4
     4.039823000    -2.084493000     0.000000000    4
     4.564096000    -0.433838000     0.000000000    4
    -2.281251000    -3.035809000     0.000000000    4
%endblock AtomicCoordinatesAndAtomicSpecies
%include ../../Defaults.fdf
************************** End of input data file *****************************

reinit: -----------------------------------------------------------------------
reinit: System Name: 
reinit: -----------------------------------------------------------------------
reinit: System Label: Guanine
reinit: -----------------------------------------------------------------------

initatom: Reading input for the pseudopotentials and atomic orbitals ----------
Species number:   1 Atomic number:    8 Label: O
Species number:   2 Atomic number:    7 Label: N
Species number:   3 Atomic number:   14 Label: Si
Species number:   4 Atomic number:    1 Label: H

Ground state valence configuration:   2s02  2p04
Reading pseudopotential information in formatted form from O.psf

Pseudopotential generated from a relativistic atomic calculation

Valence configuration for pseudopotential generation:
2s( 2.00) rc: 0.45
2p( 4.00) rc: 0.92
3d( 0.00) rc: 2.24
4f( 0.00) rc: 0.25
Ground state valence configuration:   2s02  2p03
Reading pseudopotential information in formatted form from N.psf

Pseudopotential generated from a relativistic atomic calculation

Valence configuration for pseudopotential generation:
2s( 2.00) rc: 0.94
2p( 3.00) rc: 0.59
3d( 0.00) rc: 3.46
4f( 0.00) rc: 2.47
Ground state valence configuration:   3s02  3p02
Reading pseudopotential information in formatted form from Si.psf

Pseudopotential generated from a relativistic atomic calculation

Valence configuration for pseudopotential generation:
3s( 2.00) rc: 1.67
3p( 2.00) rc: 2.04
3d( 0.00) rc: 2.89
4f( 0.00) rc: 2.49
Ground state valence configuration:   1s01
Reading pseudopotential information in formatted form from H.psf

Pseudopotential generated from a relativistic atomic calculation

Valence configuration for pseudopotential generation:
1s( 1.00) rc: 0.01
2p( 0.00) rc: 0.60
3d( 0.00) rc: 1.99
4f( 0.00) rc: 2.49
For O, standard SIESTA heuristics set lmxkb to 3
 (one more than the basis l, including polarization orbitals).
Use PS.lmax or PS.KBprojectors blocks to override.
For N, standard SIESTA heuristics set lmxkb to 3
 (one more than the basis l, including polarization orbitals).
Use PS.lmax or PS.KBprojectors blocks to override.
For Si, standard SIESTA heuristics set lmxkb to 3
 (one more than the basis l, including polarization orbitals).
Use PS.lmax or PS.KBprojectors blocks to override.
For H, standard SIESTA heuristics set lmxkb to 2
 (one more than the basis l, including polarization orbitals).
Use PS.lmax or PS.KBprojectors blocks to override.

<basis_specs>
===============================================================================
O                    Z=   8    Mass=  16.000        Charge= 0.17977+309
Lmxo=1 Lmxkb= 3    BasisType=split      Semic=F
L=0  Nsemic=0  Cnfigmx=2
          i=1  nzeta=2  polorb=0  (2s)
            splnorm:   0.28000    
               vcte:    0.0000    
               rinn:    0.0000    
               qcoe:    0.0000    
               qyuk:    0.0000    
               qwid:   0.10000E-01
                rcs:    0.0000      0.0000    
            lambdas:    1.0000      1.0000    
L=1  Nsemic=0  Cnfigmx=2
          i=1  nzeta=2  polorb=1  (2p)
            splnorm:   0.28000    
               vcte:    0.0000    
               rinn:    0.0000    
               qcoe:    0.0000    
               qyuk:    0.0000    
               qwid:   0.10000E-01
                rcs:    0.0000      0.0000    
            lambdas:    1.0000      1.0000    
-------------------------------------------------------------------------------
L=0  Nkbl=1  erefs: 0.17977+309
L=1  Nkbl=1  erefs: 0.17977+309
L=2  Nkbl=1  erefs: 0.17977+309
L=3  Nkbl=1  erefs: 0.17977+309
===============================================================================
</basis_specs>

atom: Called for O                     (Z =   8)

read_vps: Pseudopotential generation method:
read_vps: ATM4.2.7  Troullier-Martins                       
Valence charge for ps generation:    6.00000

xc_check: Exchange-correlation functional:
xc_check: GGA Perdew, Burke & Ernzerhof 1996
V l=0 = -2*Zval/r beyond r=  1.1000
V l=1 = -2*Zval/r beyond r=  1.1000
V l=2 = -2*Zval/r beyond r=  2.2154
V l=3 = -2*Zval/r beyond r=  1.1000
All V_l potentials equal beyond r=  2.2154
This should be close to max(r_c) in ps generation
All pots = -2*Zval/r beyond r=  2.2154

VLOCAL1: 99.0% of the norm of Vloc inside      8.845 Ry
VLOCAL1: 99.9% of the norm of Vloc inside     20.157 Ry
atom: Maximum radius for 4*pi*r*r*local-pseudopot. charge    2.67231
atom: Maximum radius for r*vlocal+2*Zval:    2.32897
GHOST: No ghost state for L =  0
GHOST: No ghost state for L =  1
GHOST: No ghost state for L =  2
GHOST: No ghost state for L =  3

KBgen: Kleinman-Bylander projectors: 
   l= 0   rc=  2.243238   el= -1.759686   Ekb=**********   kbcos= -0.171774
   l= 1   rc=  2.328968   el= -0.663873   Ekb=-14.506792   kbcos= -0.519897
   l= 2   rc=  2.573941   el=  0.002031   Ekb= -1.137373   kbcos= -0.019581
   l= 3   rc=  2.606321   el=  0.003153   Ekb= -1.013546   kbcos= -0.003122

KBgen: Total number of Kleinman-Bylander projectors:   16
atom: -------------------------------------------------------------------------

atom: SANKEY-TYPE ORBITALS:
atom: Selected multiple-zeta basis: split     

SPLIT: Orbitals with angular momentum L= 0

SPLIT: Basis orbitals for state 2s

SPLIT: PAO cut-off radius determined from an
SPLIT: energy shift=  0.002000 Ry

   izeta = 1
                 lambda =    1.000000
                     rc =    4.243912
                 energy =   -1.758270
                kinetic =    3.286084
    potential(screened) =   -5.044353
       potential(ionic) =  -12.921184

   izeta = 2
                 rmatch =    2.187845
              splitnorm =    0.280000
                 energy =   -0.885018
                kinetic =    8.134434
    potential(screened) =   -9.019452
       potential(ionic) =  -17.710645

SPLIT: Orbitals with angular momentum L= 1

SPLIT: Basis orbitals for state 2p

SPLIT: PAO cut-off radius determined from an
SPLIT: energy shift=  0.002000 Ry

   izeta = 1
                 lambda =    1.000000
                     rc =    5.314825
                 energy =   -0.661986
                kinetic =    4.917472
    potential(screened) =   -5.579458
       potential(ionic) =  -13.236259

   izeta = 2
                 rmatch =    2.160663
              splitnorm =    0.280000
                 energy =   -0.068760
                kinetic =    9.183374
    potential(screened) =   -9.252135
       potential(ionic) =  -18.274251

POLgen: Perturbative polarization orbital with L=  2

POLgen: Polarization orbital for state 2p

   izeta = 1
                     rc =    5.314825
                 energy =    1.970580
                kinetic =    3.886128
    potential(screened) =   -1.915547
       potential(ionic) =   -7.749584
atom: Total number of Sankey-type orbitals: 13

atm_pop: Valence configuration (for local Pseudopot. screening):
 2s( 2.00)                                                            
 2p( 4.00)                                                            
Vna: chval, zval:    6.00000   6.00000

Vna:  Cut-off radius for the neutral-atom potential:   5.314825

atom: _________________________________________________________________________

<basis_specs>
===============================================================================
N                    Z=   7    Mass=  14.010        Charge= 0.17977+309
Lmxo=1 Lmxkb= 3    BasisType=split      Semic=F
L=0  Nsemic=0  Cnfigmx=2
          i=1  nzeta=2  polorb=0  (2s)
            splnorm:   0.28000    
               vcte:    0.0000    
               rinn:    0.0000    
               qcoe:    0.0000    
               qyuk:    0.0000    
               qwid:   0.10000E-01
                rcs:    0.0000      0.0000    
            lambdas:    1.0000      1.0000    
L=1  Nsemic=0  Cnfigmx=2
          i=1  nzeta=2  polorb=1  (2p)
            splnorm:   0.28000    
               vcte:    0.0000    
               rinn:    0.0000    
               qcoe:    0.0000    
               qyuk:    0.0000    
               qwid:   0.10000E-01
                rcs:    0.0000      0.0000    
            lambdas:    1.0000      1.0000    
-------------------------------------------------------------------------------
L=0  Nkbl=1  erefs: 0.17977+309
L=1  Nkbl=1  erefs: 0.17977+309
L=2  Nkbl=1  erefs: 0.17977+309
L=3  Nkbl=1  erefs: 0.17977+309
===============================================================================
</basis_specs>

atom: Called for N                     (Z =   7)

read_vps: Pseudopotential generation method:
read_vps: ATM4.2.7  Troullier-Martins                       
Valence charge for ps generation:    5.00000

xc_check: Exchange-correlation functional:
xc_check: GGA Perdew, Burke & Ernzerhof 1996
V l=0 = -2*Zval/r beyond r=  1.2889
V l=1 = -2*Zval/r beyond r=  1.2889
V l=2 = -2*Zval/r beyond r=  3.4178
V l=3 = -2*Zval/r beyond r=  2.4084
All V_l potentials equal beyond r=  3.3753
This should be close to max(r_c) in ps generation
All pots = -2*Zval/r beyond r=  3.4178

VLOCAL1: 99.0% of the norm of Vloc inside      3.810 Ry
VLOCAL1: 99.9% of the norm of Vloc inside      8.683 Ry
atom: Maximum radius for 4*pi*r*r*local-pseudopot. charge    4.02088
atom: Maximum radius for r*vlocal+2*Zval:    3.54838
GHOST: No ghost state for L =  0
GHOST: No ghost state for L =  1
GHOST: No ghost state for L =  2
GHOST: No ghost state for L =  3

KBgen: Kleinman-Bylander projectors: 
   l= 0   rc=  3.417763   el= -1.365098   Ekb= -4.433130   kbcos= -0.707855
   l= 1   rc=  3.375302   el= -0.521201   Ekb=-13.264039   kbcos= -0.535594
   l= 2   rc=  3.872880   el=  0.001991   Ekb= -0.641094   kbcos= -0.062456
   l= 3   rc=  3.970931   el=  0.003093   Ekb= -0.474517   kbcos= -0.018236

KBgen: Total number of Kleinman-Bylander projectors:   16
atom: -------------------------------------------------------------------------

atom: SANKEY-TYPE ORBITALS:
atom: Selected multiple-zeta basis: split     

SPLIT: Orbitals with angular momentum L= 0

SPLIT: Basis orbitals for state 2s

SPLIT: PAO cut-off radius determined from an
SPLIT: energy shift=  0.002000 Ry

   izeta = 1
                 lambda =    1.000000
                     rc =    4.730425
                 energy =   -1.363399
                kinetic =    1.245246
    potential(screened) =   -2.608645
       potential(ionic) =   -8.121105

   izeta = 2
                 rmatch =    2.531849
              splitnorm =    0.280000
                 energy =   -0.959908
                kinetic =    2.409435
    potential(screened) =   -3.369343
       potential(ionic) =   -9.427975

SPLIT: Orbitals with angular momentum L= 1

SPLIT: Basis orbitals for state 2p

SPLIT: PAO cut-off radius determined from an
SPLIT: energy shift=  0.002000 Ry

   izeta = 1
                 lambda =    1.000000
                     rc =    5.924108
                 energy =   -0.519262
                kinetic =    3.672940
    potential(screened) =   -4.192202
       potential(ionic) =   -9.518354

   izeta = 2
                 rmatch =    2.531849
              splitnorm =    0.280000
                 energy =   -0.104258
                kinetic =    6.807538
    potential(screened) =   -6.911796
       potential(ionic) =  -13.149920

POLgen: Perturbative polarization orbital with L=  2

POLgen: Polarization orbital for state 2p

   izeta = 1
                     rc =    5.924108
                 energy =    1.427508
                kinetic =    2.872379
    potential(screened) =   -1.444871
       potential(ionic) =   -5.563644
atom: Total number of Sankey-type orbitals: 13

atm_pop: Valence configuration (for local Pseudopot. screening):
 2s( 2.00)                                                            
 2p( 3.00)                                                            
Vna: chval, zval:    5.00000   5.00000

Vna:  Cut-off radius for the neutral-atom potential:   5.924108

atom: _________________________________________________________________________

<basis_specs>
===============================================================================
Si                   Z=  14    Mass=  28.090        Charge= 0.17977+309
Lmxo=1 Lmxkb= 3    BasisType=split      Semic=F
L=0  Nsemic=0  Cnfigmx=3
          i=1  nzeta=2  polorb=0  (3s)
            splnorm:   0.28000    
               vcte:    0.0000    
               rinn:    0.0000    
               qcoe:    0.0000    
               qyuk:    0.0000    
               qwid:   0.10000E-01
                rcs:    0.0000      0.0000    
            lambdas:    1.0000      1.0000    
L=1  Nsemic=0  Cnfigmx=3
          i=1  nzeta=2  polorb=1  (3p)
            splnorm:   0.28000    
               vcte:    0.0000    
               rinn:    0.0000    
               qcoe:    0.0000    
               qyuk:    0.0000    
               qwid:   0.10000E-01
                rcs:    0.0000      0.0000    
            lambdas:    1.0000      1.0000    
-------------------------------------------------------------------------------
L=0  Nkbl=1  erefs: 0.17977+309
L=1  Nkbl=1  erefs: 0.17977+309
L=2  Nkbl=1  erefs: 0.17977+309
L=3  Nkbl=1  erefs: 0.17977+309
===============================================================================
</basis_specs>

atom: Called for Si                    (Z =  14)

read_vps: Pseudopotential generation method:
read_vps: ATM4.2.7  Troullier-Martins                       
Valence charge for ps generation:    4.00000

xc_check: Exchange-correlation functional:
xc_check: GGA Perdew, Burke & Ernzerhof 1996
V l=0 = -2*Zval/r beyond r=  2.7826
V l=1 = -2*Zval/r beyond r=  2.7826
V l=2 = -2*Zval/r beyond r=  2.9253
V l=3 = -2*Zval/r beyond r=  2.7826
All V_l potentials equal beyond r=  2.8530
This should be close to max(r_c) in ps generation
All pots = -2*Zval/r beyond r=  2.9253

VLOCAL1: 99.0% of the norm of Vloc inside      5.333 Ry
VLOCAL1: 99.9% of the norm of Vloc inside     12.154 Ry
atom: Maximum radius for 4*pi*r*r*local-pseudopot. charge    3.39869
atom: Maximum radius for r*vlocal+2*Zval:    2.96205
GHOST: No ghost state for L =  0
GHOST: No ghost state for L =  1
GHOST: No ghost state for L =  2
GHOST: No ghost state for L =  3

KBgen: Kleinman-Bylander projectors: 
   l= 0   rc=  3.075247   el= -0.794092   Ekb=  5.879390   kbcos=  0.167461
   l= 1   rc=  3.153101   el= -0.300068   Ekb=  2.642817   kbcos=  0.058301
   l= 2   rc=  3.273594   el=  0.001958   Ekb= -1.185135   kbcos= -0.104411
   l= 3   rc=  3.232927   el=  0.003046   Ekb= -0.497174   kbcos= -0.015889

KBgen: Total number of Kleinman-Bylander projectors:   16
atom: -------------------------------------------------------------------------

atom: SANKEY-TYPE ORBITALS:
atom: Selected multiple-zeta basis: split     

SPLIT: Orbitals with angular momentum L= 0

SPLIT: Basis orbitals for state 3s

SPLIT: PAO cut-off radius determined from an
SPLIT: energy shift=  0.002000 Ry

   izeta = 1
                 lambda =    1.000000
                     rc =    6.429618
                 energy =   -0.792283
                kinetic =    0.525293
    potential(screened) =   -1.317576
       potential(ionic) =   -3.744923

   izeta = 2
                 rmatch =    3.998416
              splitnorm =    0.280000
                 energy =   -0.583081
                kinetic =    1.069570
    potential(screened) =   -1.652651
       potential(ionic) =   -4.235185

SPLIT: Orbitals with angular momentum L= 1

SPLIT: Basis orbitals for state 3p

SPLIT: PAO cut-off radius determined from an
SPLIT: energy shift=  0.002000 Ry

   izeta = 1
                 lambda =    1.000000
                     rc =    8.464845
                 energy =   -0.298236
                kinetic =    0.785360
    potential(screened) =   -1.083596
       potential(ionic) =   -3.273779

   izeta = 2
                 rmatch =    4.587816
              splitnorm =    0.280000
                 energy =   -0.131871
                kinetic =    1.403687
    potential(screened) =   -1.535557
       potential(ionic) =   -4.015310

POLgen: Perturbative polarization orbital with L=  2

POLgen: Polarization orbital for state 3p

   izeta = 1
                     rc =    8.464845
                 energy =    0.321949
                kinetic =    1.055677
    potential(screened) =   -0.733728
       potential(ionic) =   -2.672950
atom: Total number of Sankey-type orbitals: 13

atm_pop: Valence configuration (for local Pseudopot. screening):
 3s( 2.00)                                                            
 3p( 2.00)                                                            
Vna: chval, zval:    4.00000   4.00000

Vna:  Cut-off radius for the neutral-atom potential:   8.464845

atom: _________________________________________________________________________

<basis_specs>
===============================================================================
H                    Z=   1    Mass=  1.0100        Charge= 0.17977+309
Lmxo=0 Lmxkb= 2    BasisType=split      Semic=F
L=0  Nsemic=0  Cnfigmx=1
          i=1  nzeta=2  polorb=1  (1s)
            splnorm:   0.62000    
               vcte:    0.0000    
               rinn:    0.0000    
               qcoe:    0.0000    
               qyuk:    0.0000    
               qwid:   0.10000E-01
                rcs:    0.0000      0.0000    
            lambdas:    1.0000      1.0000    
-------------------------------------------------------------------------------
L=0  Nkbl=1  erefs: 0.17977+309
L=1  Nkbl=1  erefs: 0.17977+309
L=2  Nkbl=1  erefs: 0.17977+309
===============================================================================
</basis_specs>

atom: Called for H                     (Z =   1)

read_vps: Pseudopotential generation method:
read_vps: ATM4.2.7  Troullier-Martins                       
Valence charge for ps generation:    1.00000

xc_check: Exchange-correlation functional:
xc_check: GGA Perdew, Burke & Ernzerhof 1996
V l=0 = -2*Zval/r beyond r=  0.0098
V l=1 = -2*Zval/r beyond r=  0.5817
V l=2 = -2*Zval/r beyond r=  1.9372
All V_l potentials equal beyond r=  1.9372
This should be close to max(r_c) in ps generation
All pots = -2*Zval/r beyond r=  1.9372

VLOCAL1: 99.0% of the norm of Vloc inside     11.567 Ry
VLOCAL1: 99.9% of the norm of Vloc inside     26.362 Ry
atom: Maximum radius for 4*pi*r*r*local-pseudopot. charge    2.25106
atom: Maximum radius for r*vlocal+2*Zval:    1.91306
GHOST: No ghost state for L =  0
GHOST: No ghost state for L =  1
GHOST: No ghost state for L =  2

KBgen: Kleinman-Bylander projectors: 
   l= 0   rc=  2.036604   el= -0.477180   Ekb= -6.081590   kbcos= -0.277285
   l= 1   rc=  2.195416   el=  0.001076   Ekb= -0.926943   kbcos= -0.034643
   l= 2   rc=  2.251056   el=  0.002010   Ekb= -0.130941   kbcos= -0.009788

KBgen: Total number of Kleinman-Bylander projectors:    9
atom: -------------------------------------------------------------------------

atom: SANKEY-TYPE ORBITALS:
atom: Selected multiple-zeta basis: split     

SPLIT: Orbitals with angular momentum L= 0

SPLIT: Basis orbitals for state 1s

SPLIT: PAO cut-off radius determined from an
SPLIT: energy shift=  0.002000 Ry

   izeta = 1
                 lambda =    1.000000
                     rc =    6.518340
                 energy =   -0.475305
                kinetic =    0.912139
    potential(screened) =   -1.387444
       potential(ionic) =   -1.907295

   izeta = 2
                 rmatch =    2.141150
              splitnorm =    0.620000
                 energy =    0.566467
                kinetic =    3.772856
    potential(screened) =   -3.206389
       potential(ionic) =   -3.759093

POLgen: Perturbative polarization orbital with L=  1

POLgen: Polarization orbital for state 1s

   izeta = 1
                     rc =    6.518340
                 energy =    0.533861
                kinetic =    1.121086
    potential(screened) =   -0.587225
       potential(ionic) =   -1.053027
atom: Total number of Sankey-type orbitals:  5

atm_pop: Valence configuration (for local Pseudopot. screening):
 1s( 1.00)                                                            
Vna: chval, zval:    1.00000   1.00000

Vna:  Cut-off radius for the neutral-atom potential:   6.518340

atom: _________________________________________________________________________

prinput: Basis input ----------------------------------------------------------

PAO.BasisType split     

%block ChemicalSpeciesLabel
    1    8 O                       # Species index, atomic number, species label
    2    7 N                       # Species index, atomic number, species label
    3   14 Si                      # Species index, atomic number, species label
    4    1 H                       # Species index, atomic number, species label
%endblock ChemicalSpeciesLabel

%block PAO.Basis                 # Define Basis set
O                     2                    # Species label, number of l-shells
 n=2   0   2                         # n, l, Nzeta 
   4.244      2.188   
   1.000      1.000   
 n=2   1   2 P   1                   # n, l, Nzeta, Polarization, NzetaPol
   5.315      2.161   
   1.000      1.000   
N                     2                    # Species label, number of l-shells
 n=2   0   2                         # n, l, Nzeta 
   4.730      2.532   
   1.000      1.000   
 n=2   1   2 P   1                   # n, l, Nzeta, Polarization, NzetaPol
   5.924      2.532   
   1.000      1.000   
Si                    2                    # Species label, number of l-shells
 n=3   0   2                         # n, l, Nzeta 
   6.430      3.998   
   1.000      1.000   
 n=3   1   2 P   1                   # n, l, Nzeta, Polarization, NzetaPol
   8.465      4.588   
   1.000      1.000   
H                     1                    # Species label, number of l-shells
 n=1   0   2 P   1                   # n, l, Nzeta, Polarization, NzetaPol
   6.518      2.141   
   1.000      1.000   
%endblock PAO.Basis

prinput: ----------------------------------------------------------------------

Dumping basis to NetCDF file O.ion.nc
Dumping basis to NetCDF file N.ion.nc
Dumping basis to NetCDF file Si.ion.nc
Dumping basis to NetCDF file H.ion.nc
coor:   Atomic-coordinates input format  =     Cartesian coordinates
coor:                                          (in Angstroms)

siesta: Atomic coordinates (Bohr) and species
siesta:      1.64675   7.06888   0.00000  1        1
siesta:     -5.80830   1.50648   0.00000  2        2
siesta:      3.63952   2.03317   0.00000  2        3
siesta:      1.84824  -3.45966   0.00000  2        4
siesta:     -4.02578  -3.79142   0.00000  2        5
siesta:      7.11997  -2.06048   0.00000  2        6
siesta:     -2.49287   1.76222   0.00000  3        7
siesta:     -1.08348  -2.13248   0.00000  3        8
siesta:      0.94383   4.21860   0.00000  3        9
siesta:      4.02030  -1.19720   0.00000  3       10
siesta:     -6.50657  -1.55514   0.00000  3       11
siesta:      5.30190   3.11202   0.00000  4       12
siesta:     -9.11934  -2.62191   0.00000  4       13
siesta:      7.63416  -3.93912   0.00000  4       14
siesta:      8.62489  -0.81984   0.00000  4       15
siesta:     -4.31094  -5.73685   0.00000  4       16

siesta: Automatic unit cell vectors (Ang):
siesta:   17.917409    0.000000    0.000000
siesta:    0.000000   14.516648    0.000000
siesta:    0.000000    0.000000    9.854683

siesta: System type = molecule  

initatomlists: Number of atoms, orbitals, and projectors:     16   168   221

siesta: ******************** Simulation parameters ****************************
siesta:
siesta: The following are some of the parameters of the simulation.
siesta: A complete list of the parameters used, including default values,
siesta: can be found in file out.fdf
siesta:
redata: Spin configuration                          = spin-orbit
redata: Number of spin components                   = 8
redata: Time-Reversal Symmetry                      = F
redata: Spin spiral                                 = F
############################################################
This spin-orbit implementation uses a local approximation.
From 4.2 and onwards the full non-local approximation is implemented
You are strongly advised to use >=4.2 versions!
############################################################
redata: Long output                                 =   F
redata: Number of Atomic Species                    =        4
redata: Charge density info will appear in .RHO file
redata: Write Mulliken Pop.                         = Atomic and Orbital charges
redata: Matel table size (NRTAB)                    =     1024
redata: Mesh Cutoff                                 =   340.0000 Ry
redata: Net charge of the system                    =     0.0000 |e|
redata: Min. number of SCF Iter                     =        1
redata: Max. number of SCF Iter                     =      200
redata: SCF convergence failure will abort job
redata: SCF mix quantity                            = Hamiltonian
redata: Mix DM or H after convergence               =   F
redata: Recompute H after scf cycle                 =   F
redata: Mix DM in first SCF step                    =   T
redata: Write Pulay info on disk                    =   F
redata: New DM Occupancy tolerance                  = 0.000000000001
redata: No kicks to SCF
redata: DM Mixing Weight for Kicks                  =     0.5000
redata: Require Harris convergence for SCF          =   F
redata: Harris energy tolerance for SCF             =     0.000100 eV
redata: Require DM convergence for SCF              =   T
redata: DM tolerance for SCF                        =     0.000008
redata: Require EDM convergence for SCF             =   F
redata: EDM tolerance for SCF                       =     0.001000 eV
redata: Require H convergence for SCF               =   T
redata: Hamiltonian tolerance for SCF               =     0.000001 eV
redata: Require (free) Energy convergence for SCF   =   F
redata: (free) Energy tolerance for SCF             =     0.000100 eV
redata: Using Saved Data (generic)                  =   F
redata: Use continuation files for DM               =   F
redata: Neglect nonoverlap interactions             =   F
redata: Method of Calculation                       = Diagonalization
redata: Electronic Temperature                      =   299.9978 K
redata: Fix the spin of the system                  =   F
redata: Dynamics option                             = CG coord. optimization
redata: Variable cell                               =   F
redata: Use continuation files for CG               =   F
redata: Max atomic displ per move                   =     0.3000 Ang
redata: Maximum number of optimization moves        =      185
redata: Force tolerance                             =     0.0050 eV/Ang
mix.SCF: Pulay mixing                            = Pulay
mix.SCF:    Variant                              = stable
mix.SCF:    History steps                        = 6
mix.SCF:    Linear mixing weight                 =     0.250000
mix.SCF:    Mixing weight                        =     0.250000
mix.SCF:    SVD condition                        = 0.1000E-07
mix.SCF:    Restart steps                        = 24
mix.SCF:    Restart save steps                   = 3
mix.SCF: Spin-component mixing                   all
redata: Save all siesta data in one NC              =   F
redata: ***********************************************************************

%block SCF.Mixers
  Pulay
%endblock SCF.Mixers

%block SCF.Mixer.Pulay
  # Mixing method
  method pulay
  variant stable

  # Mixing options
  weight 0.2500
  weight.linear 0.2500
  history 6
  restart 24
  restart.save 3
%endblock SCF.Mixer.Pulay

DM_history_depth set to one: no extrapolation allowed by default for geometry relaxation
Size of DM history Fstack: 1
Total number of electrons:    56.000000
Total ionic charge:    56.000000

* ProcessorY, Blocksize:    2  24


* Orbital distribution balance (max,min):    48    24


Time-reversal symmetry not used.

siesta: k-grid: Number of k-points =     1
siesta: k-grid: Cutoff (effective) =     4.927 Ang
siesta: k-grid: Supercell and displacements
siesta: k-grid:    1   0   0      0.000
siesta: k-grid:    0   1   0      0.000
siesta: k-grid:    0   0   1      0.000

diag: Algorithm                                     = ELPA-1stage
diag: Parallel over k                               =   F
diag: Use parallel 2D distribution                  =   T
diag: Parallel block-size                           = 24
diag: Parallel distribution                         =     2 x     3
diag: Used triangular part                          = Lower
diag: Absolute tolerance                            =  0.100E-15
diag: Orthogonalization factor                      =  0.100E-05
diag: Memory factor                                 =  1.0000


ts: **************************************************************
ts: Save H and S matrices                           =    F
ts: Save DM and EDM matrices                        =    F
ts: Only save the overlap matrix S                  =    F
ts: **************************************************************

************************ Begin: TS CHECKS AND WARNINGS ************************
************************ End: TS CHECKS AND WARNINGS **************************


                     ====================================
                        Begin CG opt. move =      0
                     ====================================

outcoor: Atomic coordinates (Ang):                          
    0.87142000    3.74068900    0.00000000   1       1  O
   -3.07362000    0.79719400    0.00000000   2       2  N
    1.92594900    1.07590800    0.00000000   2       3  N
    0.97804400   -1.83077300    0.00000000   2       4  N
   -2.13035200   -2.00633300    0.00000000   2       5  N
    3.76772500   -1.09035600    0.00000000   2       6  N
   -1.31916700    0.93252400    0.00000000   3       7  Si
   -0.57335300   -1.12845900    0.00000000   3       8  Si
    0.49945500    2.23238600    0.00000000   3       9  Si
    2.12745100   -0.63352900    0.00000000   3      10  Si
   -3.44312900   -0.82294500    0.00000000   3      11  Si
    2.80564400    1.64681000    0.00000000   4      12  H
   -4.82574600   -1.38745500    0.00000000   4      13  H
    4.03982300   -2.08449300    0.00000000   4      14  H
    4.56409600   -0.43383800    0.00000000   4      15  H
   -2.28125100   -3.03580900    0.00000000   4      16  H

outcell: Unit cell vectors (Ang):
       17.917409    0.000000    0.000000
        0.000000   14.516648    0.000000
        0.000000    0.000000    9.854683

outcell: Cell vector modules (Ang)   :   17.917409   14.516648    9.854683
outcell: Cell angles (23,13,12) (deg):     90.0000     90.0000     90.0000
outcell: Cell volume (Ang**3)        :   2563.2101
<dSpData1D:S at geom step 0
  <sparsity:sparsity for geom step 0
    nrows_g=168 nrows=48 sparsity=.2653 nnzs=7487, refcount: 8>
  <dData1D:(new from dSpData1D) n=7487, refcount: 1>
refcount: 1>
new_DM -- step:     1
Initializing Density Matrix...
DM filled with atomic data:
<dSpData2D:DM initialized from atoms
  <sparsity:sparsity for geom step 0
    nrows_g=168 nrows=48 sparsity=.2653 nnzs=7487, refcount: 9>
  <dData2D:DM n=7487 m=8, refcount: 1>
refcount: 1>
     spin moment: S , {S} =   32.00000   0.00000   0.00000  32.00000
No. of atoms with KB's overlaping orbs in proc 0. Max # of overlaps:      16     142

Initializing spin-orbit part of the Hamiltonian
  Adding spin-orbit effects for O 
  Adding spin-orbit effects for N 
  Adding spin-orbit effects for Si
  Adding spin-orbit effects for H 


New grid distribution:   1
           1       1:  100    1:   41    1:   20
           2       1:  100    1:   41   21:   40
           3       1:  100    1:   41   41:   60
           4       1:  100   42:   81    1:   20
           5       1:  100   42:   81   21:   40
           6       1:  100   42:   81   41:   60

InitMesh: MESH =   200 x   162 x   120 =     3888000
InitMesh: (bp) =   100 x    81 x    60 =      486000
InitMesh: Mesh cutoff (required, used) =   340.000   344.191 Ry
ExtMesh (bp) on 0 =   204 x   141 x   132 =     3796848
New grid distribution:   2
           1       1:   63    1:   12    1:   60
           2      64:  100    1:   13    1:   60
           3      64:  100   14:   81   22:   60
           4       1:   63   13:   81    1:   19
           5       1:   63   13:   81   20:   60
           6      64:  100   14:   81    1:   21
New grid distribution:   3
           1       1:   59    1:   19    1:   60
           2      60:  100   20:   81    1:   26
           3      60:  100    1:   19    1:   60
           4       1:   59   20:   81    1:   26
           5      60:  100   20:   81   27:   60
           6       1:   59   20:   81   27:   60
Setting up quadratic distribution...
ExtMesh (bp) on 0 =   167 x   112 x   172 =     3217088
PhiOnMesh: Number of (b)points on node 0 =                45360
PhiOnMesh: nlist on node 0 =               796773

stepf: Fermi-Dirac step function

siesta: Program's energy decomposition (eV):
siesta: Ebs     =      -374.031461
siesta: Eions   =      2040.955082
siesta: Ena     =       229.437620
siesta: Ekin    =      1978.855568
siesta: Enl     =     -1983.464934
siesta: Eso     =        -0.001789
siesta: Edftu   =         0.000000
siesta: DEna    =        99.222190
siesta: DUscf   =        49.968031
siesta: DUext   =         0.000000
siesta: Exc     =      -700.496002
siesta: eta*DQ  =         0.000000
siesta: Emadel  =         0.000000
siesta: Emeta   =         0.000000
siesta: Emolmec =         0.000000
siesta: Ekinion =         0.000000
siesta: Eharris =     -2312.020339
siesta: Etot    =     -2367.434398
siesta: FreeEng =     -2367.434656

        iscf     Eharris(eV)        E_KS(eV)     FreeEng(eV)     dDmax    Ef(eV) dHmax(eV)
   scf:    1    -2312.020339    -2367.434398    -2367.434656  0.947730 -4.711552 21.141303
     spin moment: S , {S} =    1.99887  -0.00000  -0.00000   1.99887
timer: Routine,Calls,Time,% = IterSCF        1       2.932  15.90
   scf:    2    -2407.606450    -2392.855868    -2392.856954  0.338471 -4.014731  7.660420
     spin moment: S , {S} =    0.00607  -0.00000  -0.00000   0.00607
   scf:    3    -2396.492106    -2395.184660    -2395.184660  0.051782 -3.521627  5.993461
     spin moment: S , {S} =    0.00006   0.00000   0.00000   0.00006
   scf:    4    -2395.960052    -2395.600460    -2395.600460  0.022132 -3.347466  3.669874
     spin moment: S , {S} =    0.00003   0.00000   0.00000   0.00003
   scf:    5    -2396.031641    -2395.815973    -2395.815973  0.025226 -3.159331  1.714728
     spin moment: S , {S} =    0.00002   0.00000  -0.00000   0.00002
   scf:    6    -2396.006296    -2395.906941    -2395.906941  0.021662 -3.082840  0.513301
     spin moment: S , {S} =    0.00001   0.00000  -0.00000   0.00001
   scf:    7    -2395.961825    -2395.933078    -2395.933078  0.011154 -3.058975  0.182360
     spin moment: S , {S} =    0.00000   0.00000  -0.00000   0.00000
   scf:    8    -2395.946186    -2395.939395    -2395.939395  0.005266 -3.046979  0.106153
     spin moment: S , {S} =    0.00000   0.00000  -0.00000   0.00000
   scf:    9    -2395.950935    -2395.944738    -2395.944738  0.006559 -3.044747  0.076507
     spin moment: S , {S} =    0.00000   0.00000  -0.00000   0.00000
   scf:   10    -2395.952466    -2395.948078    -2395.948078  0.007865 -3.043798  0.042576
     spin moment: S , {S} =    0.00000   0.00000   0.00000   0.00000
   scf:   11    -2395.950060    -2395.948919    -2395.948919  0.004615 -3.045126  0.023956
     spin moment: S , {S} =    0.00000   0.00000   0.00000   0.00000
   scf:   12    -2395.949445    -2395.949146    -2395.949146  0.002645 -3.043784  0.013789
     spin moment: S , {S} =    0.00000   0.00000  -0.00000   0.00000
   scf:   13    -2395.949321    -2395.949222    -2395.949222  0.001609 -3.043163  0.007670
     spin moment: S , {S} =    0.00000   0.00000  -0.00000   0.00000
   scf:   14    -2395.949284    -2395.949249    -2395.949249  0.000964 -3.043312  0.004511
     spin moment: S , {S} =    0.00000  -0.00000  -0.00000   0.00000
   scf:   15    -2395.949279    -2395.949261    -2395.949261  0.000829 -3.043145  0.001952
     spin moment: S , {S} =    0.00000  -0.00000  -0.00000  -0.00000
   scf:   16    -2395.949266    -2395.949263    -2395.949263  0.000235 -3.043012  0.001179
     spin moment: S , {S} =    0.00000  -0.00000  -0.00000  -0.00000
   scf:   17    -2395.949265    -2395.949264    -2395.949264  0.000133 -3.042943  0.000552
     spin moment: S , {S} =    0.00000  -0.00000  -0.00000  -0.00000
   scf:   18    -2395.949264    -2395.949264    -2395.949264  0.000039 -3.042948  0.000417
     spin moment: S , {S} =    0.00000  -0.00000  -0.00000   0.00000
   scf:   19    -2395.949264    -2395.949264    -2395.949264  0.000036 -3.042965  0.000263
     spin moment: S , {S} =    0.00000  -0.00000  -0.00000   0.00000
   scf:   20    -2395.949264    -2395.949264    -2395.949264  0.000014 -3.042968  0.000168
     spin moment: S , {S} =    0.00000  -0.00000  -0.00000   0.00000
   scf:   21    -2395.949264    -2395.949264    -2395.949264  0.000025 -3.042955  0.000063
     spin moment: S , {S} =    0.00000  -0.00000  -0.00000   0.00000
   scf:   22    -2395.949264    -2395.949264    -2395.949264  0.000006 -3.042951  0.000029
     spin moment: S , {S} =    0.00000  -0.00000  -0.00000   0.00000
   scf:   23    -2395.949264    -2395.949264    -2395.949264  0.000002 -3.042949  0.000020
     spin moment: S , {S} =    0.00000  -0.00000  -0.00000   0.00000
   scf:   24    -2395.949264    -2395.949264    -2395.949264  0.000002 -3.042950  0.000011
     spin moment: S , {S} =    0.00000  -0.00000  -0.00000   0.00000
mix: Pulay -- resetting history
   scf:   25    -2395.949264    -2395.949264    -2395.949264  0.000001 -3.042950  0.000007
     spin moment: S , {S} =    0.00000  -0.00000  -0.00000   0.00000
   scf:   26    -2395.949264    -2395.949264    -2395.949264  0.000001 -3.042951  0.000005
     spin moment: S , {S} =    0.00000  -0.00000  -0.00000   0.00000
   scf:   27    -2395.949264    -2395.949264    -2395.949264  0.000001 -3.042950  0.000003
     spin moment: S , {S} =    0.00000  -0.00000  -0.00000   0.00000
   scf:   28    -2395.949264    -2395.949264    -2395.949264  0.000000 -3.042950  0.000002
     spin moment: S , {S} =    0.00000  -0.00000  -0.00000   0.00000
   scf:   29    -2395.949264    -2395.949264    -2395.949264  0.000000 -3.042950  0.000001
     spin moment: S , {S} =    0.00000  -0.00000  -0.00000   0.00000
   scf:   30    -2395.949264    -2395.949264    -2395.949264  0.000000 -3.042950  0.000000
     spin moment: S , {S} =    0.00000  -0.00000  -0.00000   0.00000

SCF Convergence by DM+H criterion
max |DM_out - DM_in|         :     0.0000001476
max |H_out - H_in|      (eV) :     0.0000004773
SCF cycle converged after 30 iterations

Using DM_out to compute the final energy and forces
No. of atoms with KB's overlaping orbs in proc 0. Max # of overlaps:      16     142

siesta: E_KS(eV) =            -2395.9493

siesta: E_KS - E_eggbox =     -2395.9493
     spin moment: S , {S} =    0.00000  -0.00000  -0.00000   0.00000

siesta: Atomic forces (eV/Ang):
     1    3.973837    5.606430    0.000000
     2   -0.510531    1.043636   -0.000000
     3   -0.180955    0.230609   -0.000000
     4    0.091799   -1.205977    0.000000
     5    0.053978   -0.217691    0.000000
     6    0.271321   -0.044285    0.000000
     7    0.791719    0.166200    0.000000
     8   -0.323078    0.600513   -0.000000
     9   -0.946937   -1.326612    0.000000
    10    0.103495    0.176081   -0.000000
    11   -1.008692   -0.606896   -0.000000
    12    0.431629    0.339211   -0.000000
    13   -0.033044   -0.033670    0.000000
    14    0.159585   -0.788449   -0.000000
    15    0.619925    0.388971    0.000000
    16   -0.042308   -0.683751    0.000000
----------------------------------------
   Tot    3.451745    3.644322   -0.000000
----------------------------------------
   Max    5.606430
   Res    1.093609    sqrt( Sum f_i^2 / 3N )
----------------------------------------
   Max    5.606430    constrained

Stress tensor Voigt[x,y,z,yz,xz,xy] (kbar):       -6.07       -7.31       -0.09        0.00        0.00       -0.49
(Free)E + p*V (eV/cell)    -2388.7688
Target enthalpy (eV/cell)    -2395.9493

mulliken: Atomic and Orbital Populations:

Species: O                   

Atom      Orb        Charge      Spin       Svec
----------------------------------------------------------------
    1  1 2s         1.71401   0.00000     -0.000  -0.000  -0.000
    1  2 2s         0.07984   0.00000      0.000   0.000   0.000
    1  3 2py        1.45705   0.00000      0.000   0.000   0.000
    1  4 2pz        1.52480   0.00000      0.000  -0.000   0.000
    1  5 2px        1.60325   0.00000     -0.000  -0.000   0.000
    1  6 2py        0.04537   0.00000     -0.000  -0.000  -0.000
    1  7 2pz        0.00242   0.00000     -0.000   0.000  -0.000
    1  8 2px        0.01677   0.00000      0.000   0.000   0.000
    1  9 3Pdxy      0.00797   0.00000     -0.000  -0.000  -0.000
    1 10 3Pdyz      0.01055   0.00000      0.000  -0.000  -0.000
    1 11 3Pdz2      0.00151   0.00000     -0.000  -0.000  -0.000
    1 12 3Pdxz      0.00040   0.00000     -0.000   0.000  -0.000
    1 13 3Pdx2-y2   0.00733   0.00000     -0.000   0.000  -0.000
    1     Total     6.47129   0.00000      0.000  -0.000   0.000

----------------------------------------------------------------
Total               6.47129   0.00000      0.000  -0.000   0.000


Species: N                   

Atom      Orb        Charge      Spin       Svec
----------------------------------------------------------------
    2  1 2s         1.49195   0.00000      0.000  -0.000   0.000
    2  2 2s         0.10465   0.00000     -0.000   0.000   0.000
    2  3 2py        1.03449   0.00000      0.000  -0.000   0.000
    2  4 2pz        1.21487   0.00000      0.000  -0.000   0.000
    2  5 2px        0.98280   0.00000     -0.000  -0.000   0.000
    2  6 2py        0.20676   0.00000     -0.000   0.000  -0.000
    2  7 2pz        0.06203   0.00000      0.000   0.000  -0.000
    2  8 2px        0.21603   0.00000      0.000   0.000  -0.000
    2  9 3Pdxy      0.00894   0.00000      0.000   0.000   0.000
    2 10 3Pdyz      0.01129   0.00000     -0.000  -0.000  -0.000
    2 11 3Pdz2      0.00132   0.00000     -0.000   0.000  -0.000
    2 12 3Pdxz      0.00804   0.00000     -0.000   0.000  -0.000
    2 13 3Pdx2-y2   0.00814   0.00000     -0.000  -0.000  -0.000
    2     Total     5.35131   0.00000      0.000  -0.000   0.000

    3  1 2s         1.37570   0.00000      0.000   0.000   0.000
    3  2 2s         0.12523   0.00000      0.000  -0.000  -0.000
    3  3 2py        0.93680   0.00000      0.000   0.000   0.000
    3  4 2pz        1.53929   0.00000      0.000  -0.000   0.000
    3  5 2px        1.08424   0.00000      0.000  -0.000   0.000
    3  6 2py        0.26425   0.00000     -0.000  -0.000  -0.000
    3  7 2pz        0.00979   0.00000     -0.000   0.000   0.000
    3  8 2px        0.18399   0.00000     -0.000   0.000  -0.000
    3  9 3Pdxy      0.00311   0.00000      0.000  -0.000  -0.000
    3 10 3Pdyz      0.00418   0.00000      0.000  -0.000   0.000
    3 11 3Pdz2      0.00002   0.00000      0.000  -0.000   0.000
    3 12 3Pdxz      0.00292   0.00000      0.000  -0.000   0.000
    3 13 3Pdx2-y2   0.00263   0.00000     -0.000   0.000   0.000
    3     Total     5.53215   0.00000      0.000   0.000   0.000

    4  1 2s         1.40243   0.00000      0.000  -0.000  -0.000
    4  2 2s         0.14088   0.00000      0.000   0.000   0.000
    4  3 2py        1.11308   0.00000      0.000  -0.000   0.000
    4  4 2pz        1.28044   0.00000      0.000   0.000  -0.000
    4  5 2px        0.81833   0.00000      0.000   0.000   0.000
    4  6 2py        0.17114   0.00000      0.000   0.000  -0.000
    4  7 2pz        0.06245   0.00000     -0.000  -0.000  -0.000
    4  8 2px        0.31209   0.00000     -0.000  -0.000   0.000
    4  9 3Pdxy      0.00827   0.00000     -0.000  -0.000   0.000
    4 10 3Pdyz      0.01100   0.00000      0.000   0.000   0.000
    4 11 3Pdz2      0.00078   0.00000      0.000   0.000   0.000
    4 12 3Pdxz      0.00527   0.00000      0.000   0.000  -0.000
    4 13 3Pdx2-y2   0.00879   0.00000      0.000  -0.000   0.000
    4     Total     5.33495   0.00000      0.000  -0.000  -0.000

    5  1 2s         1.34660   0.00000     -0.000  -0.000   0.000
    5  2 2s         0.13921   0.00000      0.000   0.000  -0.000
    5  3 2py        1.03191   0.00000      0.000   0.000   0.000
    5  4 2pz        1.49827   0.00000      0.000  -0.000   0.000
    5  5 2px        1.04398   0.00000      0.000  -0.000   0.000
    5  6 2py        0.21037   0.00000      0.000  -0.000  -0.000
    5  7 2pz        0.01576   0.00000     -0.000   0.000  -0.000
    5  8 2px        0.21876   0.00000     -0.000   0.000  -0.000
    5  9 3Pdxy      0.00364   0.00000     -0.000  -0.000   0.000
    5 10 3Pdyz      0.00260   0.00000      0.000   0.000  -0.000
    5 11 3Pdz2      0.00111   0.00000     -0.000  -0.000  -0.000
    5 12 3Pdxz      0.00728   0.00000     -0.000  -0.000  -0.000
    5 13 3Pdx2-y2   0.00521   0.00000     -0.000   0.000  -0.000
    5     Total     5.52468   0.00000      0.000  -0.000   0.000

    6  1 2s         1.23905   0.00000      0.000  -0.000   0.000
    6  2 2s         0.19165   0.00000     -0.000   0.000  -0.000
    6  3 2py        1.09099   0.00000     -0.000   0.000  -0.000
    6  4 2pz        1.57213   0.00000     -0.000   0.000   0.000
    6  5 2px        0.96354   0.00000     -0.000  -0.000   0.000
    6  6 2py        0.18939   0.00000      0.000   0.000  -0.000
    6  7 2pz        0.03381   0.00000      0.000  -0.000   0.000
    6  8 2px        0.26642   0.00000     -0.000   0.000  -0.000
    6  9 3Pdxy      0.00250   0.00000      0.000  -0.000  -0.000
    6 10 3Pdyz      0.00005   0.00000      0.000  -0.000   0.000
    6 11 3Pdz2      0.00137   0.00000      0.000  -0.000  -0.000
    6 12 3Pdxz      0.00297   0.00000     -0.000  -0.000   0.000
    6 13 3Pdx2-y2   0.00230   0.00000     -0.000  -0.000   0.000
    6     Total     5.55617   0.00000      0.000  -0.000   0.000

----------------------------------------------------------------
Total              33.77055   0.00000      0.000  -0.000   0.000


Species: Si                  

Atom      Orb        Charge      Spin       Svec
----------------------------------------------------------------
    7  1 3s         0.65452   0.00000     -0.000  -0.000  -0.000
    7  2 3s         0.36912   0.00000      0.000   0.000   0.000
    7  3 3py        0.47716   0.00000      0.000  -0.000   0.000
    7  4 3pz        0.67221   0.00000      0.000   0.000   0.000
    7  5 3px        0.12700   0.00000      0.000   0.000  -0.000
    7  6 3py        0.27944   0.00000     -0.000   0.000  -0.000
    7  7 3pz        0.26851   0.00000     -0.000  -0.000  -0.000
    7  8 3px        0.43998   0.00000      0.000  -0.000  -0.000
    7  9 3Pdxy      0.25934   0.00000      0.000  -0.000  -0.000
    7 10 3Pdyz      0.03078   0.00000     -0.000  -0.000  -0.000
    7 11 3Pdz2      0.01017   0.00000     -0.000   0.000  -0.000
    7 12 3Pdxz      0.15114   0.00000      0.000   0.000   0.000
    7 13 3Pdx2-y2   0.11357   0.00000      0.000   0.000  -0.000
    7     Total     3.85294   0.00000      0.000  -0.000  -0.000

    8  1 3s         0.62363   0.00000      0.000   0.000   0.000
    8  2 3s         0.37799   0.00000     -0.000  -0.000  -0.000
    8  3 3py        0.38418   0.00000     -0.000   0.000  -0.000
    8  4 3pz        0.50847   0.00000     -0.000  -0.000  -0.000
    8  5 3px       -0.04298   0.00000      0.000  -0.000   0.000
    8  6 3py        0.31287   0.00000      0.000  -0.000   0.000
    8  7 3pz        0.21407   0.00000      0.000   0.000  -0.000
    8  8 3px        0.53586   0.00000     -0.000   0.000  -0.000
    8  9 3Pdxy      0.26333   0.00000      0.000  -0.000  -0.000
    8 10 3Pdyz      0.11033   0.00000      0.000  -0.000   0.000
    8 11 3Pdz2      0.01367   0.00000     -0.000   0.000  -0.000
    8 12 3Pdxz      0.16121   0.00000     -0.000  -0.000  -0.000
    8 13 3Pdx2-y2   0.19728   0.00000      0.000   0.000  -0.000
    8     Total     3.65991   0.00000      0.000  -0.000  -0.000

    9  1 3s         0.58080   0.00000     -0.000  -0.000  -0.000
    9  2 3s         0.36850   0.00000      0.000   0.000   0.000
    9  3 3py        0.07383   0.00000     -0.000   0.000   0.000
    9  4 3pz        0.46108   0.00000     -0.000   0.000   0.000
    9  5 3px        0.36110   0.00000     -0.000  -0.000   0.000
    9  6 3py        0.45162   0.00000      0.000  -0.000  -0.000
    9  7 3pz        0.20026   0.00000      0.000  -0.000   0.000
    9  8 3px        0.28566   0.00000     -0.000   0.000  -0.000
    9  9 3Pdxy      0.33056   0.00000      0.000  -0.000   0.000
    9 10 3Pdyz      0.20124   0.00000     -0.000  -0.000   0.000
    9 11 3Pdz2      0.01709   0.00000      0.000  -0.000  -0.000
    9 12 3Pdxz      0.09331   0.00000      0.000  -0.000   0.000
    9 13 3Pdx2-y2   0.17042   0.00000      0.000   0.000  -0.000
    9     Total     3.59547   0.00000     -0.000  -0.000   0.000

   10  1 3s         0.45657   0.00000     -0.000   0.000  -0.000
   10  2 3s         0.38316   0.00000      0.000  -0.000   0.000
   10  3 3py        0.25290   0.00000      0.000   0.000   0.000
   10  4 3pz        0.38665   0.00000     -0.000   0.000  -0.000
   10  5 3px        0.07545   0.00000     -0.000   0.000  -0.000
   10  6 3py        0.33536   0.00000     -0.000  -0.000  -0.000
   10  7 3pz        0.23714   0.00000     -0.000  -0.000  -0.000
   10  8 3px        0.45066   0.00000      0.000  -0.000   0.000
   10  9 3Pdxy      0.16929   0.00000      0.000  -0.000   0.000
   10 10 3Pdyz      0.15124   0.00000     -0.000   0.000  -0.000
   10 11 3Pdz2      0.01229   0.00000     -0.000  -0.000  -0.000
   10 12 3Pdxz      0.18233   0.00000     -0.000   0.000  -0.000
   10 13 3Pdx2-y2   0.33832   0.00000      0.000   0.000  -0.000
   10     Total     3.43136   0.00000     -0.000   0.000  -0.000

   11  1 3s         0.53656   0.00000     -0.000   0.000  -0.000
   11  2 3s         0.38785   0.00000      0.000   0.000   0.000
   11  3 3py        0.31890   0.00000     -0.000   0.000  -0.000
   11  4 3pz        0.51926   0.00000     -0.000   0.000  -0.000
   11  5 3px        0.12468   0.00000     -0.000  -0.000  -0.000
   11  6 3py        0.29591   0.00000      0.000  -0.000  -0.000
   11  7 3pz        0.18965   0.00000     -0.000   0.000  -0.000
   11  8 3px        0.45097   0.00000      0.000  -0.000  -0.000
   11  9 3Pdxy      0.24765   0.00000      0.000  -0.000  -0.000
   11 10 3Pdyz      0.12971   0.00000      0.000   0.000  -0.000
   11 11 3Pdz2      0.00916   0.00000     -0.000   0.000  -0.000
   11 12 3Pdxz      0.05666   0.00000     -0.000  -0.000  -0.000
   11 13 3Pdx2-y2   0.20337   0.00000      0.000  -0.000  -0.000
   11     Total     3.47034   0.00000     -0.000   0.000  -0.000

----------------------------------------------------------------
Total              51.78058   0.00000      0.000  -0.000  -0.000


Species: H                   

Atom      Orb        Charge      Spin       Svec
----------------------------------------------------------------
   12  1 1s         0.47981   0.00000     -0.000  -0.000   0.000
   12  2 1s         0.19336   0.00000      0.000   0.000   0.000
   12  3 2Ppy       0.02947   0.00000     -0.000   0.000  -0.000
   12  4 2Ppz       0.03597   0.00000     -0.000  -0.000   0.000
   12  5 2Ppx       0.02263   0.00000      0.000  -0.000  -0.000
   12     Total     0.76124   0.00000     -0.000  -0.000   0.000

   13  1 1s         1.01913   0.00000     -0.000   0.000   0.000
   13  2 1s         0.09682   0.00000      0.000  -0.000  -0.000
   13  3 2Ppy       0.01801   0.00000     -0.000   0.000   0.000
   13  4 2Ppz       0.02034   0.00000     -0.000   0.000  -0.000
   13  5 2Ppx       0.03370   0.00000     -0.000   0.000  -0.000
   13     Total     1.18801   0.00000     -0.000   0.000   0.000

   14  1 1s         0.44930   0.00000     -0.000   0.000   0.000
   14  2 1s         0.20870   0.00000      0.000   0.000   0.000
   14  3 2Ppy       0.01632   0.00000      0.000   0.000  -0.000
   14  4 2Ppz       0.04699   0.00000      0.000  -0.000   0.000
   14  5 2Ppx       0.01871   0.00000      0.000   0.000   0.000
   14     Total     0.74002   0.00000     -0.000   0.000   0.000

   15  1 1s         0.46551   0.00000      0.000   0.000  -0.000
   15  2 1s         0.20478   0.00000     -0.000  -0.000   0.000
   15  3 2Ppy       0.00580   0.00000     -0.000   0.000  -0.000
   15  4 2Ppz       0.05095   0.00000      0.000   0.000   0.000
   15  5 2Ppx       0.02825   0.00000     -0.000   0.000   0.000
   15     Total     0.75530   0.00000     -0.000   0.000   0.000

   16  1 1s         0.48812   0.00000     -0.000  -0.000   0.000
   16  2 1s         0.19676   0.00000      0.000  -0.000  -0.000
   16  3 2Ppy       0.02802   0.00000     -0.000   0.000  -0.000
   16  4 2Ppz       0.03787   0.00000     -0.000   0.000   0.000
   16  5 2Ppx       0.02409   0.00000     -0.000   0.000   0.000
   16     Total     0.77486   0.00000     -0.000   0.000   0.000

----------------------------------------------------------------
Total              56.00000   0.00000     -0.000  -0.000   0.000


                     ====================================
                        Begin CG opt. move =      1
                     ====================================

outcoor: Atomic coordinates (Ang):                          
    1.02876351    3.96267480    0.00000000   1       1  O
   -3.09383439    0.83851662   -0.00000000   2       2  N
    1.91878412    1.08503892   -0.00000000   2       3  N
    0.98167877   -1.87852347    0.00000000   2       4  N
   -2.12821474   -2.01495243    0.00000000   2       5  N
    3.77846793   -1.09210947    0.00000000   2       6  N
   -1.28781899    0.93910465    0.00000000   3       7  Si
   -0.58614524   -1.10468178   -0.00000000   3       8  Si
    0.46196119    2.17985900    0.00000000   3       9  Si
    2.13154887   -0.62655708   -0.00000000   3      10  Si
   -3.48306801   -0.84697496   -0.00000000   3      11  Si
    2.82273430    1.66024102   -0.00000000   4      12  H
   -4.82705439   -1.38878816    0.00000000   4      13  H
    4.04614173   -2.11571151   -0.00000000   4      14  H
    4.58864184   -0.41843674    0.00000000   4      15  H
   -2.28292618   -3.06288201    0.00000000   4      16  H

outcell: Unit cell vectors (Ang):
       17.917409    0.000000    0.000000
        0.000000   14.516648    0.000000
        0.000000    0.000000    9.854683

outcell: Cell vector modules (Ang)   :   17.917409   14.516648    9.854683
outcell: Cell angles (23,13,12) (deg):     90.0000     90.0000     90.0000
outcell: Cell volume (Ang**3)        :   2563.2101
<dSpData1D:S at geom step 1
  <sparsity:sparsity for geom step 1
    nrows_g=168 nrows=48 sparsity=.2653 nnzs=7487, refcount: 8>
  <dData1D:(new from dSpData1D) n=7487, refcount: 1>
refcount: 1>
new_DM -- step:     2
Re-using DM from previous geometries...
Number of DMs in history: 1
 DM extrapolation coefficients: 
1   1.00000
New DM after history re-use:
<dSpData2D:SpM extrapolated using coords
  <sparsity:sparsity for geom step 1
    nrows_g=168 nrows=48 sparsity=.2653 nnzs=7487, refcount: 10>
  <dData2D:(temp array for extrapolation) n=7487 m=8, refcount: 1>
refcount: 1>
     spin moment: S , {S} =    0.00000   0.00000  -0.00000   0.00000
Note: For starting DM, Qtot, Tr[D*S] =         56.00000000         55.68913152
No. of atoms with KB's overlaping orbs in proc 0. Max # of overlaps:      16     142
New grid distribution:   1
           1       1:  100    1:   41    1:   20
           2       1:  100    1:   41   21:   40
           3       1:  100    1:   41   41:   60
           4       1:  100   42:   81    1:   20
           5       1:  100   42:   81   21:   40
           6       1:  100   42:   81   41:   60

InitMesh: MESH =   200 x   162 x   120 =     3888000
InitMesh: (bp) =   100 x    81 x    60 =      486000
InitMesh: Mesh cutoff (required, used) =   340.000   344.191 Ry
ExtMesh (bp) on 0 =   204 x   141 x   132 =     3796848
New grid distribution:   2
           1       1:   62    1:   12    1:   60
           2      63:  100    1:   13    1:   60
           3      63:  100   14:   81   22:   60
           4       1:   62   13:   81    1:   19
           5       1:   62   13:   81   20:   60
           6      63:  100   14:   81    1:   21
New grid distribution:   3
           1       1:   59    1:   19    1:   60
           2      60:  100   20:   81    1:   26
           3      60:  100    1:   19    1:   60
           4       1:   59   20:   81    1:   26
           5      60:  100   20:   81   27:   60
           6       1:   59   20:   81   27:   60
Setting up quadratic distribution...
ExtMesh (bp) on 0 =   166 x   112 x   172 =     3197824
PhiOnMesh: Number of (b)points on node 0 =                44640
PhiOnMesh: nlist on node 0 =               788557

        iscf     Eharris(eV)        E_KS(eV)     FreeEng(eV)     dDmax    Ef(eV) dHmax(eV)
   scf:    1    -2386.490183    -2391.941420    -2391.941420  0.181857 -3.836662  9.595292
     spin moment: S , {S} =    0.00000   0.00000   0.00000   0.00000
   scf:    2    -1406.180073    -2071.803858    -2071.809299  0.850023 -3.327358108.392755
     spin moment: S , {S} =    0.00000  -0.00000  -0.00000  -0.00000
   scf:    3    -2388.625431    -2394.078441    -2394.078441  0.823008 -3.823950  6.676473
     spin moment: S , {S} =    0.00000  -0.00000   0.00000   0.00000
   scf:    4    -2395.015694    -2394.595765    -2394.595765  0.028415 -3.878926  4.168272
     spin moment: S , {S} =    0.00000  -0.00000  -0.00000   0.00000
   scf:    5    -2394.983644    -2394.806569    -2394.806569  0.017661 -3.890074  2.763821
     spin moment: S , {S} =    0.00000  -0.00000  -0.00000   0.00000
   scf:    6    -2395.049211    -2394.964809    -2394.964809  0.029507 -3.888983  0.648909
     spin moment: S , {S} =    0.00000  -0.00000  -0.00000  -0.00000
   scf:    7    -2394.981743    -2394.976095    -2394.976095  0.009909 -3.887666  0.123008
     spin moment: S , {S} =    0.00000  -0.00000   0.00000  -0.00000
   scf:    8    -2394.976898    -2394.976525    -2394.976525  0.001728 -3.887376  0.087692
     spin moment: S , {S} =    0.00000  -0.00000   0.00000  -0.00000
   scf:    9    -2394.976690    -2394.976696    -2394.976696  0.001858 -3.888344  0.028834
     spin moment: S , {S} =    0.00000  -0.00000   0.00000  -0.00000
   scf:   10    -2394.976725    -2394.976716    -2394.976716  0.000179 -3.888045  0.004144
     spin moment: S , {S} =    0.00000  -0.00000   0.00000  -0.00000
   scf:   11    -2394.976723    -2394.976720    -2394.976720  0.000205 -3.887997  0.001677
     spin moment: S , {S} =    0.00000  -0.00000   0.00000  -0.00000
   scf:   12    -2394.976720    -2394.976720    -2394.976720  0.000085 -3.887866  0.001109
     spin moment: S , {S} =    0.00000  -0.00000   0.00000  -0.00000
   scf:   13    -2394.976720    -2394.976720    -2394.976720  0.000030 -3.887817  0.000430
     spin moment: S , {S} =    0.00000  -0.00000   0.00000  -0.00000
   scf:   14    -2394.976720    -2394.976720    -2394.976720  0.000020 -3.887812  0.000179
     spin moment: S , {S} =    0.00000  -0.00000   0.00000  -0.00000
   scf:   15    -2394.976720    -2394.976720    -2394.976720  0.000006 -3.887828  0.000064
     spin moment: S , {S} =    0.00000  -0.00000   0.00000  -0.00000
   scf:   16    -2394.976720    -2394.976720    -2394.976720  0.000004 -3.887839  0.000013
     spin moment: S , {S} =    0.00000  -0.00000   0.00000  -0.00000
   scf:   17    -2394.976720    -2394.976720    -2394.976720  0.000000 -3.887842  0.000006
     spin moment: S , {S} =    0.00000  -0.00000   0.00000  -0.00000
   scf:   18    -2394.976720    -2394.976720    -2394.976720  0.000000 -3.887843  0.000001
     spin moment: S , {S} =    0.00000  -0.00000   0.00000  -0.00000
   scf:   19    -2394.976720    -2394.976720    -2394.976720  0.000000 -3.887843  0.000001
     spin moment: S , {S} =    0.00000  -0.00000   0.00000  -0.00000
   scf:   20    -2394.976720    -2394.976720    -2394.976720  0.000000 -3.887843  0.000001
     spin moment: S , {S} =    0.00000  -0.00000   0.00000  -0.00000

SCF Convergence by DM+H criterion
max |DM_out - DM_in|         :     0.0000000462
max |H_out - H_in|      (eV) :     0.0000007603
SCF cycle converged after 20 iterations

Using DM_out to compute the final energy and forces
No. of atoms with KB's overlaping orbs in proc 0. Max # of overlaps:      16     142

siesta: E_KS(eV) =            -2394.9767
     spin moment: S , {S} =    0.00000  -0.00000   0.00000  -0.00000

siesta: Atomic forces (eV/Ang):
     1   -2.016366   -9.923376   -0.000000
     2   -0.163584   -0.519138    0.000000
     3    0.670761    0.252325    0.000000
     4   -0.271028    0.044052   -0.000000
     5   -0.452491   -0.493555    0.000000
     6    0.887793   -0.384947    0.000000
     7   -1.576724   -0.222547   -0.000000
     8    0.739953   -0.715690    0.000000
     9    2.491138    6.820471   -0.000000
    10   -0.297751   -0.570141    0.000000
    11    0.847756    1.275933   -0.000000
    12   -0.377281    0.062551   -0.000000
    13   -0.812975   -0.362779    0.000000
    14   -0.060939    0.207169    0.000000
    15   -0.095392   -0.170098   -0.000000
    16    0.167742    0.074564   -0.000000
----------------------------------------
   Tot   -0.319388   -4.625204    0.000000
----------------------------------------
   Max    9.923376
   Res    1.853749    sqrt( Sum f_i^2 / 3N )
----------------------------------------
   Max    9.923376    constrained

Stress tensor Voigt[x,y,z,yz,xz,xy] (kbar):       -2.94        3.25       -0.10       -0.00        0.00        2.11
(Free)E + p*V (eV/cell)    -2395.0917
Target enthalpy (eV/cell)    -2394.9767

mulliken: Atomic and Orbital Populations:

Species: O                   

Atom      Orb        Charge      Spin       Svec
----------------------------------------------------------------
    1  1 2s         1.85980   0.00000     -0.000   0.000  -0.000
    1  2 2s         0.01993   0.00000      0.000  -0.000   0.000
    1  3 2py        1.34440   0.00000      0.000   0.000   0.000
    1  4 2pz        1.59756   0.00000      0.000   0.000   0.000
    1  5 2px        1.67835   0.00000      0.000  -0.000  -0.000
    1  6 2py        0.00986   0.00000     -0.000   0.000  -0.000
    1  7 2pz       -0.02931   0.00000     -0.000   0.000   0.000
    1  8 2px       -0.02298   0.00000     -0.000   0.000   0.000
    1  9 3Pdxy      0.00450   0.00000     -0.000   0.000  -0.000
    1 10 3Pdyz      0.00496   0.00000      0.000  -0.000  -0.000
    1 11 3Pdz2      0.00147   0.00000     -0.000   0.000  -0.000
    1 12 3Pdxz      0.00031   0.00000      0.000  -0.000  -0.000
    1 13 3Pdx2-y2   0.00483   0.00000      0.000   0.000  -0.000
    1     Total     6.47367   0.00000      0.000   0.000   0.000

----------------------------------------------------------------
Total               6.47367   0.00000      0.000   0.000   0.000


Species: N                   

Atom      Orb        Charge      Spin       Svec
----------------------------------------------------------------
    2  1 2s         1.56748   0.00000      0.000   0.000  -0.000
    2  2 2s         0.07846   0.00000     -0.000  -0.000   0.000
    2  3 2py        1.04003   0.00000      0.000   0.000  -0.000
    2  4 2pz        1.22386   0.00000      0.000  -0.000   0.000
    2  5 2px        1.00098   0.00000     -0.000   0.000  -0.000
    2  6 2py        0.18547   0.00000     -0.000   0.000  -0.000
    2  7 2pz        0.05303   0.00000     -0.000   0.000   0.000
    2  8 2px        0.18837   0.00000      0.000  -0.000   0.000
    2  9 3Pdxy      0.00829   0.00000     -0.000  -0.000   0.000
    2 10 3Pdyz      0.01060   0.00000     -0.000   0.000  -0.000
    2 11 3Pdz2      0.00203   0.00000     -0.000   0.000  -0.000
    2 12 3Pdxz      0.00748   0.00000     -0.000   0.000   0.000
    2 13 3Pdx2-y2   0.00897   0.00000     -0.000  -0.000  -0.000
    2     Total     5.37506   0.00000      0.000   0.000  -0.000

    3  1 2s         1.37782   0.00000      0.000  -0.000  -0.000
    3  2 2s         0.12388   0.00000     -0.000   0.000   0.000
    3  3 2py        0.93429   0.00000      0.000   0.000   0.000
    3  4 2pz        1.53713   0.00000     -0.000  -0.000   0.000
    3  5 2px        1.07667   0.00000      0.000  -0.000   0.000
    3  6 2py        0.26283   0.00000     -0.000  -0.000  -0.000
    3  7 2pz        0.00906   0.00000      0.000  -0.000  -0.000
    3  8 2px        0.18373   0.00000     -0.000   0.000  -0.000
    3  9 3Pdxy      0.00422   0.00000      0.000  -0.000   0.000
    3 10 3Pdyz      0.00465   0.00000      0.000  -0.000  -0.000
    3 11 3Pdz2      0.00105   0.00000     -0.000   0.000   0.000
    3 12 3Pdxz      0.00330   0.00000      0.000   0.000  -0.000
    3 13 3Pdx2-y2   0.00371   0.00000     -0.000  -0.000  -0.000
    3     Total     5.52234   0.00000      0.000  -0.000   0.000

    4  1 2s         1.47351   0.00000      0.000   0.000  -0.000
    4  2 2s         0.11533   0.00000     -0.000  -0.000   0.000
    4  3 2py        1.09228   0.00000     -0.000  -0.000  -0.000
    4  4 2pz        1.28265   0.00000     -0.000  -0.000  -0.000
    4  5 2px        0.83989   0.00000      0.000  -0.000   0.000
    4  6 2py        0.16257   0.00000      0.000   0.000   0.000
    4  7 2pz        0.05665   0.00000      0.000   0.000   0.000
    4  8 2px        0.28614   0.00000     -0.000   0.000   0.000
    4  9 3Pdxy      0.00867   0.00000     -0.000   0.000   0.000
    4 10 3Pdyz      0.01132   0.00000     -0.000  -0.000  -0.000
    4 11 3Pdz2      0.00123   0.00000     -0.000  -0.000   0.000
    4 12 3Pdxz      0.00469   0.00000     -0.000  -0.000  -0.000
    4 13 3Pdx2-y2   0.00849   0.00000     -0.000   0.000  -0.000
    4     Total     5.34342   0.00000      0.000  -0.000  -0.000

    5  1 2s         1.36034   0.00000     -0.000  -0.000  -0.000
    5  2 2s         0.13444   0.00000      0.000   0.000   0.000
    5  3 2py        1.02882   0.00000      0.000  -0.000   0.000
    5  4 2pz        1.49866   0.00000      0.000   0.000   0.000
    5  5 2px        1.04803   0.00000      0.000   0.000   0.000
    5  6 2py        0.20548   0.00000     -0.000   0.000   0.000
    5  7 2pz        0.01392   0.00000     -0.000  -0.000  -0.000
    5  8 2px        0.21301   0.00000     -0.000   0.000  -0.000
    5  9 3Pdxy      0.00370   0.00000     -0.000  -0.000   0.000
    5 10 3Pdyz      0.00270   0.00000     -0.000  -0.000   0.000
    5 11 3Pdz2      0.00135   0.00000     -0.000   0.000  -0.000
    5 12 3Pdxz      0.00685   0.00000      0.000  -0.000  -0.000
    5 13 3Pdx2-y2   0.00539   0.00000     -0.000   0.000  -0.000
    5     Total     5.52267   0.00000      0.000   0.000   0.000

    6  1 2s         1.25758   0.00000     -0.000   0.000  -0.000
    6  2 2s         0.18373   0.00000      0.000  -0.000   0.000
    6  3 2py        1.08083   0.00000      0.000  -0.000   0.000
    6  4 2pz        1.57485   0.00000     -0.000   0.000   0.000
    6  5 2px        0.95991   0.00000      0.000   0.000  -0.000
    6  6 2py        0.18510   0.00000     -0.000   0.000  -0.000
    6  7 2pz        0.03147   0.00000     -0.000  -0.000  -0.000
    6  8 2px        0.26157   0.00000     -0.000  -0.000  -0.000
    6  9 3Pdxy      0.00305   0.00000      0.000  -0.000   0.000
    6 10 3Pdyz      0.00008   0.00000     -0.000   0.000  -0.000
    6 11 3Pdz2      0.00159   0.00000     -0.000   0.000  -0.000
    6 12 3Pdxz      0.00305   0.00000      0.000  -0.000  -0.000
    6 13 3Pdx2-y2   0.00279   0.00000      0.000   0.000   0.000
    6     Total     5.54560   0.00000     -0.000   0.000  -0.000

----------------------------------------------------------------
Total              33.78275   0.00000      0.000   0.000   0.000


Species: Si                  

Atom      Orb        Charge      Spin       Svec
----------------------------------------------------------------
    7  1 3s         0.62710   0.00000     -0.000  -0.000  -0.000
    7  2 3s         0.38158   0.00000      0.000   0.000   0.000
    7  3 3py        0.44650   0.00000      0.000   0.000   0.000
    7  4 3pz        0.63047   0.00000      0.000   0.000  -0.000
    7  5 3px        0.11015   0.00000     -0.000  -0.000  -0.000
    7  6 3py        0.29796   0.00000     -0.000  -0.000  -0.000
    7  7 3pz        0.29112   0.00000      0.000  -0.000   0.000
    7  8 3px        0.45449   0.00000      0.000   0.000   0.000
    7  9 3Pdxy      0.25241   0.00000      0.000   0.000   0.000
    7 10 3Pdyz      0.03511   0.00000     -0.000  -0.000   0.000
    7 11 3Pdz2      0.01140   0.00000     -0.000   0.000   0.000
    7 12 3Pdxz      0.15573   0.00000      0.000   0.000   0.000
    7 13 3Pdx2-y2   0.11633   0.00000     -0.000   0.000   0.000
    7     Total     3.81035   0.00000     -0.000   0.000   0.000

    8  1 3s         0.62321   0.00000      0.000  -0.000   0.000
    8  2 3s         0.38514   0.00000     -0.000   0.000  -0.000
    8  3 3py        0.37679   0.00000     -0.000  -0.000  -0.000
    8  4 3pz        0.49028   0.00000     -0.000   0.000   0.000
    8  5 3px       -0.03885   0.00000      0.000  -0.000  -0.000
    8  6 3py        0.32062   0.00000      0.000   0.000   0.000
    8  7 3pz        0.21566   0.00000      0.000   0.000  -0.000
    8  8 3px        0.52861   0.00000     -0.000   0.000   0.000
    8  9 3Pdxy      0.26233   0.00000     -0.000   0.000   0.000
    8 10 3Pdyz      0.11596   0.00000      0.000   0.000   0.000
    8 11 3Pdz2      0.01397   0.00000      0.000  -0.000  -0.000
    8 12 3Pdxz      0.15698   0.00000      0.000   0.000  -0.000
    8 13 3Pdx2-y2   0.19585   0.00000      0.000  -0.000  -0.000
    8     Total     3.64654   0.00000      0.000  -0.000   0.000

    9  1 3s         0.73160   0.00000     -0.000   0.000  -0.000
    9  2 3s         0.33360   0.00000     -0.000  -0.000   0.000
    9  3 3py        0.12552   0.00000      0.000  -0.000  -0.000
    9  4 3pz        0.55603   0.00000     -0.000  -0.000  -0.000
    9  5 3px        0.43506   0.00000      0.000  -0.000   0.000
    9  6 3py        0.40944   0.00000     -0.000   0.000  -0.000
    9  7 3pz        0.15778   0.00000      0.000   0.000   0.000
    9  8 3px        0.24070   0.00000     -0.000   0.000  -0.000
    9  9 3Pdxy      0.25649   0.00000      0.000  -0.000   0.000
    9 10 3Pdyz      0.15979   0.00000     -0.000   0.000  -0.000
    9 11 3Pdz2      0.01530   0.00000      0.000   0.000   0.000
    9 12 3Pdxz      0.10069   0.00000      0.000  -0.000  -0.000
    9 13 3Pdx2-y2   0.15147   0.00000     -0.000  -0.000  -0.000
    9     Total     3.67348   0.00000      0.000  -0.000   0.000

   10  1 3s         0.47353   0.00000      0.000   0.000   0.000
   10  2 3s         0.38142   0.00000     -0.000  -0.000  -0.000
   10  3 3py        0.24006   0.00000      0.000   0.000  -0.000
   10  4 3pz        0.39463   0.00000      0.000   0.000  -0.000
   10  5 3px        0.07804   0.00000     -0.000   0.000  -0.000
   10  6 3py        0.33968   0.00000     -0.000  -0.000   0.000
   10  7 3pz        0.23019   0.00000     -0.000  -0.000   0.000
   10  8 3px        0.44424   0.00000      0.000  -0.000   0.000
   10  9 3Pdxy      0.16700   0.00000      0.000   0.000   0.000
   10 10 3Pdyz      0.14968   0.00000      0.000  -0.000   0.000
   10 11 3Pdz2      0.01251   0.00000     -0.000   0.000  -0.000
   10 12 3Pdxz      0.17936   0.00000     -0.000  -0.000   0.000
   10 13 3Pdx2-y2   0.33111   0.00000     -0.000   0.000  -0.000
   10     Total     3.42145   0.00000     -0.000   0.000  -0.000

   11  1 3s         0.54172   0.00000     -0.000   0.000  -0.000
   11  2 3s         0.39283   0.00000      0.000  -0.000   0.000
   11  3 3py        0.31350   0.00000     -0.000   0.000  -0.000
   11  4 3pz        0.53327   0.00000     -0.000   0.000  -0.000
   11  5 3px        0.12475   0.00000     -0.000   0.000   0.000
   11  6 3py        0.29370   0.00000      0.000  -0.000   0.000
   11  7 3pz        0.17840   0.00000      0.000  -0.000  -0.000
   11  8 3px        0.45527   0.00000      0.000  -0.000  -0.000
   11  9 3Pdxy      0.22858   0.00000      0.000   0.000   0.000
   11 10 3Pdyz      0.12119   0.00000     -0.000   0.000   0.000
   11 11 3Pdz2      0.01056   0.00000      0.000   0.000  -0.000
   11 12 3Pdxz      0.05305   0.00000     -0.000  -0.000  -0.000
   11 13 3Pdx2-y2   0.19271   0.00000     -0.000   0.000  -0.000
   11     Total     3.43954   0.00000     -0.000   0.000  -0.000

----------------------------------------------------------------
Total              51.77411   0.00000      0.000   0.000  -0.000


Species: H                   

Atom      Orb        Charge      Spin       Svec
----------------------------------------------------------------
   12  1 1s         0.48809   0.00000     -0.000   0.000   0.000
   12  2 1s         0.18470   0.00000      0.000  -0.000  -0.000
   12  3 2Ppy       0.03133   0.00000      0.000  -0.000   0.000
   12  4 2Ppz       0.03268   0.00000     -0.000  -0.000   0.000
   12  5 2Ppx       0.02268   0.00000     -0.000  -0.000   0.000
   12     Total     0.75948   0.00000     -0.000   0.000   0.000

   13  1 1s         1.00349   0.00000      0.000  -0.000   0.000
   13  2 1s         0.10576   0.00000     -0.000   0.000   0.000
   13  3 2Ppy       0.01949   0.00000      0.000  -0.000   0.000
   13  4 2Ppz       0.02131   0.00000     -0.000  -0.000   0.000
   13  5 2Ppx       0.03331   0.00000      0.000  -0.000  -0.000
   13     Total     1.18336   0.00000      0.000  -0.000   0.000

   14  1 1s         0.46778   0.00000      0.000  -0.000  -0.000
   14  2 1s         0.19670   0.00000     -0.000   0.000   0.000
   14  3 2Ppy       0.01701   0.00000      0.000  -0.000  -0.000
   14  4 2Ppz       0.04505   0.00000      0.000   0.000  -0.000
   14  5 2Ppx       0.01831   0.00000      0.000   0.000   0.000
   14     Total     0.74485   0.00000      0.000  -0.000  -0.000

   15  1 1s         0.48196   0.00000     -0.000  -0.000  -0.000
   15  2 1s         0.19488   0.00000      0.000  -0.000   0.000
   15  3 2Ppy       0.00622   0.00000     -0.000   0.000  -0.000
   15  4 2Ppz       0.04947   0.00000     -0.000   0.000  -0.000
   15  5 2Ppx       0.02810   0.00000      0.000  -0.000   0.000
   15     Total     0.76063   0.00000     -0.000  -0.000  -0.000

   16  1 1s         0.50050   0.00000     -0.000   0.000   0.000
   16  2 1s         0.18855   0.00000      0.000  -0.000  -0.000
   16  3 2Ppy       0.02865   0.00000      0.000   0.000   0.000
   16  4 2Ppz       0.03662   0.00000     -0.000   0.000  -0.000
   16  5 2Ppx       0.02324   0.00000     -0.000  -0.000   0.000
   16     Total     0.77756   0.00000     -0.000   0.000   0.000

----------------------------------------------------------------
Total              56.00000   0.00000     -0.000   0.000  -0.000


                     ====================================
                        Begin CG opt. move =      2
                     ====================================

outcoor: Atomic coordinates (Ang):                          
    0.93740266    3.83377967    0.00000000   1       1  O
   -3.08209699    0.81452282   -0.00000000   2       2  N
    1.92294438    1.07973709   -0.00000000   2       3  N
    0.97956825   -1.85079736    0.00000000   2       4  N
   -2.12945573   -2.00994760    0.00000000   2       5  N
    3.77223009   -1.09109132    0.00000000   2       6  N
   -1.30602108    0.93528362    0.00000000   3       7  Si
   -0.57871748   -1.11848792   -0.00000000   3       8  Si
    0.48373181    2.21035858    0.00000000   3       9  Si
    2.12916946   -0.63060530   -0.00000000   3      10  Si
   -3.45987759   -0.83302206   -0.00000000   3      11  Si
    2.81281089    1.65244235   -0.00000000   4      12  H
   -4.82629468   -1.38801407    0.00000000   4      13  H
    4.04247279   -2.09758461   -0.00000000   4      14  H
    4.57438940   -0.42737942    0.00000000   4      15  H
   -2.28195349   -3.04716218    0.00000000   4      16  H

outcell: Unit cell vectors (Ang):
       17.917409    0.000000    0.000000
        0.000000   14.516648    0.000000
        0.000000    0.000000    9.854683

outcell: Cell vector modules (Ang)   :   17.917409   14.516648    9.854683
outcell: Cell angles (23,13,12) (deg):     90.0000     90.0000     90.0000
outcell: Cell volume (Ang**3)        :   2563.2101
<dSpData1D:S at geom step 2
  <sparsity:sparsity for geom step 2
    nrows_g=168 nrows=48 sparsity=.2653 nnzs=7487, refcount: 8>
  <dData1D:(new from dSpData1D) n=7487, refcount: 1>
refcount: 1>
new_DM -- step:     3
Re-using DM from previous geometries...
Number of DMs in history: 1
 DM extrapolation coefficients: 
1   1.00000
New DM after history re-use:
<dSpData2D:SpM extrapolated using coords
  <sparsity:sparsity for geom step 2
    nrows_g=168 nrows=48 sparsity=.2653 nnzs=7487, refcount: 10>
[...]
    1  3 2py        1.42327   0.00000      0.000   0.000   0.000
    1  4 2pz        1.53949   0.00000     -0.000   0.000   0.000
    1  5 2px        1.61282   0.00000      0.000   0.000  -0.000
    1  6 2py        0.04303   0.00000     -0.000  -0.000  -0.000
    1  7 2pz       -0.00146   0.00000     -0.000   0.000  -0.000
    1  8 2px        0.00938   0.00000     -0.000   0.000   0.000
    1  9 3Pdxy      0.00757   0.00000     -0.000  -0.000   0.000
    1 10 3Pdyz      0.00954   0.00000      0.000  -0.000  -0.000
    1 11 3Pdz2      0.00173   0.00000      0.000  -0.000  -0.000
    1 12 3Pdxz      0.00043   0.00000     -0.000  -0.000   0.000
    1 13 3Pdx2-y2   0.00719   0.00000      0.000  -0.000  -0.000
    1     Total     6.46624   0.00000      0.000   0.000  -0.000

----------------------------------------------------------------
Total               6.46624   0.00000      0.000   0.000  -0.000


Species: N                   

Atom      Orb        Charge      Spin       Svec
----------------------------------------------------------------
    2  1 2s         1.54933   0.00000     -0.000   0.000  -0.000
    2  2 2s         0.08441   0.00000      0.000  -0.000   0.000
    2  3 2py        1.03278   0.00000      0.000   0.000   0.000
    2  4 2pz        1.22555   0.00000      0.000  -0.000   0.000
    2  5 2px        1.00504   0.00000     -0.000  -0.000  -0.000
    2  6 2py        0.19249   0.00000     -0.000  -0.000  -0.000
    2  7 2pz        0.05442   0.00000      0.000  -0.000  -0.000
    2  8 2px        0.19046   0.00000      0.000   0.000   0.000
    2  9 3Pdxy      0.00841   0.00000      0.000  -0.000   0.000
    2 10 3Pdyz      0.01078   0.00000     -0.000   0.000  -0.000
    2 11 3Pdz2      0.00196   0.00000      0.000   0.000  -0.000
    2 12 3Pdxz      0.00751   0.00000      0.000   0.000   0.000
    2 13 3Pdx2-y2   0.00891   0.00000     -0.000  -0.000  -0.000
    2     Total     5.37204   0.00000      0.000  -0.000   0.000

    3  1 2s         1.40803   0.00000      0.000   0.000   0.000
    3  2 2s         0.11398   0.00000     -0.000  -0.000  -0.000
    3  3 2py        0.93941   0.00000      0.000  -0.000   0.000
    3  4 2pz        1.53799   0.00000      0.000   0.000  -0.000
    3  5 2px        1.09347   0.00000      0.000   0.000   0.000
    3  6 2py        0.24827   0.00000     -0.000   0.000  -0.000
    3  7 2pz        0.00931   0.00000     -0.000  -0.000   0.000
    3  8 2px        0.17054   0.00000     -0.000  -0.000  -0.000
    3  9 3Pdxy      0.00435   0.00000      0.000  -0.000   0.000
    3 10 3Pdyz      0.00419   0.00000     -0.000  -0.000  -0.000
    3 11 3Pdz2      0.00083   0.00000     -0.000   0.000   0.000
    3 12 3Pdxz      0.00271   0.00000     -0.000   0.000  -0.000
    3 13 3Pdx2-y2   0.00310   0.00000     -0.000   0.000   0.000
    3     Total     5.53619   0.00000      0.000   0.000   0.000

    4  1 2s         1.47145   0.00000      0.000  -0.000   0.000
    4  2 2s         0.11588   0.00000     -0.000  -0.000  -0.000
    4  3 2py        1.09891   0.00000      0.000   0.000  -0.000
    4  4 2pz        1.28852   0.00000     -0.000  -0.000  -0.000
    4  5 2px        0.84069   0.00000     -0.000  -0.000  -0.000
    4  6 2py        0.15821   0.00000      0.000  -0.000   0.000
    4  7 2pz        0.05503   0.00000     -0.000   0.000   0.000
    4  8 2px        0.28717   0.00000      0.000  -0.000   0.000
    4  9 3Pdxy      0.00860   0.00000      0.000   0.000   0.000
    4 10 3Pdyz      0.01099   0.00000      0.000   0.000   0.000
    4 11 3Pdz2      0.00134   0.00000      0.000   0.000  -0.000
    4 12 3Pdxz      0.00493   0.00000     -0.000  -0.000   0.000
    4 13 3Pdx2-y2   0.00864   0.00000     -0.000   0.000  -0.000
    4     Total     5.35037   0.00000     -0.000  -0.000  -0.000

    5  1 2s         1.37340   0.00000      0.000   0.000   0.000
    5  2 2s         0.12920   0.00000     -0.000  -0.000  -0.000
    5  3 2py        1.02915   0.00000      0.000   0.000   0.000
    5  4 2pz        1.49982   0.00000      0.000  -0.000   0.000
    5  5 2px        1.05750   0.00000      0.000   0.000   0.000
    5  6 2py        0.20323   0.00000     -0.000  -0.000  -0.000
    5  7 2pz        0.01345   0.00000     -0.000   0.000   0.000
    5  8 2px        0.20263   0.00000     -0.000  -0.000   0.000
    5  9 3Pdxy      0.00369   0.00000     -0.000  -0.000   0.000
    5 10 3Pdyz      0.00253   0.00000     -0.000   0.000  -0.000
    5 11 3Pdz2      0.00135   0.00000     -0.000   0.000  -0.000
    5 12 3Pdxz      0.00678   0.00000      0.000  -0.000  -0.000
    5 13 3Pdx2-y2   0.00560   0.00000      0.000   0.000  -0.000
    5     Total     5.52834   0.00000      0.000   0.000   0.000

    6  1 2s         1.26644   0.00000      0.000  -0.000   0.000
    6  2 2s         0.17991   0.00000     -0.000   0.000  -0.000
    6  3 2py        1.07968   0.00000      0.000   0.000  -0.000
    6  4 2pz        1.57968   0.00000     -0.000   0.000  -0.000
    6  5 2px        0.96746   0.00000     -0.000   0.000   0.000
    6  6 2py        0.18762   0.00000     -0.000  -0.000   0.000
    6  7 2pz        0.02918   0.00000      0.000  -0.000   0.000
    6  8 2px        0.25371   0.00000     -0.000  -0.000  -0.000
    6  9 3Pdxy      0.00278   0.00000      0.000   0.000   0.000
    6 10 3Pdyz      0.00015   0.00000      0.000  -0.000   0.000
    6 11 3Pdz2      0.00169   0.00000      0.000   0.000  -0.000
    6 12 3Pdxz      0.00285   0.00000      0.000  -0.000   0.000
    6 13 3Pdx2-y2   0.00296   0.00000     -0.000  -0.000   0.000
    6     Total     5.55411   0.00000      0.000   0.000   0.000

----------------------------------------------------------------
Total              33.80729   0.00000      0.000   0.000   0.000


Species: Si                  

Atom      Orb        Charge      Spin       Svec
----------------------------------------------------------------
    7  1 3s         0.68880   0.00000     -0.000  -0.000  -0.000
    7  2 3s         0.35792   0.00000      0.000   0.000   0.000
    7  3 3py        0.47644   0.00000      0.000  -0.000   0.000
    7  4 3pz        0.70040   0.00000     -0.000   0.000   0.000
    7  5 3px        0.13708   0.00000     -0.000  -0.000  -0.000
    7  6 3py        0.27061   0.00000     -0.000   0.000  -0.000
    7  7 3pz        0.25747   0.00000      0.000  -0.000  -0.000
    7  8 3px        0.42200   0.00000      0.000   0.000   0.000
    7  9 3Pdxy      0.24300   0.00000      0.000   0.000  -0.000
    7 10 3Pdyz      0.03039   0.00000      0.000  -0.000  -0.000
    7 11 3Pdz2      0.01209   0.00000     -0.000   0.000  -0.000
    7 12 3Pdxz      0.13912   0.00000      0.000  -0.000   0.000
    7 13 3Pdx2-y2   0.11299   0.00000     -0.000   0.000  -0.000
    7     Total     3.84831   0.00000      0.000   0.000  -0.000

    8  1 3s         0.64636   0.00000      0.000  -0.000   0.000
    8  2 3s         0.37225   0.00000     -0.000   0.000  -0.000
    8  3 3py        0.38380   0.00000     -0.000   0.000  -0.000
    8  4 3pz        0.52048   0.00000     -0.000  -0.000   0.000
    8  5 3px       -0.03253   0.00000      0.000  -0.000   0.000
    8  6 3py        0.30622   0.00000      0.000  -0.000   0.000
    8  7 3pz        0.20403   0.00000      0.000  -0.000   0.000
    8  8 3px        0.52080   0.00000     -0.000   0.000   0.000
    8  9 3Pdxy      0.25836   0.00000      0.000  -0.000   0.000
    8 10 3Pdyz      0.10992   0.00000      0.000  -0.000  -0.000
    8 11 3Pdz2      0.01321   0.00000     -0.000  -0.000   0.000
    8 12 3Pdxz      0.15540   0.00000     -0.000   0.000  -0.000
    8 13 3Pdx2-y2   0.18798   0.00000     -0.000  -0.000   0.000
    8     Total     3.64631   0.00000      0.000  -0.000   0.000

    9  1 3s         0.63229   0.00000      0.000  -0.000   0.000
    9  2 3s         0.35500   0.00000      0.000   0.000   0.000
    9  3 3py        0.08604   0.00000     -0.000   0.000   0.000
    9  4 3pz        0.48610   0.00000      0.000  -0.000   0.000
    9  5 3px        0.37152   0.00000     -0.000   0.000   0.000
    9  6 3py        0.43879   0.00000      0.000  -0.000  -0.000
    9  7 3pz        0.18396   0.00000      0.000  -0.000  -0.000
    9  8 3px        0.26730   0.00000      0.000  -0.000  -0.000
    9  9 3Pdxy      0.31422   0.00000      0.000  -0.000   0.000
    9 10 3Pdyz      0.19180   0.00000     -0.000  -0.000  -0.000
    9 11 3Pdz2      0.01627   0.00000     -0.000  -0.000   0.000
    9 12 3Pdxz      0.08772   0.00000      0.000   0.000   0.000
    9 13 3Pdx2-y2   0.15450   0.00000     -0.000  -0.000  -0.000
    9     Total     3.58553   0.00000     -0.000  -0.000   0.000

   10  1 3s         0.48493   0.00000     -0.000   0.000  -0.000
   10  2 3s         0.37914   0.00000      0.000   0.000   0.000
   10  3 3py        0.23940   0.00000      0.000   0.000   0.000
   10  4 3pz        0.41094   0.00000      0.000  -0.000   0.000
   10  5 3px        0.10374   0.00000     -0.000   0.000  -0.000
   10  6 3py        0.33658   0.00000      0.000  -0.000  -0.000
   10  7 3pz        0.22056   0.00000      0.000   0.000   0.000
   10  8 3px        0.42087   0.00000      0.000  -0.000   0.000
   10  9 3Pdxy      0.16289   0.00000      0.000  -0.000   0.000
   10 10 3Pdyz      0.14963   0.00000      0.000  -0.000   0.000
   10 11 3Pdz2      0.01149   0.00000     -0.000  -0.000  -0.000
   10 12 3Pdxz      0.16981   0.00000      0.000   0.000  -0.000
   10 13 3Pdx2-y2   0.32275   0.00000      0.000   0.000   0.000
   10     Total     3.41275   0.00000     -0.000   0.000  -0.000

   11  1 3s         0.55788   0.00000     -0.000   0.000  -0.000
   11  2 3s         0.38255   0.00000      0.000  -0.000   0.000
   11  3 3py        0.30331   0.00000     -0.000  -0.000  -0.000
   11  4 3pz        0.53954   0.00000     -0.000   0.000  -0.000
   11  5 3px        0.13839   0.00000     -0.000  -0.000  -0.000
   11  6 3py        0.30364   0.00000      0.000   0.000   0.000
   11  7 3pz        0.17766   0.00000      0.000   0.000   0.000
   11  8 3px        0.43241   0.00000      0.000   0.000   0.000
   11  9 3Pdxy      0.24338   0.00000      0.000  -0.000   0.000
   11 10 3Pdyz      0.12474   0.00000     -0.000  -0.000  -0.000
   11 11 3Pdz2      0.00935   0.00000      0.000  -0.000  -0.000
   11 12 3Pdxz      0.05250   0.00000     -0.000   0.000  -0.000
   11 13 3Pdx2-y2   0.18404   0.00000     -0.000  -0.000  -0.000
   11     Total     3.44937   0.00000     -0.000   0.000  -0.000

----------------------------------------------------------------
Total              51.74955   0.00000      0.000  -0.000   0.000


Species: H                   

Atom      Orb        Charge      Spin       Svec
----------------------------------------------------------------
   12  1 1s         0.49807   0.00000     -0.000  -0.000  -0.000
   12  2 1s         0.18515   0.00000      0.000   0.000   0.000
   12  3 2Ppy       0.02917   0.00000      0.000   0.000  -0.000
   12  4 2Ppz       0.03700   0.00000     -0.000  -0.000  -0.000
   12  5 2Ppx       0.02359   0.00000     -0.000  -0.000  -0.000
   12     Total     0.77298   0.00000     -0.000  -0.000  -0.000

   13  1 1s         1.02019   0.00000      0.000   0.000  -0.000
   13  2 1s         0.09508   0.00000     -0.000   0.000   0.000
   13  3 2Ppy       0.01990   0.00000      0.000  -0.000   0.000
   13  4 2Ppz       0.02004   0.00000     -0.000  -0.000  -0.000
   13  5 2Ppx       0.03312   0.00000     -0.000  -0.000  -0.000
   13     Total     1.18833   0.00000      0.000   0.000  -0.000

   14  1 1s         0.46181   0.00000     -0.000   0.000  -0.000
   14  2 1s         0.19986   0.00000      0.000  -0.000  -0.000
   14  3 2Ppy       0.01822   0.00000     -0.000   0.000  -0.000
   14  4 2Ppz       0.04652   0.00000      0.000  -0.000   0.000
   14  5 2Ppx       0.01728   0.00000     -0.000  -0.000   0.000
   14     Total     0.74369   0.00000     -0.000  -0.000  -0.000

   15  1 1s         0.47845   0.00000      0.000   0.000  -0.000
   15  2 1s         0.19834   0.00000     -0.000  -0.000   0.000
   15  3 2Ppy       0.00587   0.00000     -0.000   0.000  -0.000
   15  4 2Ppz       0.05165   0.00000      0.000  -0.000   0.000
   15  5 2Ppx       0.02825   0.00000     -0.000   0.000   0.000
   15     Total     0.76256   0.00000     -0.000   0.000  -0.000

   16  1 1s         0.50363   0.00000     -0.000   0.000   0.000
   16  2 1s         0.18847   0.00000      0.000  -0.000  -0.000
   16  3 2Ppy       0.02997   0.00000     -0.000   0.000  -0.000
   16  4 2Ppz       0.03822   0.00000     -0.000   0.000   0.000
   16  5 2Ppx       0.02260   0.00000     -0.000   0.000   0.000
   16     Total     0.78289   0.00000     -0.000   0.000  -0.000

----------------------------------------------------------------
Total              56.00000   0.00000     -0.000   0.000  -0.000


outcoor: Relaxed atomic coordinates (Ang):                  
    0.89499391    3.93962743   -0.00000012   1       1  O
   -3.11142040    0.86067020   -0.00000006   2       2  N
    1.96858488    1.21081697    0.00000001   2       3  N
    1.01996570   -1.79345982    0.00000003   2       4  N
   -2.11919273   -1.99118873   -0.00000001   2       5  N
    3.82538597   -1.07588459   -0.00000001   2       6  N
   -1.30586761    1.01306632    0.00000043   3       7  Si
   -0.55937368   -1.05926110   -0.00000012   3       8  Si
    0.49324909    2.38732630   -0.00000019   3       9  Si
    2.17336823   -0.53969473    0.00000001   3      10  Si
   -3.47599946   -0.80524044   -0.00000008   3      11  Si
    2.86459403    1.79153918    0.00000000   4      12  H
   -4.83748549   -1.43239859    0.00000000   4      13  H
    4.03501822   -2.10638793    0.00000000   4      14  H
    4.66096981   -0.44684999    0.00000000   4      15  H
   -2.23901898   -3.04469802   -0.00000000   4      16  H

siesta: Eigenvalues (eV):
ik =     1
  -22.0708  -22.0708  -21.9083  -21.9083  -21.3905  -21.3905  -20.9999  -20.9999  -19.9893  -19.9893
  -19.4820  -19.4820  -14.0238  -14.0238  -13.3128  -13.3128  -13.2420  -13.2420  -13.0299  -13.0299
  -12.6333  -12.6333  -11.6069  -11.6069  -10.8644  -10.8644  -10.8078  -10.8078   -9.3096   -9.3096
   -9.0841   -9.0841   -8.8853   -8.8853   -8.7614   -8.7614   -8.3208   -8.3208   -7.8836   -7.8836
   -7.5403   -7.5403   -7.4360   -7.4360   -6.9898   -6.9898   -6.6620   -6.6620   -6.4072   -6.4072
   -6.2984   -6.2984   -5.9918   -5.9918   -4.4980   -4.4980   -2.5059   -2.5059   -2.4399   -2.4399
   -2.0836   -2.0836   -1.9823   -1.9823   -1.6647   -1.6647   -1.3702   -1.3702   -0.9326   -0.9326
   -0.5845   -0.5845    0.1640    0.1640    0.1963    0.1963    0.4673    0.4673    0.6111    0.6111
    1.1924    1.1924    1.3002    1.3002    1.5459    1.5459    2.2165    2.2165    2.5538    2.5538
    2.5910    2.5910    2.9095    2.9095    3.1800    3.1800    3.6530    3.6530    3.7640    3.7640
    4.1871    4.1871    4.4289    4.4289    4.5730    4.5730    4.9303    4.9303    5.1100    5.1100
    5.4198    5.4198    5.4645    5.4645    5.7426    5.7426    5.8223    5.8223    6.1959    6.1959
    6.4567    6.4567    7.0235    7.0235    7.1313    7.1313    7.3447    7.3447    7.6684    7.6684
    8.0664    8.0664    8.4484    8.4484    8.5003    8.5003    8.5450    8.5450    9.0254    9.0254
    9.1055    9.1055    9.6270    9.6270    9.6596    9.6596   10.2380   10.2380   10.6805   10.6805
   10.6916   10.6916   10.8606   10.8606   11.7648   11.7648   11.8356   11.8356   11.9268   11.9268
   12.2110   12.2110   12.2533   12.2533   13.2405   13.2405   13.5689   13.5689   13.9151   13.9151
   13.9783   13.9783   14.5382   14.5382   15.6929   15.6929   16.0410   16.0410   16.8196   16.8196
   18.0536   18.0536   18.2274   18.2274   18.3839   18.3839   19.1000   19.1000   19.9293   19.9293
   21.6949   21.6949   22.4274   22.4274   22.9828   22.9828   23.4410   23.4410   23.8124   23.8124
   24.6803   24.6803   26.7881   26.7881   28.6815   28.6815   29.3233   29.3233   29.5651   29.5651
   29.9038   29.9038   30.1664   30.1664   30.5816   30.5816   30.7227   30.7227   30.8677   30.8677
   32.2226   32.2226   33.9568   33.9568   34.1360   34.1360   34.7196   34.7196   35.0535   35.0535
   35.2821   35.2821   36.4762   36.4762   36.7745   36.7745   37.1626   37.1626   37.4172   37.4172
   38.0923   38.0923   39.2474   39.2474   39.7943   39.7943   40.6029   40.6029   40.7333   40.7333
   41.0053   41.0053   41.2361   41.2361   42.7878   42.7878   43.0802   43.0802   43.8205   43.8205
   43.8655   43.8655   44.5269   44.5269   44.5847   44.5847   45.1928   45.1928   46.1514   46.1514
   46.6524   46.6524   47.2687   47.2687   49.0398   49.0398   49.2060   49.2060   50.2435   50.2435
   50.7703   50.7703   51.1203   51.1203   52.3769   52.3769   54.6486   54.6486   54.7435   54.7435
   55.6218   55.6218   56.3057   56.3057   58.0207   58.0207   58.5879   58.5879   60.1025   60.1025
   60.7814   60.7814   61.3093   61.3093   62.0276   62.0276   64.1453   64.1453   66.9841   66.9841
   67.0577   67.0577   68.5405   68.5405   70.5393   70.5393   73.2554   73.2554   89.9394   89.9394
   93.2479   93.2479   98.0902   98.0902  103.0321  103.0321  103.3596  103.3596  110.2519  110.2519
  123.7414  123.7414  130.6388  130.6388  140.9360  140.9360
siesta: Fermi energy =      -3.710285 eV

siesta: Program's energy decomposition (eV):
siesta: Ebs     =      -658.859700
siesta: Eions   =      2040.955082
siesta: Ena     =       223.142245
siesta: Ekin    =      1679.117248
siesta: Enl     =     -1651.280002
siesta: Eso     =        -0.002376
siesta: Edftu   =         0.000000
siesta: DEna    =        30.591605
siesta: DUscf   =         8.039457
siesta: DUext   =         0.000000
siesta: Exc     =      -644.936644
siesta: eta*DQ  =         0.000000
siesta: Emadel  =         0.000000
siesta: Emeta   =         0.000000
siesta: Emolmec =         0.000000
siesta: Ekinion =         0.000000
siesta: Eharris =     -2396.283550
siesta: Etot    =     -2396.283550
siesta: FreeEng =     -2396.283550

siesta: Final energy (eV):
siesta:  Band Struct. =    -658.859700
siesta:       Kinetic =    1679.117248
siesta:       Hartree =    4029.619529
siesta:       Edftu   =       0.000000
siesta:       Eso     =      -0.002376
siesta:    Ext. field =       0.000000
siesta:   Exch.-corr. =    -644.936644
siesta:  Ion-electron =   -9559.862022
siesta:       Ion-ion =    2099.780716
siesta:       Ekinion =       0.000000
siesta:         Total =   -2396.283550
siesta:         Fermi =      -3.710285

siesta: Stress tensor (static) (eV/Ang**3):
siesta:    -0.000162    0.000336   -0.000000
siesta:     0.000336    0.000614   -0.000000
siesta:    -0.000000   -0.000000   -0.000084

siesta: Cell volume =       2563.210132 Ang**3

siesta: Pressure (static):
siesta:                Solid            Molecule  Units
siesta:          -0.00000133         -0.00000135  Ry/Bohr**3
siesta:          -0.00012243         -0.00012401  eV/Ang**3
siesta:          -0.19616342         -0.19868329  kBar
(Free)E+ p_basis*V_orbitals  =       -2385.293874
(Free)Eharris+ p_basis*V_orbitals  =       -2385.293874
     spin moment: S , {S} =    0.00000  -0.00000   0.00000  -0.00000

siesta: Electric dipole (a.u.)  =    1.116360   -3.173990   -0.000000
siesta: Electric dipole (Debye) =    2.837506   -8.067483   -0.000000

cite: Please see "Guanine.bib" for an exhaustive BiBTeX file.
cite: Please clearly indicate Siesta version in published work: v4.1.5-1-g384057250
cite: This calculation has made use of the following articles
cite: which are encouraged to be cited in a published work.
        Primary SIESTA paper
          DOI: www.doi.org/10.1088/0953-8984/14/11/302
        Spin-orbit coupling (on-site approximation)
          DOI: www.doi.org/10.1088/0953-8984/19/19/489001


WARNING: alloc-realloc-dealloc name mismatch
         Name: atomlist isa
         Size:               -64. Bytes
         Node:     0
         Subsequent mismatches will not be reported
>> End of run:  12-MAY-2023   4:22:56
Job completed
