<?xml version="1.0" encoding="UTF-8" ?>
<psml version="1.1" energy_unit="hartree" length_unit="bohr"
 uuid="31805f30-6f0c-11ec-6c6e-3fcfd94b4bfb"
 xmlns="http://esl.cecam.org/PSML/ns/1.1">
<provenance creator="ATM4.2.7" date=" 6-JAN-22">
<annotation action="semilocal-pseudopotential-generation" />
<input-file name="INP">
<![CDATA[   pg      Oxygen
        tm2  2.5
 n=O  c=pbr
       0.0       0.0       0.0       0.0       0.0       0.0
    1    4
    2    0     1.00      1.00
    2    1     2.00      2.00
    3    2     0.00      0.00
    4    3     0.00      0.00
      0.45      0.93      2.27      0.25      0.00      0.00
]]>
</input-file>
</provenance>
<pseudo-atom-spec atomic-label="O" atomic-number="8" z-pseudo="6"
 flavor="Troullier-Martins" relativity="dirac" spin-dft="no"
 core-corrections="no">
<annotation pseudo-energy="-15.7877809399" />
<exchange-correlation>
<annotation atom-xc-code="pb" siesta-xc-type="GGA" siesta-xc-authors="PBE" />
<libxc-info number-of-functionals="2">
<functional name="XC_GGA_X_PBE" type="XC_EXCHANGE" id="101" />
<functional name="XC_GGA_C_PBE" type="XC_CORRELATION" id="130" />
</libxc-info>
</exchange-correlation>
<valence-configuration total-valence-charge="6">
<shell n="2" l="s" occupation="2" />
<shell n="2" l="p" occupation="4" />
</valence-configuration>
</pseudo-atom-spec>
<grid npts="376">
<annotation type="sampled-log-atom"
 recipe="r(i:1..N) = a*(exp(b*(i-1))-1); resampled"
 recipe-cont="a: scale; b: step" scale="0.309844022083E-03"
 step="0.125000000000E-01" delta="0.500000000000E-02" rmax="20" />
<grid-data>
  0.000000000000E+00  5.046671836297E-03  1.007984357808E-02  1.518974854062E-02
  2.035251700562E-02  2.556610006306E-02  3.090250246574E-02  3.595372892337E-02
  4.129904144018E-02  4.683920017331E-02  5.245334327694E-02  5.800249612577E-02
  6.333470855386E-02  6.915451056086E-02  7.456468283430E-02  8.039622178140E-02
  8.560131582679E-02  9.114210959625E-02  9.704025386184E-02  1.033187957505E-01
  1.086319497276E-01  1.142175149343E-01  1.200894581930E-01  1.262624624205E-01
  1.327519633426E-01  1.378365207374E-01  1.431153692244E-01  1.485959330545E-01
  1.542859201736E-01  1.601933330639E-01  1.663264799983E-01  1.726939867255E-01
  1.793048086012E-01  1.861682431831E-01  1.932939433072E-01  2.006919306636E-01
  2.057803148154E-01  2.109975120253E-01  2.163467832113E-01  2.218314718422E-01
  2.274550060267E-01  2.332209006569E-01  2.391327596047E-01  2.451942779741E-01
  2.514092444117E-01  2.577815434737E-01  2.643151580545E-01  2.710141718758E-01
  2.778827720395E-01  2.849252516441E-01  2.921460124687E-01  2.995495677238E-01
  3.071405448725E-01  3.149236885227E-01  3.229038633924E-01  3.310860573507E-01
  3.394753845353E-01  3.480770885486E-01  3.568965457358E-01  3.659392685446E-01
  3.752109089712E-01  3.847172620927E-01  3.944642696891E-01  4.044580239577E-01
  4.095493769703E-01  4.147047713200E-01  4.199250125477E-01  4.252109163268E-01
  4.305633085904E-01  4.359830256606E-01  4.414709143795E-01  4.470278322406E-01
  4.526546475238E-01  4.583522394303E-01  4.641214982206E-01  4.699633253529E-01
  4.758786336247E-01  4.818683473150E-01  4.879334023287E-01  4.940747463430E-01
  5.002933389553E-01  5.065901518335E-01  5.129661688673E-01  5.194223863224E-01
  5.259598129959E-01  5.325794703740E-01  5.392823927917E-01  5.460696275941E-01
  5.529422353007E-01  5.599012897702E-01  5.669478783691E-01  5.740831021413E-01
  5.813080759799E-01  5.886239288018E-01  5.960318037239E-01  6.035328582417E-01
  6.111282644103E-01  6.188192090273E-01  6.266068938185E-01  6.344925356254E-01
  6.424773665957E-01  6.505626343754E-01  6.587496023041E-01  6.670395496121E-01
  6.754337716206E-01  6.839335799438E-01  6.925403026942E-01  7.012552846896E-01
  7.100798876637E-01  7.190154904786E-01  7.280634893406E-01  7.372252980178E-01
  7.465023480615E-01  7.558960890295E-01  7.654079887132E-01  7.750395333660E-01
  7.847922279366E-01  7.946675963031E-01  8.046671815122E-01  8.147925460192E-01
  8.250452719330E-01  8.354269612628E-01  8.459392361688E-01  8.565837392153E-01
  8.673621336275E-01  8.782761035516E-01  8.893273543174E-01  9.005176127055E-01
  9.118486272164E-01  9.233221683442E-01  9.349400288532E-01  9.467040240575E-01
  9.586159921055E-01  9.706777942663E-01  9.828913152210E-01  9.952584633573E-01
  1.007781171067E+00  1.020461395049E+00  1.033301116614E+00  1.046302341994E+00
  1.059467102657E+00  1.072797455625E+00  1.086295483792E+00  1.099963296251E+00
  1.113803028628E+00  1.127816843407E+00  1.142006930277E+00  1.156375506466E+00
  1.170924817095E+00  1.185657135523E+00  1.200574763704E+00  1.215680032548E+00
  1.230975302284E+00  1.246462962830E+00  1.262145434163E+00  1.278025166702E+00
  1.294104641687E+00  1.310386371569E+00  1.326872900401E+00  1.343566804237E+00
  1.360470691534E+00  1.377587203558E+00  1.394919014799E+00  1.412468833388E+00
  1.430239401519E+00  1.448233495881E+00  1.466453928086E+00  1.484903545115E+00
  1.503585229758E+00  1.522501901066E+00  1.541656514807E+00  1.561052063929E+00
  1.580691579025E+00  1.600578128811E+00  1.620714820599E+00  1.641104800789E+00
  1.661751255357E+00  1.682657410353E+00  1.703826532407E+00  1.725261929236E+00
  1.746966950166E+00  1.768944986650E+00  1.791199472801E+00  1.813733885927E+00
  1.836551747077E+00  1.859656621587E+00  1.883052119642E+00  1.906741896835E+00
  1.930729654743E+00  1.955019141501E+00  1.979614152392E+00  2.004518530435E+00
  2.029736166990E+00  2.055271002365E+00  2.081127026429E+00  2.107308279239E+00
  2.133818851669E+00  2.160662886049E+00  2.187844576815E+00  2.215368171161E+00
  2.243237969704E+00  2.271458327158E+00  2.300033653011E+00  2.328968412215E+00
  2.358267125886E+00  2.387934372007E+00  2.417974786145E+00  2.448393062177E+00
  2.479193953020E+00  2.510382271376E+00  2.541962890483E+00  2.573940744877E+00
  2.606320831163E+00  2.639108208795E+00  2.672308000868E+00  2.705925394917E+00
  2.739965643727E+00  2.774434066158E+00  2.809336047970E+00  2.844677042669E+00
  2.880462572357E+00  2.916698228596E+00  2.953389673281E+00  2.990542639525E+00
  3.028162932554E+00  3.066256430617E+00  3.104829085898E+00  3.143886925455E+00
  3.183436052154E+00  3.223482645627E+00  3.264032963235E+00  3.305093341048E+00
  3.346670194834E+00  3.388770021060E+00  3.431399397910E+00  3.474564986312E+00
  3.518273530975E+00  3.562531861449E+00  3.607346893188E+00  3.652725628632E+00
  3.698675158301E+00  3.745202661903E+00  3.792315409453E+00  3.840020762416E+00
  3.888326174849E+00  3.937239194571E+00  3.986767464342E+00  4.036918723054E+00
  4.087700806944E+00  4.139121650814E+00  4.191189289278E+00  4.243911858009E+00
  4.297297595016E+00  4.351354841928E+00  4.406092045301E+00  4.461517757935E+00
  4.517640640209E+00  4.574469461438E+00  4.632013101240E+00  4.690280550928E+00
  4.749280914908E+00  4.809023412107E+00  4.869517377412E+00  4.930772263128E+00
  4.992797640456E+00  5.055603200986E+00  5.119198758217E+00  5.183594249082E+00
  5.248799735508E+00  5.314825405986E+00  5.381681577160E+00  5.449378695443E+00
  5.517927338649E+00  5.587338217641E+00  5.657622178010E+00  5.728790201770E+00
  5.800853409067E+00  5.873823059925E+00  5.947710556001E+00  6.022527442365E+00
  6.098285409309E+00  6.174996294169E+00  6.252672083177E+00  6.331324913333E+00
  6.410967074301E+00  6.491611010332E+00  6.573269322204E+00  6.655954769195E+00
  6.739680271074E+00  6.824458910121E+00  6.910303933171E+00  6.997228753683E+00
  7.085246953838E+00  7.174372286659E+00  7.264618678159E+00  7.356000229521E+00
  7.448531219299E+00  7.542226105648E+00  7.637099528585E+00  7.733166312274E+00
  7.830441467347E+00  7.928940193243E+00  8.028677880591E+00  8.129670113605E+00
  8.231932672528E+00  8.335481536094E+00  8.440332884021E+00  8.546503099548E+00
  8.654008771985E+00  8.762866699314E+00  8.873093890806E+00  8.984707569685E+00
  9.097725175815E+00  9.212164368427E+00  9.328043028878E+00  9.445379263444E+00
  9.564191406150E+00  9.684498021636E+00  9.806317908054E+00  9.929670100011E+00
  1.005457387154E+01  1.018104873910E+01  1.030911446465E+01  1.043879105873E+01
  1.057009878357E+01  1.070305815625E+01  1.083768995197E+01  1.097401520720E+01
  1.111205522305E+01  1.125183156854E+01  1.139336608403E+01  1.153668088456E+01
  1.168179836336E+01  1.182874119534E+01  1.197753234061E+01  1.212819504809E+01
  1.228075285914E+01  1.243522961122E+01  1.259164944164E+01  1.275003679132E+01
  1.291041640859E+01  1.307281335312E+01  1.323725299974E+01  1.340376104248E+01
  1.357236349858E+01  1.374308671249E+01  1.391595736008E+01  1.409100245274E+01
  1.426824934161E+01  1.444772572188E+01  1.462945963710E+01  1.481347948357E+01
  1.499981401476E+01  1.518849234582E+01  1.537954395812E+01  1.557299870388E+01
  1.576888681077E+01  1.596723888673E+01  1.616808592466E+01  1.637145930733E+01
  1.657739081223E+01  1.678591261659E+01  1.699705730237E+01  1.721085786134E+01
  1.742734770027E+01  1.764656064616E+01  1.786853095147E+01  1.809329329950E+01
  1.832088280984E+01  1.855133504380E+01  1.878468601002E+01  1.902097217006E+01
  1.926023044412E+01  1.950249821678E+01  1.974781334288E+01  1.999621415340E+01
</grid-data>
</grid>
<valence-charge total-charge="6" is-unscreening-charge="yes"
 rescaled-to-z-pseudo="no">
<radfunc>
<data>
  4.659563951746E+01  4.652717432706E+01  4.632304609241E+01  4.597867047028E+01
  4.549324380560E+01  4.486690058530E+01  4.408970722377E+01  4.323350637690E+01
  4.220770495129E+01  4.102452984427E+01  3.971298884675E+01  3.831853095995E+01
  3.689994718195E+01  3.527960508363E+01  3.372130103517E+01  3.200310207226E+01
  3.045069860764E+01  2.879420880775E+01  2.704351759215E+01  2.521385274035E+01
  2.370732711335E+01  2.217756678678E+01  2.064102549398E+01  1.911659400194E+01
  1.762520075492E+01  1.654173782659E+01  1.549905890001E+01  1.450672241104E+01
  1.357389938133E+01  1.270906141857E+01  1.191966615118E+01  1.121186063757E+01
  1.059022511112E+01  1.005757893585E+01  9.614867415592E+00  9.261142096541E+00
  9.073467163896E+00  8.922912651499E+00  8.807949297250E+00  8.726790547036E+00
  8.677434279646E+00  8.657707326374E+00  8.665311261386E+00  8.697868063662E+00
  8.752964476065E+00  8.828194187647E+00  8.921197306396E+00  9.029696926687E+00
  9.151532873988E+00  9.284692862689E+00  9.427341249017E+00  9.577845195784E+00
  9.734797258744E+00  9.897032003041E+00  1.006363211777E+01  1.023391656318E+01
  1.040739977374E+01  1.058370765256E+01  1.076243486732E+01  1.094293211399E+01
  1.112402631241E+01  1.130370589324E+01  1.147884814063E+01  1.164511559149E+01
  1.172327876175E+01  1.179717482795E+01  1.186608839677E+01  1.192934554492E+01
  1.198635053917E+01  1.203661827904E+01  1.207979494998E+01  1.211565703433E+01
  1.214407878000E+01  1.216497736870E+01  1.217828579341E+01  1.218396582004E+01
  1.218199882544E+01  1.217238775699E+01  1.215515720502E+01  1.213035295813E+01
  1.209804173362E+01  1.205831070687E+01  1.201126693681E+01  1.195703667543E+01
  1.189576456129E+01  1.182761269991E+01  1.175275963610E+01  1.167139922560E+01
  1.158373941454E+01  1.149000093711E+01  1.139041594237E+01  1.128522656211E+01
  1.117468343213E+01  1.105904417964E+01  1.093857188982E+01  1.081353356468E+01
  1.068419858734E+01  1.055083720509E+01  1.041371904429E+01  1.027311167037E+01
  1.012927920575E+01  9.982481018741E+00  9.832970496044E+00  9.680993911434E+00
  9.526789403131E+00  9.370586072063E+00  9.212603213189E+00  9.053049691786E+00
  8.892123476391E+00  8.730011339709E+00  8.566888738261E+00  8.402919880724E+00
  8.238257993713E+00  8.073045791964E+00  7.907416157426E+00  7.741493028287E+00
  7.575392494407E+00  7.409224089533E+00  7.243092262973E+00  7.077098003643E+00
  6.911340577493E+00  6.745919324886E+00  6.580935447488E+00  6.416493694430E+00
  6.252703834888E+00  6.089681778751E+00  5.927550178721E+00  5.766438315950E+00
  5.606481036982E+00  5.447816472080E+00  5.290582368979E+00  5.134911971148E+00
  4.980932196066E+00  4.828764161384E+00  4.678522555476E+00  4.530315750613E+00
  4.384245647722E+00  4.240407655614E+00  4.098890636864E+00  3.959776896374E+00
  3.823142183200E+00  3.689055714631E+00  3.557580218773E+00  3.428771995644E+00
  3.302680995645E+00  3.179350914553E+00  3.058819304041E+00  2.941117696769E+00
  2.826271745007E+00  2.714301371783E+00  2.605220933505E+00  2.499039393021E+00
  2.395760502065E+00  2.295382992051E+00  2.197900772178E+00  2.103303133833E+00
  2.011574960279E+00  1.922696940657E+00  1.836645787343E+00  1.753394455732E+00
  1.672912365550E+00  1.595165622845E+00  1.520117241826E+00  1.447727365762E+00
  1.377953486219E+00  1.310750659911E+00  1.246071722531E+00  1.183867498936E+00
  1.124087009141E+00  1.066677669591E+00  1.011585489251E+00  9.587552600786E-01
  9.081307415144E-01  8.596548386441E-01  8.132697737550E-01  7.689172510349E-01
  7.265386142106E-01  6.860749969657E-01  6.474674660093E-01  6.106571567132E-01
  5.755854012615E-01  5.421938492973E-01  5.104245810778E-01  4.802202131804E-01
  4.515239968286E-01  4.242799089331E-01  3.984327359640E-01  3.739281507920E-01
  3.507127826559E-01  3.287342804282E-01  3.079413693674E-01  2.882839015567E-01
  2.697129002395E-01  2.521805982733E-01  2.356404709291E-01  2.200472632687E-01
  2.053570123413E-01  1.915270644378E-01  1.785160876493E-01  1.662840799740E-01
  1.547923732179E-01  1.440036329351E-01  1.338818546504E-01  1.243923566067E-01
  1.155017692764E-01  1.071780218720E-01  9.939032609036E-02  9.210915731665E-02
  8.530623351377E-02  7.895449201542E-02  7.302806443661E-02  6.750224990939E-02
  6.235348684548E-02  5.755932342089E-02  5.309838697070E-02  4.895035247483E-02
  4.509591030797E-02  4.151673341896E-02  3.819544409661E-02  3.511558047036E-02
  3.226156288566E-02  2.961866028494E-02  2.717295671596E-02  2.491131808044E-02
  2.282135922675E-02  2.089141148120E-02  1.911049070370E-02  1.746826594470E-02
  1.595502877158E-02  1.456166332427E-02  1.327961715188E-02  1.210087287401E-02
  1.101792070312E-02  1.002373185716E-02  9.111732884800E-03  8.275780919466E-03
  7.510139872283E-03  6.809457568641E-03  6.168743828079E-03  5.583349482514E-03
  5.048946323752E-03  4.561507967453E-03  4.117291617453E-03  3.712820711461E-03
  3.344868426678E-03  3.010442021799E-03  2.706767990155E-03  2.431277997366E-03
  2.181595575868E-03  1.955523547909E-03  1.751032148189E-03  1.566247817084E-03
  1.399442635446E-03  1.249024372163E-03  1.113527116114E-03  9.916024646259E-04
  8.820112412814E-04  7.836157166408E-04  6.953723063165E-04  6.163247217271E-04
  5.455975498031E-04  4.823902388795E-04  4.259714689785E-04  3.756738856558E-04
  3.308891775347E-04  2.910634785844E-04  2.556930771000E-04  2.243204142155E-04
  1.965303556101E-04  1.719467208704E-04  1.502290557264E-04  1.310696331025E-04
  1.141906696072E-04  9.934174473542E-05  8.629741067294E-05  7.485498117446E-05
  6.483248854488E-05  5.606679827923E-05  4.841187142189E-05  4.173716518629E-05
  3.592616283793E-05  3.087502428544E-05  2.649134925024E-05  2.269304529484E-05
  1.940729338530E-05  1.656960404541E-05  1.412295752896E-05  1.201702179404E-05
  1.020744240850E-05  8.655198850105E-06  7.326021988006E-06  6.189867844290E-06
  5.220443035836E-06  4.394777586966E-06  3.692841082957E-06  3.097198403006E-06
  2.592701528711E-06  2.166214170608E-06  1.806366190611E-06  1.503335022429E-06
  1.248651505188E-06  1.035027747552E-06  8.562048308424E-07  7.068183399672E-07
  5.822798807007E-07  4.786729011214E-07  3.926612840862E-07  3.214093167789E-07
  2.625117729102E-07  2.139329634013E-07  1.739537227159E-07  1.411254007812E-07
  1.142300250591E-07  9.224588418663E-08  7.431786411749E-08  5.973194027840E-08
  4.789329531648E-08  3.830759197421E-08  3.056498489300E-08  2.432650411412E-08
  1.931248710605E-08  1.529277567766E-08  1.207842949788E-08  9.514739482996E-09
  7.475352361685E-09  5.857342598552E-09  4.577089843331E-09  3.566839452264E-09
  2.771840657511E-09  2.147971880110E-09  1.659775713296E-09  1.278837450278E-09
  9.824508810503E-10  7.525236073132E-10  5.746814787598E-10  4.375380784182E-10
  3.321006064781E-10  2.512881450690E-10  1.895422327818E-10  1.425130282473E-10
  1.068071774074E-10  7.978589068869E-11  5.940374633133E-11  4.408042195173E-11
  3.259895670264E-11  2.402533852274E-11  1.764511917153E-11  1.291369788095E-11
  9.417352130433E-12  6.842891085835E-12  4.954081410324E-12  3.573379556844E-12
  2.567835562309E-12  1.838258656307E-12  1.310920699364E-12  9.312266424387E-13
  6.589038572232E-13  4.643598262815E-13  3.259351051601E-13  2.278396203586E-13
  1.586084754461E-13  1.099511326141E-13  7.589725245140E-14  5.216533470077E-14
  3.569799408397E-14  2.432133877316E-14  1.649638057713E-14  1.113839865609E-14
  7.486258410026E-15  5.008291406021E-15  3.334813300746E-15  2.209961648614E-15
  1.457481401578E-15  9.565327539831E-16  6.246666862435E-16  4.059021198654E-16
</data>
</radfunc>
</valence-charge>
<semilocal-potentials set="scalar_relativistic">
<slps n="2" l="s" rc="0.447027832241" flavor="Troullier-Martins">
<radfunc>
<data>
 -9.800820163044E+01 -9.793674335234E+01 -9.772176178245E+01 -9.744782741546E+01
 -9.717989804305E+01 -9.694492361198E+01 -9.673452584144E+01 -9.654089558915E+01
 -9.631178090621E+01 -9.601375649036E+01 -9.561234995047E+01 -9.508119524441E+01
 -9.441195334655E+01 -9.346706755116E+01 -9.235483393597E+01 -9.086888154559E+01
 -8.926426549832E+01 -8.724360496289E+01 -8.471655141836E+01 -8.158196221813E+01
 -7.856363943619E+01 -7.502898004174E+01 -7.092133168735E+01 -6.618837641250E+01
 -6.078650390816E+01 -5.627780262294E+01 -5.137120811581E+01 -4.607091739895E+01
 -4.039271316794E+01 -3.436733859335E+01 -2.804488884586E+01 -2.150015000625E+01
 -1.483683223326E+01 -8.182827813025E+00 -1.660491168159E+00  4.674498303420E+00
  8.819420159701E+00  1.295140776506E+01  1.711402643841E+01  2.128090391370E+01
  2.526325994833E+01  2.881027256631E+01  3.188512623418E+01  3.463074745694E+01
  3.714775236734E+01  3.945485929303E+01  4.154252634019E+01  4.340170688531E+01
  4.502563511511E+01  4.640225066522E+01  4.750507108490E+01  4.828482511960E+01
  4.866295048015E+01  4.852828058947E+01  4.773870607468E+01  4.612988564301E+01
  4.353296779885E+01  3.980254545134E+01  3.485446974060E+01  2.871052577190E+01
  2.154332631923E+01  1.371044204054E+01  5.762542080855E+00 -1.592640706002E+00
 -4.806633132017E+00 -7.589288034264E+00 -9.865155058213E+00 -1.158271092702E+01
 -1.272555354435E+01 -1.332566084163E+01 -1.347895084436E+01 -1.336360745012E+01
 -1.319938905322E+01 -1.303751271548E+01 -1.287776172444E+01 -1.271994262857E+01
 -1.256390885699E+01 -1.240955888806E+01 -1.225682858836E+01 -1.210568666664E+01
 -1.195612820606E+01 -1.180816831876E+01 -1.166183586338E+01 -1.151716756164E+01
 -1.137420276353E+01 -1.123297906261E+01 -1.109352888432E+01 -1.095587708016E+01
 -1.082003947742E+01 -1.068602226856E+01 -1.055382208543E+01 -1.042342658864E+01
 -1.029481540898E+01 -1.016796129734E+01 -1.004283136635E+01 -9.919388335351E+00
 -9.797591716703E+00 -9.677398903785E+00 -9.558766138903E+00 -9.441649352598E+00
 -9.326004875308E+00 -9.211790028670E+00 -9.098963607645E+00 -8.987486266888E+00
 -8.877320825651E+00 -8.768432505604E+00 -8.660789115326E+00 -8.554361194154E+00
 -8.449122126632E+00 -8.345048236974E+00 -8.242118870841E+00 -8.140316469179E+00
 -8.039626635947E+00 -7.940038198117E+00 -7.841543252300E+00 -7.744137187745E+00
 -7.647818670124E+00 -7.552589564575E+00 -7.458454770013E+00 -7.365421929811E+00
 -7.273500977107E+00 -7.182703466577E+00 -7.093041634130E+00 -7.004527166501E+00
 -6.917169309828E+00 -6.830974023999E+00 -6.745936045403E+00 -6.662052376211E+00
 -6.579278769210E+00 -6.497581167845E+00 -6.416927875330E+00 -6.337246478474E+00
 -6.258575379085E+00 -6.180879807546E+00 -6.104133336339E+00 -6.028333230166E+00
 -5.953466696841E+00 -5.879523926133E+00 -5.806494375916E+00 -5.734367612463E+00
 -5.663133187423E+00 -5.592780671976E+00 -5.523299668874E+00 -5.454679824896E+00
 -5.386910841675E+00 -5.319982485144E+00 -5.253884593682E+00 -5.188607085096E+00
 -5.124139962519E+00 -5.060473319362E+00 -4.997597343402E+00 -4.935502320107E+00
 -4.874178635300E+00 -4.813616777223E+00 -4.753807338102E+00 -4.694741015263E+00
 -4.636408611860E+00 -4.578801037286E+00 -4.521909307299E+00 -4.465724543910E+00
 -4.410237975074E+00 -4.355440934215E+00 -4.301324859607E+00 -4.247881293649E+00
 -4.195101882038E+00 -4.142978372869E+00 -4.091502615680E+00 -4.040666560443E+00
 -3.990462256516E+00 -3.940881851580E+00 -3.891917590541E+00 -3.843561814427E+00
 -3.795806959279E+00 -3.748645555027E+00 -3.702070224380E+00 -3.656073681706E+00
 -3.610648731924E+00 -3.565788269398E+00 -3.521485276844E+00 -3.477732824242E+00
 -3.434524067761E+00 -3.391852248689E+00 -3.349710692384E+00 -3.308092807226E+00
 -3.266992083589E+00 -3.226402092820E+00 -3.186316486232E+00 -3.146728994111E+00
 -3.107633424728E+00 -3.069023663374E+00 -3.030893671394E+00 -2.993237485248E+00
 -2.956049215568E+00 -2.919323046236E+00 -2.883053233477E+00 -2.847234104951E+00
 -2.811860058864E+00 -2.776925563096E+00 -2.742425154326E+00 -2.708353437177E+00
 -2.674705083374E+00 -2.641474830902E+00 -2.608657483186E+00 -2.576247908274E+00
 -2.544241038035E+00 -2.512631867358E+00 -2.481415453375E+00 -2.450586914683E+00
 -2.420141430576E+00 -2.390074240296E+00 -2.360380642280E+00 -2.331055993428E+00
 -2.302095708372E+00 -2.273495258760E+00 -2.245250172544E+00 -2.217356033283E+00
 -2.189808479447E+00 -2.162603203734E+00 -2.135735952398E+00 -2.109202524581E+00
 -2.082998771653E+00 -2.057120596565E+00 -2.031563953206E+00 -2.006324845768E+00
 -1.981399328121E+00 -1.956783503197E+00 -1.932473522376E+00 -1.908465584885E+00
 -1.884755937202E+00 -1.861340872469E+00 -1.838216729911E+00 -1.815379894263E+00
 -1.792826795201E+00 -1.770553906790E+00 -1.748557746922E+00 -1.726834876780E+00
 -1.705381900292E+00 -1.684195463605E+00 -1.663272254556E+00 -1.642609002157E+00
 -1.622202476077E+00 -1.602049486142E+00 -1.582146881835E+00 -1.562491551797E+00
 -1.543080423348E+00 -1.523910461999E+00 -1.504978670982E+00 -1.486282090778E+00
 -1.467817798653E+00 -1.449582908205E+00 -1.431574568906E+00 -1.413789965660E+00
 -1.396226318363E+00 -1.378880881464E+00 -1.361750943537E+00 -1.344833826858E+00
 -1.328126886986E+00 -1.311627512344E+00 -1.295333123819E+00 -1.279241174350E+00
 -1.263349148534E+00 -1.247654562233E+00 -1.232154962180E+00 -1.216847925601E+00
 -1.201731059834E+00 -1.186802001951E+00 -1.172058418394E+00 -1.157498004606E+00
 -1.143118484672E+00 -1.128917610961E+00 -1.114893163777E+00 -1.101042951010E+00
 -1.087364807792E+00 -1.073856596162E+00 -1.060516204727E+00 -1.047341548334E+00
 -1.034330567744E+00 -1.021481229310E+00 -1.008791524656E+00 -9.962594703667E-01
 -9.838831076750E-01 -9.716605021554E-01 -9.595897434224E-01 -9.476689448310E-01
 -9.358962431817E-01 -9.242697984292E-01 -9.127877933941E-01 -9.014484334793E-01
 -8.902499463886E-01 -8.791905818499E-01 -8.682686113412E-01 -8.574823278204E-01
 -8.468300454580E-01 -8.363100993738E-01 -8.259208453761E-01 -8.156606597048E-01
 -8.055279387772E-01 -7.955210989375E-01 -7.856385762085E-01 -7.758788260479E-01
 -7.662403231057E-01 -7.567215609865E-01 -7.473210520134E-01 -7.380373269955E-01
 -7.288689349979E-01 -7.198144431152E-01 -7.108724362470E-01 -7.020415168769E-01
 -6.933203048538E-01 -6.847074371758E-01 -6.762015677775E-01 -6.678013673193E-01
 -6.595055229795E-01 -6.513127382490E-01 -6.432217327284E-01 -6.352312419282E-01
 -6.273400170705E-01 -6.195468248944E-01 -6.118504474623E-01 -6.042496819702E-01
 -5.967433405592E-01 -5.893302501301E-01 -5.820092521595E-01 -5.747792025189E-01
 -5.676389712959E-01 -5.605874426175E-01 -5.536235144752E-01 -5.467460985533E-01
 -5.399541200584E-01 -5.332465175514E-01 -5.266222427813E-01 -5.200802605219E-01
 -5.136195484093E-01 -5.072390967825E-01 -5.009379085252E-01 -4.947149989101E-01
 -4.885693954450E-01 -4.825001377205E-01 -4.765062772601E-01 -4.705868773717E-01
 -4.647410130014E-01 -4.589677705885E-01 -4.532662479231E-01 -4.476355540048E-01
 -4.420748089033E-01 -4.365831436213E-01 -4.311596999579E-01 -4.258036303751E-01
 -4.205140978651E-01 -4.152902758193E-01 -4.101313478992E-01 -4.050365079086E-01
 -4.000049596679E-01 -3.950359168895E-01 -3.901286030546E-01 -3.852822512922E-01
 -3.804961042589E-01 -3.757694140210E-01 -3.711014419367E-01 -3.664914585417E-01
 -3.619387434343E-01 -3.574425851632E-01 -3.530022811163E-01 -3.486171374106E-01
 -3.442864687841E-01 -3.400095984882E-01 -3.357858581826E-01 -3.316145878299E-01
 -3.274951355935E-01 -3.234268577347E-01 -3.194091185128E-01 -3.154412900853E-01
 -3.115227524099E-01 -3.076528931477E-01 -3.038311075674E-01 -3.000567984505E-01
</data>
</radfunc>
</slps>
<slps n="2" l="p" rc="0.923322168344" flavor="Troullier-Martins">
<radfunc>
<data>
 -2.134307170145E+01 -2.127173214264E+01 -2.105851307646E+01 -2.079237110595E+01
 -2.054582643066E+01 -2.035673736601E+01 -2.023259629030E+01 -2.017265987315E+01
 -2.015897365331E+01 -2.018739222133E+01 -2.025043751887E+01 -2.033848264667E+01
 -2.044067082438E+01 -2.056504763752E+01 -2.068659835346E+01 -2.081753639921E+01
 -2.092933120248E+01 -2.103861844766E+01 -2.114008029236E+01 -2.122825750436E+01
 -2.128586035864E+01 -2.132969149265E+01 -2.135827388225E+01 -2.137076580883E+01
 -2.136692581209E+01 -2.135351008269E+01 -2.133152996990E+01 -2.130196248126E+01
 -2.126696942854E+01 -2.123127521459E+01 -2.120472786815E+01 -2.120620818194E+01
 -2.126713378937E+01 -2.142704520359E+01 -2.170565600931E+01 -2.204528710892E+01
 -2.222142278507E+01 -2.226681003485E+01 -2.210471993214E+01 -2.173133569129E+01
 -2.130953280726E+01 -2.106971567107E+01 -2.103471032466E+01 -2.105451730225E+01
 -2.102818127049E+01 -2.094229350003E+01 -2.081515102014E+01 -2.066451929835E+01
 -2.050103832895E+01 -2.032979893899E+01 -2.015268295459E+01 -1.996990734516E+01
 -1.978084083470E+01 -1.958438457638E+01 -1.937913394613E+01 -1.916344868905E+01
 -1.893550049496E+01 -1.869333931654E+01 -1.843501687105E+01 -1.815881997876E+01
 -1.786367588316E+01 -1.754974727419E+01 -1.721905975507E+01 -1.687564372709E+01
 -1.670070632693E+01 -1.652429344822E+01 -1.634660434273E+01 -1.616746267713E+01
 -1.598628898781E+01 -1.580221295747E+01 -1.561426936550E+01 -1.542168850320E+01
 -1.522412842641E+01 -1.502162889297E+01 -1.481441304138E+01 -1.460277709658E+01
 -1.438708935101E+01 -1.416777375323E+01 -1.394528935881E+01 -1.372011566774E+01
 -1.349273945865E+01 -1.326364531315E+01 -1.303330945832E+01 -1.280219660608E+01
 -1.257075919713E+01 -1.233943838211E+01 -1.210866609148E+01 -1.187886762790E+01
 -1.165046432741E+01 -1.142387595460E+01 -1.119952260442E+01 -1.097782597320E+01
 -1.075920992915E+01 -1.054410036051E+01 -1.033292430990E+01 -1.012610842066E+01
 -9.924076728185E+00 -9.727247830282E+00 -9.536031467625E+00 -9.350824541029E+00
 -9.172006587449E+00 -8.999934733090E+00 -8.834938140339E+00 -8.677311966411E+00
 -8.527310856196E+00 -8.385142000755E+00 -8.250957806957E+00 -8.124848243907E+00
 -8.006832959150E+00 -7.896853293475E+00 -7.794764368729E+00 -7.700327480094E+00
 -7.613203094234E+00 -7.532944839419E+00 -7.458994974868E+00 -7.390681945950E+00
 -7.327220771400E+00 -7.267717170088E+00 -7.211176520279E+00 -7.156518955748E+00
 -7.102602143395E+00 -7.048253559665E+00 -6.992314387908E+00 -6.933697556890E+00
 -6.871462496624E+00 -6.804911738237E+00 -6.733705194445E+00 -6.658025269849E+00
 -6.578719786798E+00 -6.497581041751E+00 -6.416927875330E+00 -6.337246478474E+00
 -6.258575379085E+00 -6.180879807546E+00 -6.104133336339E+00 -6.028333230166E+00
 -5.953466696841E+00 -5.879523926133E+00 -5.806494375916E+00 -5.734367612463E+00
 -5.663133187423E+00 -5.592780671976E+00 -5.523299668874E+00 -5.454679824896E+00
 -5.386910841675E+00 -5.319982485144E+00 -5.253884593682E+00 -5.188607085096E+00
 -5.124139962519E+00 -5.060473319362E+00 -4.997597343402E+00 -4.935502320107E+00
 -4.874178635300E+00 -4.813616777223E+00 -4.753807338102E+00 -4.694741015263E+00
 -4.636408611860E+00 -4.578801037286E+00 -4.521909307299E+00 -4.465724543910E+00
 -4.410237975074E+00 -4.355440934215E+00 -4.301324859607E+00 -4.247881293649E+00
 -4.195101882038E+00 -4.142978372869E+00 -4.091502615680E+00 -4.040666560443E+00
 -3.990462256516E+00 -3.940881851580E+00 -3.891917590541E+00 -3.843561814427E+00
 -3.795806959279E+00 -3.748645555027E+00 -3.702070224380E+00 -3.656073681706E+00
 -3.610648731924E+00 -3.565788269398E+00 -3.521485276844E+00 -3.477732824242E+00
 -3.434524067761E+00 -3.391852248689E+00 -3.349710692384E+00 -3.308092807226E+00
 -3.266992083589E+00 -3.226402092820E+00 -3.186316486232E+00 -3.146728994111E+00
 -3.107633424728E+00 -3.069023663374E+00 -3.030893671394E+00 -2.993237485248E+00
 -2.956049215568E+00 -2.919323046236E+00 -2.883053233477E+00 -2.847234104951E+00
 -2.811860058864E+00 -2.776925563096E+00 -2.742425154326E+00 -2.708353437177E+00
 -2.674705083374E+00 -2.641474830902E+00 -2.608657483186E+00 -2.576247908274E+00
 -2.544241038035E+00 -2.512631867358E+00 -2.481415453375E+00 -2.450586914683E+00
 -2.420141430576E+00 -2.390074240296E+00 -2.360380642280E+00 -2.331055993428E+00
 -2.302095708372E+00 -2.273495258760E+00 -2.245250172544E+00 -2.217356033283E+00
 -2.189808479447E+00 -2.162603203734E+00 -2.135735952398E+00 -2.109202524581E+00
 -2.082998771653E+00 -2.057120596565E+00 -2.031563953206E+00 -2.006324845768E+00
 -1.981399328121E+00 -1.956783503197E+00 -1.932473522376E+00 -1.908465584885E+00
 -1.884755937202E+00 -1.861340872469E+00 -1.838216729911E+00 -1.815379894263E+00
 -1.792826795201E+00 -1.770553906790E+00 -1.748557746922E+00 -1.726834876780E+00
 -1.705381900292E+00 -1.684195463605E+00 -1.663272254556E+00 -1.642609002157E+00
 -1.622202476077E+00 -1.602049486142E+00 -1.582146881835E+00 -1.562491551797E+00
 -1.543080423348E+00 -1.523910461999E+00 -1.504978670982E+00 -1.486282090778E+00
 -1.467817798653E+00 -1.449582908205E+00 -1.431574568906E+00 -1.413789965660E+00