Siesta Version  : v4.1.5-1-g384057250
Architecture    : gcc
Compiler version: GNU Fortran (Debian 10.2.1-6) 10.2.1 20210110
Compiler flags  : mpifort -O2 -fPIC -ftree-vectorize -fallow-argument-mismatch
PP flags        : -DFC_HAVE_ABORT -DMPI -DSIESTA__FLOOK -DSIESTA__METIS -DSIESTA__MUMPS -DCDF -DNCDF -DNCDF_4 -DNCDF_PARALLEL -DSIESTA__MRRR -DSIESTA__ELPA
Libraries       : libncdf.a libfdict.a  -lflookall -ldl -lnetcdff -lnetcdf -lhdf5_hl -lhdf5 -lhdf5_fortran -lz -lscalapack-openmpi -lopenblas -lmetis -lzmumps -lcmumps -ldmumps -lmumps_common -lpord -lsmumps -lesmumps -lscotch -lscotcherr -fopenmp -lelpa
PARALLEL version
NetCDF support
NetCDF-4 support
NetCDF-4 MPI-IO support
METIS ordering support
Lua support

* Running on 6 nodes in parallel
>> Start of run:  22-MAY-2023   9:51:50

                           ***********************       
                           *  WELCOME TO SIESTA  *       
                           ***********************       

reinit: Reading from standard input
reinit: Dumped input in INPUT_TMP.13100
************************** Dump of input data file ****************************
SystemLabel      AT
NumberOfAtoms    30
NumberOfSpecies  4
%block ChemicalSpeciesLabel
    1    1  H
    2    7  N
    3   14  Si
    4    8  O
%endblock ChemicalSpeciesLabel
# Single point calculation
MD.TypeOfRun                CG
MD.Steps                    0
SCF.MustConverge            F # In case it does not. There can be 2 very close atoms
AtomicCoordinatesFormat NotScaledCartesianAng
%block AtomicCoordinatesAndAtomicSpecies
2.582377650    -5.776830440   0.000000000       1
1.654759240    -5.269361980   0.000000000       2
0.063128840    -6.101704590   0.000000000       3
0.119223240    -7.596849500   0.000000000       1
-1.376892050   -5.182603740   0.000000000       2
-0.824371900   -3.460866440   0.000000000       3
-1.170571480   -1.270002100   0.000000000       3
-2.706933680   -0.417515780   0.000000000       2
-2.754569660   0.634858620    0.000000000       1
-3.637675640   -0.909967860   0.000000000       1
0.218091790    -0.234193970   0.000000000       2
1.872004100    -0.697162300   0.000000000       3
2.828001130    0.461464770    0.000000000       1
2.648150080    -2.255024470   0.000000000       2
1.391921380    -3.454727220   0.000000000       3
1.888441637    5.388520112    0.000000000       2
0.561070117    6.598724412    0.000000000       3
1.201071387    7.960042652    0.000000000       1
-1.524675823   5.928193062    0.000000000       3
-3.554238423   7.058309252    0.000000000       3
-3.400002653   8.218539462    0.940305280       1
-4.540173143   6.036388632    0.512613700       1
-3.970453383   7.534535102    -1.366678340      1
-1.458180403   3.654216442    0.000000000       3
-2.497229133   2.461156942    0.000000000       4
0.198811177    3.020241252    0.000000000       2
0.180793807    1.957796422    0.000000000       1
1.822414247    3.617311462    0.000000000       3
3.017430417    2.602886262    0.000000000       4
2.888479007    5.734027212    0.000000000       1
%endblock AtomicCoordinatesAndAtomicSpecies
%include ../../../Defaults.fdf
************************** End of input data file *****************************

reinit: -----------------------------------------------------------------------
reinit: System Name: 
reinit: -----------------------------------------------------------------------
reinit: System Label: AT
reinit: -----------------------------------------------------------------------

initatom: Reading input for the pseudopotentials and atomic orbitals ----------
Species number:   1 Atomic number:    1 Label: H
Species number:   2 Atomic number:    7 Label: N
Species number:   3 Atomic number:   14 Label: Si
Species number:   4 Atomic number:    8 Label: O

Ground state valence configuration:   1s01
Reading pseudopotential information in formatted form from H.psf

Pseudopotential generated from a relativistic atomic calculation

Valence configuration for pseudopotential generation:
1s( 1.00) rc: 0.01
2p( 0.00) rc: 0.60
3d( 0.00) rc: 1.99
4f( 0.00) rc: 2.49
Ground state valence configuration:   2s02  2p03
Reading pseudopotential information in formatted form from N.psf

Pseudopotential generated from a relativistic atomic calculation

Valence configuration for pseudopotential generation:
2s( 2.00) rc: 0.94
2p( 3.00) rc: 0.59
3d( 0.00) rc: 3.46
4f( 0.00) rc: 2.47
Ground state valence configuration:   3s02  3p02
Reading pseudopotential information in formatted form from Si.psf

Pseudopotential generated from a relativistic atomic calculation

Valence configuration for pseudopotential generation:
3s( 2.00) rc: 1.67
3p( 2.00) rc: 2.04
3d( 0.00) rc: 2.89
4f( 0.00) rc: 2.49
Ground state valence configuration:   2s02  2p04
Reading pseudopotential information in formatted form from O.psf

Pseudopotential generated from a relativistic atomic calculation

Valence configuration for pseudopotential generation:
2s( 2.00) rc: 0.45
2p( 4.00) rc: 0.92
3d( 0.00) rc: 2.24
4f( 0.00) rc: 0.25
For H, standard SIESTA heuristics set lmxkb to 2
 (one more than the basis l, including polarization orbitals).
Use PS.lmax or PS.KBprojectors blocks to override.
For N, standard SIESTA heuristics set lmxkb to 3
 (one more than the basis l, including polarization orbitals).
Use PS.lmax or PS.KBprojectors blocks to override.
For Si, standard SIESTA heuristics set lmxkb to 3
 (one more than the basis l, including polarization orbitals).
Use PS.lmax or PS.KBprojectors blocks to override.
For O, standard SIESTA heuristics set lmxkb to 3
 (one more than the basis l, including polarization orbitals).
Use PS.lmax or PS.KBprojectors blocks to override.

<basis_specs>
===============================================================================
H                    Z=   1    Mass=  1.0100        Charge= 0.17977+309
Lmxo=0 Lmxkb= 2    BasisType=split      Semic=F
L=0  Nsemic=0  Cnfigmx=1
          i=1  nzeta=2  polorb=1  (1s)
            splnorm:   0.62000    
               vcte:    0.0000    
               rinn:    0.0000    
               qcoe:    0.0000    
               qyuk:    0.0000    
               qwid:   0.10000E-01
                rcs:    0.0000      0.0000    
            lambdas:    1.0000      1.0000    
-------------------------------------------------------------------------------
L=0  Nkbl=1  erefs: 0.17977+309
L=1  Nkbl=1  erefs: 0.17977+309
L=2  Nkbl=1  erefs: 0.17977+309
===============================================================================
</basis_specs>

atom: Called for H                     (Z =   1)

read_vps: Pseudopotential generation method:
read_vps: ATM4.2.7  Troullier-Martins                       
Valence charge for ps generation:    1.00000

xc_check: Exchange-correlation functional:
xc_check: GGA Perdew, Burke & Ernzerhof 1996
V l=0 = -2*Zval/r beyond r=  0.0098
V l=1 = -2*Zval/r beyond r=  0.5817
V l=2 = -2*Zval/r beyond r=  1.9372
All V_l potentials equal beyond r=  1.9372
This should be close to max(r_c) in ps generation
All pots = -2*Zval/r beyond r=  1.9372

VLOCAL1: 99.0% of the norm of Vloc inside     11.567 Ry
VLOCAL1: 99.9% of the norm of Vloc inside     26.362 Ry
atom: Maximum radius for 4*pi*r*r*local-pseudopot. charge    2.25106
atom: Maximum radius for r*vlocal+2*Zval:    1.91306
GHOST: No ghost state for L =  0
GHOST: No ghost state for L =  1
GHOST: No ghost state for L =  2

KBgen: Kleinman-Bylander projectors: 
   l= 0   rc=  2.036604   el= -0.477180   Ekb= -6.081590   kbcos= -0.277285
   l= 1   rc=  2.195416   el=  0.001076   Ekb= -0.926943   kbcos= -0.034643
   l= 2   rc=  2.251056   el=  0.002010   Ekb= -0.130941   kbcos= -0.009788

KBgen: Total number of Kleinman-Bylander projectors:    9
atom: -------------------------------------------------------------------------

atom: SANKEY-TYPE ORBITALS:
atom: Selected multiple-zeta basis: split     

SPLIT: Orbitals with angular momentum L= 0

SPLIT: Basis orbitals for state 1s

SPLIT: PAO cut-off radius determined from an
SPLIT: energy shift=  0.002000 Ry

   izeta = 1
                 lambda =    1.000000
                     rc =    6.518340
                 energy =   -0.475305
                kinetic =    0.912139
    potential(screened) =   -1.387444
       potential(ionic) =   -1.907295

   izeta = 2
                 rmatch =    2.141150
              splitnorm =    0.620000
                 energy =    0.566467
                kinetic =    3.772856
    potential(screened) =   -3.206389
       potential(ionic) =   -3.759093

POLgen: Perturbative polarization orbital with L=  1

POLgen: Polarization orbital for state 1s

   izeta = 1
                     rc =    6.518340
                 energy =    0.533861
                kinetic =    1.121086
    potential(screened) =   -0.587225
       potential(ionic) =   -1.053027
atom: Total number of Sankey-type orbitals:  5

atm_pop: Valence configuration (for local Pseudopot. screening):
 1s( 1.00)                                                            
Vna: chval, zval:    1.00000   1.00000

Vna:  Cut-off radius for the neutral-atom potential:   6.518340

atom: _________________________________________________________________________

<basis_specs>
===============================================================================
N                    Z=   7    Mass=  14.010        Charge= 0.17977+309
Lmxo=1 Lmxkb= 3    BasisType=split      Semic=F
L=0  Nsemic=0  Cnfigmx=2
          i=1  nzeta=2  polorb=0  (2s)
            splnorm:   0.28000    
               vcte:    0.0000    
               rinn:    0.0000    
               qcoe:    0.0000    
               qyuk:    0.0000    
               qwid:   0.10000E-01
                rcs:    0.0000      0.0000    
            lambdas:    1.0000      1.0000    
L=1  Nsemic=0  Cnfigmx=2
          i=1  nzeta=2  polorb=1  (2p)
            splnorm:   0.28000    
               vcte:    0.0000    
               rinn:    0.0000    
               qcoe:    0.0000    
               qyuk:    0.0000    
               qwid:   0.10000E-01
                rcs:    0.0000      0.0000    
            lambdas:    1.0000      1.0000    
-------------------------------------------------------------------------------
L=0  Nkbl=1  erefs: 0.17977+309
L=1  Nkbl=1  erefs: 0.17977+309
L=2  Nkbl=1  erefs: 0.17977+309
L=3  Nkbl=1  erefs: 0.17977+309
===============================================================================
</basis_specs>

atom: Called for N                     (Z =   7)

read_vps: Pseudopotential generation method:
read_vps: ATM4.2.7  Troullier-Martins                       
Valence charge for ps generation:    5.00000

xc_check: Exchange-correlation functional:
xc_check: GGA Perdew, Burke & Ernzerhof 1996
V l=0 = -2*Zval/r beyond r=  1.2889
V l=1 = -2*Zval/r beyond r=  1.2889
V l=2 = -2*Zval/r beyond r=  3.4178
V l=3 = -2*Zval/r beyond r=  2.4084
All V_l potentials equal beyond r=  3.3753
This should be close to max(r_c) in ps generation
All pots = -2*Zval/r beyond r=  3.4178

VLOCAL1: 99.0% of the norm of Vloc inside      3.810 Ry
VLOCAL1: 99.9% of the norm of Vloc inside      8.683 Ry
atom: Maximum radius for 4*pi*r*r*local-pseudopot. charge    4.02088
atom: Maximum radius for r*vlocal+2*Zval:    3.54838
GHOST: No ghost state for L =  0
GHOST: No ghost state for L =  1
GHOST: No ghost state for L =  2
GHOST: No ghost state for L =  3

KBgen: Kleinman-Bylander projectors: 
   l= 0   rc=  3.417763   el= -1.365098   Ekb= -4.433130   kbcos= -0.707855
   l= 1   rc=  3.375302   el= -0.521201   Ekb=-13.264039   kbcos= -0.535594
   l= 2   rc=  3.872880   el=  0.001991   Ekb= -0.641094   kbcos= -0.062456
   l= 3   rc=  3.970931   el=  0.003093   Ekb= -0.474517   kbcos= -0.018236

KBgen: Total number of Kleinman-Bylander projectors:   16
atom: -------------------------------------------------------------------------

atom: SANKEY-TYPE ORBITALS:
atom: Selected multiple-zeta basis: split     

SPLIT: Orbitals with angular momentum L= 0

SPLIT: Basis orbitals for state 2s

SPLIT: PAO cut-off radius determined from an
SPLIT: energy shift=  0.002000 Ry

   izeta = 1
                 lambda =    1.000000
                     rc =    4.730425
                 energy =   -1.363399
                kinetic =    1.245246
    potential(screened) =   -2.608645
       potential(ionic) =   -8.121105

   izeta = 2
                 rmatch =    2.531849
              splitnorm =    0.280000
                 energy =   -0.959908
                kinetic =    2.409435
    potential(screened) =   -3.369343
       potential(ionic) =   -9.427975

SPLIT: Orbitals with angular momentum L= 1

SPLIT: Basis orbitals for state 2p

SPLIT: PAO cut-off radius determined from an
SPLIT: energy shift=  0.002000 Ry

   izeta = 1
                 lambda =    1.000000
                     rc =    5.924108
                 energy =   -0.519262
                kinetic =    3.672940
    potential(screened) =   -4.192202
       potential(ionic) =   -9.518354

   izeta = 2
                 rmatch =    2.531849
              splitnorm =    0.280000
                 energy =   -0.104258
                kinetic =    6.807538
    potential(screened) =   -6.911796
       potential(ionic) =  -13.149920

POLgen: Perturbative polarization orbital with L=  2

POLgen: Polarization orbital for state 2p

   izeta = 1
                     rc =    5.924108
                 energy =    1.427508
                kinetic =    2.872379
    potential(screened) =   -1.444871
       potential(ionic) =   -5.563644
atom: Total number of Sankey-type orbitals: 13

atm_pop: Valence configuration (for local Pseudopot. screening):
 2s( 2.00)                                                            
 2p( 3.00)                                                            
Vna: chval, zval:    5.00000   5.00000

Vna:  Cut-off radius for the neutral-atom potential:   5.924108

atom: _________________________________________________________________________

<basis_specs>
===============================================================================
Si                   Z=  14    Mass=  28.090        Charge= 0.17977+309
Lmxo=1 Lmxkb= 3    BasisType=split      Semic=F
L=0  Nsemic=0  Cnfigmx=3
          i=1  nzeta=2  polorb=0  (3s)
            splnorm:   0.28000    
               vcte:    0.0000    
               rinn:    0.0000    
               qcoe:    0.0000    
               qyuk:    0.0000    
               qwid:   0.10000E-01
                rcs:    0.0000      0.0000    
            lambdas:    1.0000      1.0000    
L=1  Nsemic=0  Cnfigmx=3
          i=1  nzeta=2  polorb=1  (3p)
            splnorm:   0.28000    
               vcte:    0.0000    
               rinn:    0.0000    
               qcoe:    0.0000    
               qyuk:    0.0000    
               qwid:   0.10000E-01
                rcs:    0.0000      0.0000    
            lambdas:    1.0000      1.0000    
-------------------------------------------------------------------------------
L=0  Nkbl=1  erefs: 0.17977+309
L=1  Nkbl=1  erefs: 0.17977+309
L=2  Nkbl=1  erefs: 0.17977+309
L=3  Nkbl=1  erefs: 0.17977+309
===============================================================================
</basis_specs>

atom: Called for Si                    (Z =  14)

read_vps: Pseudopotential generation method:
read_vps: ATM4.2.7  Troullier-Martins                       
Valence charge for ps generation:    4.00000

xc_check: Exchange-correlation functional:
xc_check: GGA Perdew, Burke & Ernzerhof 1996
V l=0 = -2*Zval/r beyond r=  2.7826
V l=1 = -2*Zval/r beyond r=  2.7826
V l=2 = -2*Zval/r beyond r=  2.9253
V l=3 = -2*Zval/r beyond r=  2.7826
All V_l potentials equal beyond r=  2.8530
This should be close to max(r_c) in ps generation
All pots = -2*Zval/r beyond r=  2.9253

VLOCAL1: 99.0% of the norm of Vloc inside      5.333 Ry
VLOCAL1: 99.9% of the norm of Vloc inside     12.154 Ry
atom: Maximum radius for 4*pi*r*r*local-pseudopot. charge    3.39869
atom: Maximum radius for r*vlocal+2*Zval:    2.96205
GHOST: No ghost state for L =  0
GHOST: No ghost state for L =  1
GHOST: No ghost state for L =  2
GHOST: No ghost state for L =  3

KBgen: Kleinman-Bylander projectors: 
   l= 0   rc=  3.075247   el= -0.794092   Ekb=  5.879390   kbcos=  0.167461
   l= 1   rc=  3.153101   el= -0.300068   Ekb=  2.642817   kbcos=  0.058301
   l= 2   rc=  3.273594   el=  0.001958   Ekb= -1.185135   kbcos= -0.104411
   l= 3   rc=  3.232927   el=  0.003046   Ekb= -0.497174   kbcos= -0.015889

KBgen: Total number of Kleinman-Bylander projectors:   16
atom: -------------------------------------------------------------------------

atom: SANKEY-TYPE ORBITALS:
atom: Selected multiple-zeta basis: split     

SPLIT: Orbitals with angular momentum L= 0

SPLIT: Basis orbitals for state 3s

SPLIT: PAO cut-off radius determined from an
SPLIT: energy shift=  0.002000 Ry

   izeta = 1
                 lambda =    1.000000
                     rc =    6.429618
                 energy =   -0.792283
                kinetic =    0.525293
    potential(screened) =   -1.317576
       potential(ionic) =   -3.744923

   izeta = 2
                 rmatch =    3.998416
              splitnorm =    0.280000
                 energy =   -0.583081
                kinetic =    1.069570
    potential(screened) =   -1.652651
       potential(ionic) =   -4.235185

SPLIT: Orbitals with angular momentum L= 1

SPLIT: Basis orbitals for state 3p

SPLIT: PAO cut-off radius determined from an
SPLIT: energy shift=  0.002000 Ry

   izeta = 1
                 lambda =    1.000000
                     rc =    8.464845
                 energy =   -0.298236
                kinetic =    0.785360
    potential(screened) =   -1.083596
       potential(ionic) =   -3.273779

   izeta = 2
                 rmatch =    4.587816
              splitnorm =    0.280000
                 energy =   -0.131871
                kinetic =    1.403687
    potential(screened) =   -1.535557
       potential(ionic) =   -4.015310

POLgen: Perturbative polarization orbital with L=  2

POLgen: Polarization orbital for state 3p

   izeta = 1
                     rc =    8.464845
                 energy =    0.321949
                kinetic =    1.055677
    potential(screened) =   -0.733728
       potential(ionic) =   -2.672950
atom: Total number of Sankey-type orbitals: 13

atm_pop: Valence configuration (for local Pseudopot. screening):
 3s( 2.00)                                                            
 3p( 2.00)                                                            
Vna: chval, zval:    4.00000   4.00000

Vna:  Cut-off radius for the neutral-atom potential:   8.464845

atom: _________________________________________________________________________

<basis_specs>
===============================================================================
O                    Z=   8    Mass=  16.000        Charge= 0.17977+309
Lmxo=1 Lmxkb= 3    BasisType=split      Semic=F
L=0  Nsemic=0  Cnfigmx=2
          i=1  nzeta=2  polorb=0  (2s)
            splnorm:   0.28000    
               vcte:    0.0000    
               rinn:    0.0000    
               qcoe:    0.0000    
               qyuk:    0.0000    
               qwid:   0.10000E-01
                rcs:    0.0000      0.0000    
            lambdas:    1.0000      1.0000    
L=1  Nsemic=0  Cnfigmx=2
          i=1  nzeta=2  polorb=1  (2p)
            splnorm:   0.28000    
               vcte:    0.0000    
               rinn:    0.0000    
               qcoe:    0.0000    
               qyuk:    0.0000    
               qwid:   0.10000E-01
                rcs:    0.0000      0.0000    
            lambdas:    1.0000      1.0000    
-------------------------------------------------------------------------------
L=0  Nkbl=1  erefs: 0.17977+309
L=1  Nkbl=1  erefs: 0.17977+309
L=2  Nkbl=1  erefs: 0.17977+309
L=3  Nkbl=1  erefs: 0.17977+309
===============================================================================
</basis_specs>

atom: Called for O                     (Z =   8)

read_vps: Pseudopotential generation method:
read_vps: ATM4.2.7  Troullier-Martins                       
Valence charge for ps generation:    6.00000

xc_check: Exchange-correlation functional:
xc_check: GGA Perdew, Burke & Ernzerhof 1996
V l=0 = -2*Zval/r beyond r=  1.1000
V l=1 = -2*Zval/r beyond r=  1.1000
V l=2 = -2*Zval/r beyond r=  2.2154
V l=3 = -2*Zval/r beyond r=  1.1000
All V_l potentials equal beyond r=  2.2154
This should be close to max(r_c) in ps generation
All pots = -2*Zval/r beyond r=  2.2154

VLOCAL1: 99.0% of the norm of Vloc inside      8.845 Ry
VLOCAL1: 99.9% of the norm of Vloc inside     20.157 Ry
atom: Maximum radius for 4*pi*r*r*local-pseudopot. charge    2.67231
atom: Maximum radius for r*vlocal+2*Zval:    2.32897
GHOST: No ghost state for L =  0
GHOST: No ghost state for L =  1
GHOST: No ghost state for L =  2
GHOST: No ghost state for L =  3

KBgen: Kleinman-Bylander projectors: 
   l= 0   rc=  2.243238   el= -1.759686   Ekb=**********   kbcos= -0.171774
   l= 1   rc=  2.328968   el= -0.663873   Ekb=-14.506792   kbcos= -0.519897
   l= 2   rc=  2.573941   el=  0.002031   Ekb= -1.137373   kbcos= -0.019581
   l= 3   rc=  2.606321   el=  0.003153   Ekb= -1.013546   kbcos= -0.003122

KBgen: Total number of Kleinman-Bylander projectors:   16
atom: -------------------------------------------------------------------------

atom: SANKEY-TYPE ORBITALS:
atom: Selected multiple-zeta basis: split     

SPLIT: Orbitals with angular momentum L= 0

SPLIT: Basis orbitals for state 2s

SPLIT: PAO cut-off radius determined from an
SPLIT: energy shift=  0.002000 Ry

   izeta = 1
                 lambda =    1.000000
                     rc =    4.243912
                 energy =   -1.758270
                kinetic =    3.286084
    potential(screened) =   -5.044353
       potential(ionic) =  -12.921184

   izeta = 2
                 rmatch =    2.187845
              splitnorm =    0.280000
                 energy =   -0.885018
                kinetic =    8.134434
    potential(screened) =   -9.019452
       potential(ionic) =  -17.710645

SPLIT: Orbitals with angular momentum L= 1

SPLIT: Basis orbitals for state 2p

SPLIT: PAO cut-off radius determined from an
SPLIT: energy shift=  0.002000 Ry

   izeta = 1
                 lambda =    1.000000
                     rc =    5.314825
                 energy =   -0.661986
                kinetic =    4.917472
    potential(screened) =   -5.579458
       potential(ionic) =  -13.236259

   izeta = 2
                 rmatch =    2.160663
              splitnorm =    0.280000
                 energy =   -0.068760
                kinetic =    9.183374
    potential(screened) =   -9.252135
       potential(ionic) =  -18.274251

POLgen: Perturbative polarization orbital with L=  2

POLgen: Polarization orbital for state 2p

   izeta = 1
                     rc =    5.314825
                 energy =    1.970580
                kinetic =    3.886128
    potential(screened) =   -1.915547
       potential(ionic) =   -7.749584
atom: Total number of Sankey-type orbitals: 13

atm_pop: Valence configuration (for local Pseudopot. screening):
 2s( 2.00)                                                            
 2p( 4.00)                                                            
Vna: chval, zval:    6.00000   6.00000

Vna:  Cut-off radius for the neutral-atom potential:   5.314825

atom: _________________________________________________________________________

prinput: Basis input ----------------------------------------------------------

PAO.BasisType split     

%block ChemicalSpeciesLabel
    1    1 H                       # Species index, atomic number, species label
    2    7 N                       # Species index, atomic number, species label
    3   14 Si                      # Species index, atomic number, species label
    4    8 O                       # Species index, atomic number, species label
%endblock ChemicalSpeciesLabel

%block PAO.Basis                 # Define Basis set
H                     1                    # Species label, number of l-shells
 n=1   0   2 P   1                   # n, l, Nzeta, Polarization, NzetaPol
   6.518      2.141   
   1.000      1.000   
N                     2                    # Species label, number of l-shells
 n=2   0   2                         # n, l, Nzeta 
   4.730      2.532   
   1.000      1.000   
 n=2   1   2 P   1                   # n, l, Nzeta, Polarization, NzetaPol
   5.924      2.532   
   1.000      1.000   
Si                    2                    # Species label, number of l-shells
 n=3   0   2                         # n, l, Nzeta 
   6.430      3.998   
   1.000      1.000   
 n=3   1   2 P   1                   # n, l, Nzeta, Polarization, NzetaPol
   8.465      4.588   
   1.000      1.000   
O                     2                    # Species label, number of l-shells
 n=2   0   2                         # n, l, Nzeta 
   4.244      2.188   
   1.000      1.000   
 n=2   1   2 P   1                   # n, l, Nzeta, Polarization, NzetaPol
   5.315      2.161   
   1.000      1.000   
%endblock PAO.Basis

prinput: ----------------------------------------------------------------------

Dumping basis to NetCDF file H.ion.nc
Dumping basis to NetCDF file N.ion.nc
Dumping basis to NetCDF file Si.ion.nc
Dumping basis to NetCDF file O.ion.nc
coor:   Atomic-coordinates input format  =     Cartesian coordinates
coor:                                          (in Angstroms)

siesta: Atomic coordinates (Bohr) and species
siesta:      4.87999 -10.91663   0.00000  1        1
siesta:      3.12704  -9.95765   0.00000  2        2
siesta:      0.11930 -11.53056   0.00000  3        3
siesta:      0.22530 -14.35597   0.00000  1        4
siesta:     -2.60195  -9.79371   0.00000  2        5
siesta:     -1.55784  -6.54009   0.00000  3        6
siesta:     -2.21206  -2.39996   0.00000  3        7
siesta:     -5.11537  -0.78899   0.00000  2        8
siesta:     -5.20538   1.19971   0.00000  1        9
siesta:     -6.87421  -1.71959   0.00000  1       10
siesta:      0.41213  -0.44256   0.00000  2       11
siesta:      3.53758  -1.31745   0.00000  3       12
siesta:      5.34415   0.87204   0.00000  1       13
siesta:      5.00428  -4.26138   0.00000  2       14
siesta:      2.63035  -6.52849   0.00000  3       15
siesta:      3.56864  10.18283   0.00000  2       16
siesta:      1.06027  12.46979   0.00000  3       17
siesta:      2.26970  15.04231   0.00000  1       18
siesta:     -2.88122  11.20267   0.00000  3       19
siesta:     -6.71654  13.33828   0.00000  3       20
siesta:     -6.42508  15.53079   1.77692  1       21
siesta:     -8.57969  11.40713   0.96870  1       22
siesta:     -7.50307  14.23821  -2.58265  1       23
siesta:     -2.75556   6.90547   0.00000  3       24
siesta:     -4.71908   4.65091   0.00000  4       25
siesta:      0.37570   5.70743   0.00000  2       26
siesta:      0.34165   3.69970   0.00000  1       27
siesta:      3.44387   6.83573   0.00000  3       28
siesta:      5.70212   4.91874   0.00000  4       29
siesta:      5.45844  10.83575   0.00000  1       30

siesta: Automatic unit cell vectors (Ang):
siesta:   15.823550    0.000000    0.000000
siesta:    0.000000   24.985511    0.000000
siesta:    0.000000    0.000000   10.224979

siesta: System type = molecule  

initatomlists: Number of atoms, orbitals, and projectors:     30   302   403

siesta: ******************** Simulation parameters ****************************
siesta:
siesta: The following are some of the parameters of the simulation.
siesta: A complete list of the parameters used, including default values,
siesta: can be found in file out.fdf
siesta:
redata: Spin configuration                          = spin-orbit
redata: Number of spin components                   = 8
redata: Time-Reversal Symmetry                      = F
redata: Spin spiral                                 = F
############################################################
This spin-orbit implementation uses a local approximation.
From 4.2 and onwards the full non-local approximation is implemented
You are strongly advised to use >=4.2 versions!
############################################################
redata: Long output                                 =   F
redata: Number of Atomic Species                    =        4
redata: Charge density info will appear in .RHO file
redata: Write Mulliken Pop.                         = Atomic and Orbital charges
redata: Matel table size (NRTAB)                    =     1024
redata: Mesh Cutoff                                 =   340.0000 Ry
redata: Net charge of the system                    =     0.0000 |e|
redata: Min. number of SCF Iter                     =        1
redata: Max. number of SCF Iter                     =      200
redata: SCF mix quantity                            = Hamiltonian
redata: Mix DM or H after convergence               =   F
redata: Recompute H after scf cycle                 =   F
redata: Mix DM in first SCF step                    =   T
redata: Write Pulay info on disk                    =   F
redata: New DM Occupancy tolerance                  = 0.000000000001
redata: No kicks to SCF
redata: DM Mixing Weight for Kicks                  =     0.5000
redata: Require Harris convergence for SCF          =   F
redata: Harris energy tolerance for SCF             =     0.000100 eV
redata: Require DM convergence for SCF              =   T
redata: DM tolerance for SCF                        =     0.000008
redata: Require EDM convergence for SCF             =   F
redata: EDM tolerance for SCF                       =     0.001000 eV
redata: Require H convergence for SCF               =   T
redata: Hamiltonian tolerance for SCF               =     0.000001 eV
redata: Require (free) Energy convergence for SCF   =   F
redata: (free) Energy tolerance for SCF             =     0.000100 eV
redata: Using Saved Data (generic)                  =   F
redata: Use continuation files for DM               =   F
redata: Neglect nonoverlap interactions             =   F
redata: Method of Calculation                       = Diagonalization
redata: Electronic Temperature                      =   299.9978 K
redata: Fix the spin of the system                  =   F
redata: Dynamics option                             = Single-point calculation
mix.SCF: Pulay mixing                            = Pulay
mix.SCF:    Variant                              = stable
mix.SCF:    History steps                        = 6
mix.SCF:    Linear mixing weight                 =     0.250000
mix.SCF:    Mixing weight                        =     0.250000
mix.SCF:    SVD condition                        = 0.1000E-07
mix.SCF:    Restart steps                        = 24
mix.SCF:    Restart save steps                   = 3
mix.SCF: Spin-component mixing                   all
redata: Save all siesta data in one NC              =   F
redata: ***********************************************************************

%block SCF.Mixers
  Pulay
%endblock SCF.Mixers

%block SCF.Mixer.Pulay
  # Mixing method
  method pulay
  variant stable

  # Mixing options
  weight 0.2500
  weight.linear 0.2500
  history 6
  restart 24
  restart.save 3
%endblock SCF.Mixer.Pulay

DM_history_depth set to one: no extrapolation allowed by default for geometry relaxation
Size of DM history Fstack: 1
Total number of electrons:    98.000000
Total ionic charge:    98.000000

* ProcessorY, Blocksize:    2  24


* Orbital distribution balance (max,min):    62    48


Time-reversal symmetry not used.

siesta: k-grid: Number of k-points =     1
siesta: k-grid: Cutoff (effective) =     5.112 Ang
siesta: k-grid: Supercell and displacements
siesta: k-grid:    1   0   0      0.000
siesta: k-grid:    0   1   0      0.000
siesta: k-grid:    0   0   1      0.000

diag: Algorithm                                     = ELPA-1stage
diag: Parallel over k                               =   F
diag: Use parallel 2D distribution                  =   T
diag: Parallel block-size                           = 24
diag: Parallel distribution                         =     2 x     3
diag: Used triangular part                          = Lower
diag: Absolute tolerance                            =  0.100E-15
diag: Orthogonalization factor                      =  0.100E-05
diag: Memory factor                                 =  1.0000


ts: **************************************************************
ts: Save H and S matrices                           =    F
ts: Save DM and EDM matrices                        =    F
ts: Only save the overlap matrix S                  =    F
ts: **************************************************************

************************ Begin: TS CHECKS AND WARNINGS ************************
************************ End: TS CHECKS AND WARNINGS **************************


                     ====================================
                        Single-point calculation
                     ====================================

outcoor: Atomic coordinates (Ang):                          
    2.58237765   -5.77683044    0.00000000   1       1  H
    1.65475924   -5.26936198    0.00000000   2       2  N
    0.06312884   -6.10170459    0.00000000   3       3  Si
    0.11922324   -7.59684950    0.00000000   1       4  H
   -1.37689205   -5.18260374    0.00000000   2       5  N
   -0.82437190   -3.46086644    0.00000000   3       6  Si
   -1.17057148   -1.27000210    0.00000000   3       7  Si
   -2.70693368   -0.41751578    0.00000000   2       8  N
   -2.75456966    0.63485862    0.00000000   1       9  H
   -3.63767564   -0.90996786    0.00000000   1      10  H
    0.21809179   -0.23419397    0.00000000   2      11  N
    1.87200410   -0.69716230    0.00000000   3      12  Si
    2.82800113    0.46146477    0.00000000   1      13  H
    2.64815008   -2.25502447    0.00000000   2      14  N
    1.39192138   -3.45472722    0.00000000   3      15  Si
    1.88844164    5.38852011    0.00000000   2      16  N
    0.56107012    6.59872441    0.00000000   3      17  Si
    1.20107139    7.96004265    0.00000000   1      18  H
   -1.52467582    5.92819306    0.00000000   3      19  Si
   -3.55423842    7.05830925    0.00000000   3      20  Si
   -3.40000265    8.21853946    0.94030528   1      21  H
   -4.54017314    6.03638863    0.51261370   1      22  H
   -3.97045338    7.53453510   -1.36667834   1      23  H
   -1.45818040    3.65421644    0.00000000   3      24  Si
   -2.49722913    2.46115694    0.00000000   4      25  O
    0.19881118    3.02024125    0.00000000   2      26  N
    0.18079381    1.95779642    0.00000000   1      27  H
    1.82241425    3.61731146    0.00000000   3      28  Si
    3.01743042    2.60288626    0.00000000   4      29  O
    2.88847901    5.73402721    0.00000000   1      30  H

outcell: Unit cell vectors (Ang):
       15.823550    0.000000    0.000000
        0.000000   24.985511    0.000000
        0.000000    0.000000   10.224979

outcell: Cell vector modules (Ang)   :   15.823550   24.985511   10.224979
outcell: Cell angles (23,13,12) (deg):     90.0000     90.0000     90.0000
outcell: Cell volume (Ang**3)        :   4042.5425
<dSpData1D:S at geom step 0
  <sparsity:sparsity for geom step 0
    nrows_g=302 nrows=62 sparsity=.1471 nnzs=13416, refcount: 8>
  <dData1D:(new from dSpData1D) n=13416, refcount: 1>
refcount: 1>
new_DM -- step:     1
Initializing Density Matrix...
DM filled with atomic data:
<dSpData2D:DM initialized from atoms
  <sparsity:sparsity for geom step 0
    nrows_g=302 nrows=62 sparsity=.1471 nnzs=13416, refcount: 9>
  <dData2D:DM n=13416 m=8, refcount: 1>
refcount: 1>
     spin moment: S , {S} =   56.00000   0.00000   0.00000  56.00000
No. of atoms with KB's overlaping orbs in proc 0. Max # of overlaps:      24     198

Initializing spin-orbit part of the Hamiltonian
  Adding spin-orbit effects for H 
  Adding spin-orbit effects for N 
  Adding spin-orbit effects for Si
  Adding spin-orbit effects for O 


New grid distribution:   1
           1       1:   90    1:   72    1:   20
           2       1:   90    1:   72   21:   40
           3       1:   90    1:   72   41:   60
           4       1:   90   73:  144    1:   20
           5       1:   90   73:  144   21:   40
           6       1:   90   73:  144   41:   60

InitMesh: MESH =   180 x   288 x   120 =     6220800
InitMesh: (bp) =    90 x   144 x    60 =      777600
InitMesh: Mesh cutoff (required, used) =   340.000   357.634 Ry
ExtMesh (bp) on 0 =   194 x   176 x   128 =     4370432
New grid distribution:   2
           1      14:   90   21:   41    1:   60
           2       1:   12   42:  144    1:   60
           3       1:   13    1:   41    1:   60
           4      13:   90   42:  123    1:   60
           5      13:   90  124:  144    1:   60
           6      14:   90    1:   20    1:   60
New grid distribution:   3
           1       1:   18   54:  144    1:   60
           2      24:   90   30:   53    1:   60
           3       1:   23    1:   53    1:   60
           4      19:   90   54:  118    1:   60
           5      24:   90    1:   29    1:   60
           6      19:   90  119:  144    1:   60
Setting up quadratic distribution...
ExtMesh (bp) on 0 =   181 x   125 x   168 =     3801000
PhiOnMesh: Number of (b)points on node 0 =                97020
PhiOnMesh: nlist on node 0 =              1838398

stepf: Fermi-Dirac step function

siesta: Program's energy decomposition (eV):
siesta: Ebs     =      -615.134928
siesta: Eions   =      3553.971015
siesta: Ena     =       377.539460
siesta: Ekin    =      3178.135103
siesta: Enl     =     -2993.548399
siesta: Eso     =        -0.003949
siesta: Edftu   =         0.000000
siesta: DEna    =       130.546497
siesta: DUscf   =        74.440906
siesta: DUext   =         0.000000
siesta: Exc     =     -1170.635099
siesta: eta*DQ  =         0.000000
siesta: Emadel  =         0.000000
siesta: Emeta   =         0.000000
siesta: Emolmec =         0.000000
siesta: Ekinion =         0.000000
siesta: Eharris =     -3886.928987
siesta: Etot    =     -3957.496496
siesta: FreeEng =     -3957.500773

        iscf     Eharris(eV)        E_KS(eV)     FreeEng(eV)     dDmax    Ef(eV) dHmax(eV)
   scf:    1    -3886.928987    -3957.496496    -3957.500773  0.970223 -4.943133 20.645740
     spin moment: S , {S} =    2.03246   0.00003   0.00001   2.03246
timer: Routine,Calls,Time,% = IterSCF        1       5.660  21.21
   scf:    2    -4000.829829    -3991.088437    -3991.088439  0.454656 -4.362580  9.986594
     spin moment: S , {S} =    2.00011  -0.00000   0.00004   2.00011
   scf:    3    -3994.358660    -3996.285653    -3996.295854  0.417560 -4.236738  7.354195
     spin moment: S , {S} =    0.09871   0.00001  -0.00000   0.09871
   scf:    4    -3999.333703    -3997.977716    -3997.977716  0.026530 -3.908675  5.367505
     spin moment: S , {S} =    0.00009   0.00001  -0.00000   0.00009
   scf:    5    -3999.594261    -3998.815010    -3998.815023  0.033323 -3.842256  2.815156
     spin moment: S , {S} =    0.00009   0.00000  -0.00000   0.00009
   scf:    6    -3999.489442    -3999.150719    -3999.150985  0.029611 -3.876332  0.901319
     spin moment: S , {S} =    0.00124   0.00000  -0.00000   0.00124
   scf:    7    -3999.353640    -3999.247840    -3999.249843  0.017587 -3.927858  0.316634
     spin moment: S , {S} =    0.00180   0.00000   0.00000  -0.00180
   scf:    8    -3999.305991    -3999.275860    -3999.278153  0.008408 -3.951312  0.176703
     spin moment: S , {S} =    0.00709   0.00000   0.00000  -0.00709
   scf:    9    -3999.309376    -3999.291646    -3999.293355  0.007415 -3.957305  0.083873
     spin moment: S , {S} =    0.00478   0.00000   0.00000  -0.00478
   scf:   10    -3999.303699    -3999.297299    -3999.298998  0.004865 -3.957504  0.066825
     spin moment: S , {S} =    0.00420   0.00000   0.00000  -0.00420
   scf:   11    -3999.309648    -3999.302536    -3999.303915  0.008287 -3.957840  0.042321
     spin moment: S , {S} =    0.00148   0.00000   0.00000  -0.00148
   scf:   12    -3999.303875    -3999.303121    -3999.304588  0.003191 -3.956863  0.024287
     spin moment: S , {S} =    0.00091   0.00000   0.00000  -0.00091
   scf:   13    -3999.303668    -3999.303357    -3999.304847  0.002346 -3.956140  0.015624
     spin moment: S , {S} =    0.00044   0.00000   0.00000  -0.00044
   scf:   14    -3999.303581    -3999.303457    -3999.304944  0.001512 -3.955646  0.011384
     spin moment: S , {S} =    0.00018   0.00000   0.00000  -0.00018
   scf:   15    -3999.303553    -3999.303500    -3999.304988  0.001057 -3.955382  0.007374
     spin moment: S , {S} =    0.00009   0.00000   0.00000  -0.00009
   scf:   16    -3999.303573    -3999.303530    -3999.305014  0.001188 -3.955284  0.003020
     spin moment: S , {S} =    0.00004   0.00000   0.00000  -0.00004
   scf:   17    -3999.303542    -3999.303535    -3999.305017  0.000349 -3.955375  0.001702
     spin moment: S , {S} =    0.00002   0.00000   0.00000  -0.00002
   scf:   18    -3999.303537    -3999.303536    -3999.305018  0.000227 -3.955425  0.000790
     spin moment: S , {S} =    0.00001   0.00000   0.00000  -0.00001
   scf:   19    -3999.303536    -3999.303536    -3999.305019  0.000116 -3.955447  0.000686
     spin moment: S , {S} =    0.00001   0.00000   0.00000  -0.00001
   scf:   20    -3999.303535    -3999.303535    -3999.305019  0.000059 -3.955443  0.000404
     spin moment: S , {S} =    0.00001   0.00000   0.00000  -0.00001
   scf:   21    -3999.303536    -3999.303536    -3999.305019  0.000043 -3.955440  0.000166
     spin moment: S , {S} =    0.00001   0.00000   0.00000  -0.00001
   scf:   22    -3999.303536    -3999.303536    -3999.305019  0.000015 -3.955440  0.000089
     spin moment: S , {S} =    0.00001   0.00000   0.00000  -0.00001
   scf:   23    -3999.303536    -3999.303536    -3999.305019  0.000006 -3.955439  0.000060
     spin moment: S , {S} =    0.00001   0.00000   0.00000  -0.00001
   scf:   24    -3999.303536    -3999.303536    -3999.305019  0.000005 -3.955437  0.000026
     spin moment: S , {S} =    0.00000   0.00000   0.00000  -0.00000
mix: Pulay -- resetting history
   scf:   25    -3999.303536    -3999.303536    -3999.305019  0.000002 -3.955436  0.000015
     spin moment: S , {S} =    0.00000   0.00000   0.00000  -0.00000
   scf:   26    -3999.303536    -3999.303536    -3999.305019  0.000001 -3.955436  0.000012
     spin moment: S , {S} =    0.00000   0.00000   0.00000  -0.00000
   scf:   27    -3999.303536    -3999.303536    -3999.305019  0.000001 -3.955436  0.000006
     spin moment: S , {S} =    0.00000  -0.00000   0.00000  -0.00000
   scf:   28    -3999.303536    -3999.303536    -3999.305019  0.000001 -3.955436  0.000003
     spin moment: S , {S} =    0.00000  -0.00000   0.00000  -0.00000
   scf:   29    -3999.303536    -3999.303536    -3999.305019  0.000000 -3.955436  0.000002
     spin moment: S , {S} =    0.00000  -0.00000   0.00000  -0.00000
   scf:   30    -3999.303536    -3999.303536    -3999.305019  0.000000 -3.955436  0.000002
     spin moment: S , {S} =    0.00000  -0.00000   0.00000  -0.00000
   scf:   31    -3999.303536    -3999.303536    -3999.305019  0.000000 -3.955436  0.000001
     spin moment: S , {S} =    0.00000   0.00000   0.00000  -0.00000
   scf:   32    -3999.303536    -3999.303536    -3999.305019  0.000000 -3.955436  0.000000
     spin moment: S , {S} =    0.00000   0.00000   0.00000  -0.00000

SCF Convergence by DM+H criterion
max |DM_out - DM_in|         :     0.0000002720
max |H_out - H_in|      (eV) :     0.0000004019
SCF cycle converged after 32 iterations

Using DM_out to compute the final energy and forces
No. of atoms with KB's overlaping orbs in proc 0. Max # of overlaps:      24     198

siesta: E_KS(eV) =            -3999.3035

siesta: E_KS - E_eggbox =     -3999.3035
     spin moment: S , {S} =    0.00000   0.00000   0.00000  -0.00000

siesta: Atomic forces (eV/Ang):
     1   -0.017938    0.004015    0.000004
     2   -0.017107   -0.068440   -0.000014
     3    0.023466    0.048515   -0.000027
     4   -0.026047   -0.027411    0.000019
     5   -0.007043   -0.028699   -0.000031
     6    0.129145   -0.004165    0.000118
     7   -0.759833    0.217929    0.000064
     8    0.235227   -0.702366   -0.000348
     9    0.088976    0.582256    0.000491
    10    0.113019   -0.060379    0.000046
    11    0.032616    0.249740   -0.000138
    12    0.494396    0.029272   -0.000087
    13   -0.150274   -0.184250   -0.000026
    14   -0.062034   -0.135427    0.000089
    15    0.022474    0.029888   -0.000045
    16    0.055286    0.090968    0.007876
    17    0.056174   -0.085485   -0.039433
    18   -0.068066    0.097696    0.008247
    19   -0.109172   -0.007600   -0.041672
    20    0.043844   -0.033250    0.022435
    21   -0.150745    0.182763    0.070783
    22   -0.038938    0.067478    0.028814
    23    0.102541    0.109806   -0.038459
    24    0.492227   -0.037069   -0.026373
    25    0.926766   -3.310362    0.003104
    26   -0.107385    0.606142    0.006892
    27   -0.041058   -0.810023    0.002890
    28   -0.337330   -0.091777   -0.000792
    29   -0.903359    0.221627   -0.001127
    30    0.149372    0.107439    0.007954
----------------------------------------
   Tot    0.169202   -2.941171    0.011254
----------------------------------------
   Max    3.310362
   Res    0.424523    sqrt( Sum f_i^2 / 3N )
----------------------------------------
   Max    3.310362    constrained

Stress tensor Voigt[x,y,z,yz,xz,xy] (kbar):       -1.70       -1.20       -0.22       -0.05        0.05        0.21
(Free)E + p*V (eV/cell)    -3996.6789
Target enthalpy (eV/cell)    -3999.3050

mulliken: Atomic and Orbital Populations:

Species: H                   

Atom      Orb        Charge      Spin       Svec
----------------------------------------------------------------
    1  1 1s         0.51033   0.00000      0.000   0.000  -0.000
    1  2 1s         0.18776   0.00000      0.000   0.000   0.000
    1  3 2Ppy       0.02818   0.00000      0.000  -0.000  -0.000
    1  4 2Ppz       0.04021   0.00000     -0.000  -0.000   0.000
    1  5 2Ppx       0.02520   0.00000      0.000  -0.000   0.000
    1     Total     0.79167   0.00000     -0.000  -0.000   0.000

    4  1 1s         1.02478   0.00000      0.000   0.000  -0.000
    4  2 1s         0.09499   0.00000     -0.000  -0.000  -0.000
    4  3 2Ppy       0.03892   0.00000     -0.000   0.000   0.000
    4  4 2Ppz       0.02009   0.00000     -0.000   0.000  -0.000
    4  5 2Ppx       0.01358   0.00000      0.000  -0.000  -0.000
    4     Total     1.19235   0.00000      0.000   0.000  -0.000

    9  1 1s         0.44980   0.00000     -0.000   0.000  -0.000
    9  2 1s         0.19349   0.00000     -0.000  -0.000   0.000
    9  3 2Ppy       0.07376   0.00000      0.000   0.000   0.000
    9  4 2Ppz       0.04765   0.00000      0.000   0.000   0.000
    9  5 2Ppx       0.01653   0.00000      0.000   0.000   0.000
    9     Total     0.78123   0.00000      0.000   0.000   0.000

   10  1 1s         0.49811   0.00000      0.000   0.000   0.000
   10  2 1s         0.19331   0.00000     -0.000  -0.000   0.000
   10  3 2Ppy       0.00871   0.00000      0.000   0.000  -0.000
   10  4 2Ppz       0.05390   0.00000     -0.000  -0.000   0.000
   10  5 2Ppx       0.03068   0.00000      0.000   0.000  -0.000
   10     Total     0.78472   0.00000      0.000  -0.000   0.000

   13  1 1s         0.94229   0.00000     -0.000  -0.000  -0.000
   13  2 1s         0.10680   0.00000      0.000   0.000  -0.000
   13  3 2Ppy       0.04658   0.00000     -0.000  -0.000   0.000
   13  4 2Ppz       0.01507   0.00000      0.000  -0.000  -0.000
   13  5 2Ppx       0.02160   0.00000     -0.000  -0.000   0.000
   13     Total     1.13233   0.00000     -0.000  -0.000  -0.000

   18  1 1s         1.04838   0.00000      0.000  -0.000   0.000
   18  2 1s         0.08390   0.00000     -0.000   0.000  -0.000
   18  3 2Ppy       0.02801   0.00000     -0.000  -0.000   0.000
   18  4 2Ppz       0.01901   0.00000      0.000   0.000  -0.000
   18  5 2Ppx       0.01753   0.00000      0.000  -0.000   0.000
   18     Total     1.19683   0.00000      0.000  -0.000  -0.000

   21  1 1s         1.06628   0.00000     -0.000   0.000  -0.000
   21  2 1s         0.08255   0.00000     -0.000  -0.000  -0.000
   21  3 2Ppy       0.02234   0.00000     -0.000  -0.000  -0.000
   21  4 2Ppz       0.02109   0.00000     -0.000  -0.000  -0.000
   21  5 2Ppx       0.01156   0.00000      0.000   0.000  -0.000
   21     Total     1.20383   0.00000     -0.000   0.000  -0.000

   22  1 1s         1.05346   0.00000     -0.000   0.000  -0.000
   22  2 1s         0.08319   0.00000      0.000   0.000   0.000
   22  3 2Ppy       0.02001   0.00000      0.000  -0.000   0.000
   22  4 2Ppz       0.01773   0.00000     -0.000  -0.000  -0.000
   22  5 2Ppx       0.01714   0.00000     -0.000  -0.000  -0.000
   22     Total     1.19152   0.00000     -0.000  -0.000  -0.000

   23  1 1s         1.06438   0.00000      0.000   0.000  -0.000
   23  2 1s         0.08232   0.00000     -0.000  -0.000  -0.000
   23  3 2Ppy       0.01685   0.00000     -0.000  -0.000  -0.000
   23  4 2Ppz       0.02464   0.00000     -0.000   0.000   0.000
   23  5 2Ppx       0.01346   0.00000      0.000  -0.000  -0.000
   23     Total     1.20164   0.00000      0.000   0.000  -0.000

   27  1 1s         0.45505   0.00000     -0.000  -0.000   0.000
   27  2 1s         0.18628   0.00000      0.000   0.000   0.000
   27  3 2Ppy       0.06007   0.00000     -0.000   0.000  -0.000
   27  4 2Ppz       0.02310   0.00000     -0.000  -0.000   0.000
   27  5 2Ppx       0.03030   0.00000      0.000  -0.000   0.000
   27     Total     0.75480   0.00000     -0.000  -0.000   0.000

   30  1 1s         0.48783   0.00000     -0.000  -0.000   0.000
   30  2 1s         0.18889   0.00000     -0.000   0.000   0.000
   30  3 2Ppy       0.02809   0.00000      0.000  -0.000   0.000
   30  4 2Ppz       0.03449   0.00000      0.000   0.000  -0.000
   30  5 2Ppx       0.02424   0.00000     -0.000  -0.000  -0.000
   30     Total     0.76354   0.00000     -0.000   0.000   0.000

----------------------------------------------------------------
Total              10.99446   0.00000     -0.000  -0.000  -0.000


Species: N                   

Atom      Orb        Charge      Spin       Svec
----------------------------------------------------------------
    2  1 2s         1.38005   0.00000     -0.000   0.000  -0.000
    2  2 2s         0.12720   0.00000      0.000  -0.000  -0.000
    2  3 2py        1.06935   0.00000     -0.000  -0.000   0.000
    2  4 2pz        1.49431   0.00000     -0.000  -0.000  -0.000
    2  5 2px        1.01607   0.00000     -0.000   0.000   0.000
    2  6 2py        0.19586   0.00000     -0.000   0.000  -0.000
    2  7 2pz        0.01454   0.00000     -0.000   0.000  -0.000
    2  8 2px        0.21040   0.00000      0.000  -0.000  -0.000
    2  9 3Pdxy      0.00684   0.00000     -0.000   0.000   0.000
    2 10 3Pdyz      0.00608   0.00000      0.000   0.000  -0.000
    2 11 3Pdz2      0.00156   0.00000      0.000   0.000   0.000
    2 12 3Pdxz      0.00304   0.00000      0.000   0.000  -0.000
    2 13 3Pdx2-y2   0.00297   0.00000      0.000  -0.000  -0.000
    2     Total     5.52826   0.00000     -0.000  -0.000  -0.000

    5  1 2s         1.55750   0.00000      0.000  -0.000   0.000
    5  2 2s         0.08156   0.00000     -0.000   0.000   0.000
    5  3 2py        0.90364   0.00000      0.000  -0.000  -0.000
    5  4 2pz        1.22301   0.00000      0.000   0.000   0.000
    5  5 2px        1.14353   0.00000      0.000   0.000   0.000
    5  6 2py        0.22964   0.00000     -0.000   0.000  -0.000
    5  7 2pz        0.05522   0.00000      0.000  -0.000   0.000
    5  8 2px        0.14602   0.00000     -0.000  -0.000  -0.000
    5  9 3Pdxy      0.00855   0.00000      0.000   0.000  -0.000
    5 10 3Pdyz      0.00708   0.00000      0.000  -0.000   0.000
    5 11 3Pdz2      0.00190   0.00000     -0.000  -0.000   0.000
    5 12 3Pdxz      0.01128   0.00000     -0.000  -0.000  -0.000
    5 13 3Pdx2-y2   0.00919   0.00000      0.000  -0.000  -0.000
    5     Total     5.37812   0.00000      0.000   0.000   0.000

    8  1 2s         1.27870   0.00000      0.000  -0.000  -0.000
    8  2 2s         0.17371   0.00000     -0.000   0.000  -0.000
    8  3 2py        1.08832   0.00000     -0.000   0.000  -0.000
    8  4 2pz        1.53770   0.00000     -0.000  -0.000  -0.000
    8  5 2px        0.98393   0.00000     -0.000   0.000  -0.000
    8  6 2py        0.19684   0.00000      0.000  -0.000  -0.000
    8  7 2pz        0.02901   0.00000      0.000   0.000  -0.000
    8  8 2px        0.23272   0.00000      0.000  -0.000   0.000
    8  9 3Pdxy      0.00306   0.00000      0.000  -0.000  -0.000
    8 10 3Pdyz      0.00107   0.00000      0.000  -0.000   0.000
    8 11 3Pdz2      0.00238   0.00000      0.000  -0.000   0.000
    8 12 3Pdxz      0.00236   0.00000      0.000  -0.000  -0.000
    8 13 3Pdx2-y2   0.00376   0.00000      0.000  -0.000  -0.000
    8     Total     5.53357   0.00000     -0.000  -0.000  -0.000

   11  1 2s         1.45866   0.00000     -0.000  -0.000   0.000
   11  2 2s         0.10959   0.00000      0.000   0.000   0.000
   11  3 2py        1.24772   0.00000      0.000  -0.000  -0.000
   11  4 2pz        1.32009   0.00000      0.000   0.000   0.000
   11  5 2px        0.82053   0.00000      0.000  -0.000   0.000
   11  6 2py        0.09993   0.00000     -0.000   0.000  -0.000
   11  7 2pz        0.03747   0.00000     -0.000  -0.000  -0.000
   11  8 2px        0.31119   0.00000      0.000   0.000  -0.000
   11  9 3Pdxy      0.00696   0.00000     -0.000   0.000   0.000
   11 10 3Pdyz      0.00526   0.00000      0.000  -0.000  -0.000
   11 11 3Pdz2      0.00038   0.00000      0.000  -0.000  -0.000
   11 12 3Pdxz      0.00505   0.00000      0.000  -0.000  -0.000
   11 13 3Pdx2-y2   0.00510   0.00000     -0.000  -0.000   0.000
   11     Total     5.42793   0.00000      0.000   0.000   0.000

   14  1 2s         1.50102   0.00000     -0.000   0.000   0.000
   14  2 2s         0.10511   0.00000      0.000  -0.000   0.000
   14  3 2py        0.84670   0.00000      0.000   0.000   0.000
   14  4 2pz        1.23684   0.00000      0.000   0.000   0.000
   14  5 2px        1.16278   0.00000     -0.000   0.000   0.000
   14  6 2py        0.27774   0.00000     -0.000  -0.000  -0.000
   14  7 2pz        0.05504   0.00000     -0.000  -0.000  -0.000
   14  8 2px        0.13652   0.00000      0.000  -0.000  -0.000
   14  9 3Pdxy      0.00936   0.00000     -0.000   0.000  -0.000
   14 10 3Pdyz      0.00472   0.00000      0.000  -0.000  -0.000
   14 11 3Pdz2      0.00149   0.00000     -0.000  -0.000  -0.000
   14 12 3Pdxz      0.01067   0.00000      0.000   0.000  -0.000
   14 13 3Pdx2-y2   0.00818   0.00000      0.000   0.000  -0.000
   14     Total     5.35617   0.00000      0.000   0.000   0.000

   16  1 2s         1.36408   0.00000     -0.000   0.000  -0.000
   16  2 2s         0.13348   0.00000      0.000  -0.000   0.000
   16  3 2py        0.99019   0.00000     -0.000   0.000  -0.000
   16  4 2pz        1.54457   0.00000      0.000   0.000  -0.000
   16  5 2px        1.07779   0.00000      0.000   0.000   0.000
   16  6 2py        0.24055   0.00000      0.000  -0.000  -0.000
   16  7 2pz        0.00391   0.00000     -0.000  -0.000  -0.000
   16  8 2px        0.18169   0.00000     -0.000  -0.000  -0.000
   16  9 3Pdxy      0.00176   0.00000     -0.000   0.000   0.000
   16 10 3Pdyz      0.00475   0.00000      0.000  -0.000  -0.000
   16 11 3Pdz2      0.00108   0.00000     -0.000  -0.000   0.000
   16 12 3Pdxz      0.00234   0.00000     -0.000   0.000  -0.000
   16 13 3Pdx2-y2   0.00602   0.00000     -0.000  -0.000  -0.000
   16     Total     5.55221   0.00000      0.000   0.000  -0.000

   26  1 2s         1.35477   0.00000      0.000   0.000  -0.000
   26  2 2s         0.13374   0.00000     -0.000  -0.000   0.000
   26  3 2py        1.12070   0.00000      0.000   0.000  -0.000
   26  4 2pz        1.50982   0.00000     -0.000   0.000  -0.000
   26  5 2px        0.91022   0.00000     -0.000   0.000  -0.000
   26  6 2py        0.17837   0.00000     -0.000   0.000  -0.000
   26  7 2pz        0.00673   0.00000      0.000   0.000   0.000
   26  8 2px        0.28029   0.00000      0.000  -0.000  -0.000
   26  9 3Pdxy      0.00089   0.00000     -0.000   0.000  -0.000
   26 10 3Pdyz      0.00110   0.00000      0.000   0.000  -0.000
   26 11 3Pdz2     -0.00142   0.00000     -0.000  -0.000  -0.000
   26 12 3Pdxz      0.00442   0.00000      0.000   0.000   0.000
   26 13 3Pdx2-y2   0.00230   0.00000     -0.000  -0.000  -0.000
   26     Total     5.50193   0.00000     -0.000   0.000  -0.000

----------------------------------------------------------------
Total              49.27266   0.00000     -0.000   0.000  -0.000


Species: Si                  

Atom      Orb        Charge      Spin       Svec
----------------------------------------------------------------
    3  1 3s         0.55026   0.00000      0.000   0.000  -0.000
    3  2 3s         0.38739   0.00000     -0.000  -0.000   0.000
    3  3 3py        0.08342   0.00000     -0.000  -0.000   0.000
    3  4 3pz        0.54002   0.00000     -0.000  -0.000  -0.000
    3  5 3px        0.37038   0.00000     -0.000   0.000  -0.000
    3  6 3py        0.49706   0.00000      0.000   0.000  -0.000
    3  7 3pz        0.17489   0.00000      0.000  -0.000  -0.000
    3  8 3px        0.23651   0.00000      0.000  -0.000   0.000
    3  9 3Pdxy      0.10890   0.00000      0.000   0.000  -0.000
    3 10 3Pdyz      0.05254   0.00000     -0.000  -0.000  -0.000
    3 11 3Pdz2      0.01023   0.00000      0.000   0.000   0.000
    3 12 3Pdxz      0.13349   0.00000     -0.000  -0.000  -0.000
    3 13 3Pdx2-y2   0.32474   0.00000     -0.000  -0.000  -0.000
    3     Total     3.46984   0.00000     -0.000  -0.000  -0.000

    6  1 3s         0.65829   0.00000     -0.000   0.000   0.000
    6  2 3s         0.37104   0.00000      0.000  -0.000   0.000
    6  3 3py        0.12542   0.00000     -0.000  -0.000   0.000
    6  4 3pz        0.69715   0.00000      0.000  -0.000   0.000
    6  5 3px        0.49025   0.00000      0.000   0.000   0.000
    6  6 3py        0.46991   0.00000      0.000   0.000   0.000
    6  7 3pz        0.24261   0.00000     -0.000   0.000   0.000
    6  8 3px        0.24623   0.00000     -0.000  -0.000   0.000
    6  9 3Pdxy      0.18289   0.00000      0.000  -0.000   0.000
    6 10 3Pdyz      0.14617   0.00000     -0.000   0.000   0.000
    6 11 3Pdz2      0.01132   0.00000     -0.000  -0.000   0.000
    6 12 3Pdxz      0.03696   0.00000     -0.000   0.000   0.000
    6 13 3Pdx2-y2   0.18630   0.00000     -0.000  -0.000  -0.000
    6     Total     3.86455   0.00000      0.000   0.000   0.000

    7  1 3s         0.63101   0.00000     -0.000  -0.000   0.000
    7  2 3s         0.36735   0.00000      0.000   0.000  -0.000
    7  3 3py        0.36700   0.00000     -0.000  -0.000  -0.000
    7  4 3pz        0.49742   0.00000     -0.000  -0.000  -0.000
    7  5 3px        0.08007   0.00000     -0.000  -0.000   0.000
    7  6 3py        0.30349   0.00000      0.000   0.000   0.000
    7  7 3pz        0.20630   0.00000      0.000   0.000   0.000
    7  8 3px        0.42392   0.00000      0.000   0.000  -0.000
    7  9 3Pdxy      0.20209   0.00000      0.000  -0.000   0.000
    7 10 3Pdyz      0.14295   0.00000      0.000  -0.000   0.000
    7 11 3Pdz2      0.00992   0.00000      0.000  -0.000  -0.000
    7 12 3Pdxz      0.15530   0.00000     -0.000  -0.000   0.000
    7 13 3Pdx2-y2   0.23449   0.00000      0.000   0.000  -0.000
    7     Total     3.62130   0.00000     -0.000  -0.000   0.000

   12  1 3s         0.55972   0.00000     -0.000  -0.000   0.000
   12  2 3s         0.39387   0.00000      0.000   0.000  -0.000
   12  3 3py        0.18755   0.00000      0.000   0.000  -0.000
   12  4 3pz        0.42965   0.00000     -0.000   0.000  -0.000
   12  5 3px        0.30829   0.00000     -0.000   0.000  -0.000
   12  6 3py        0.42843   0.00000      0.000  -0.000   0.000
   12  7 3pz        0.16299   0.00000      0.000  -0.000  -0.000
   12  8 3px        0.33710   0.00000      0.000  -0.000  -0.000
   12  9 3Pdxy      0.37890   0.00000      0.000   0.000   0.000
   12 10 3Pdyz      0.08306   0.00000      0.000   0.000  -0.000
   12 11 3Pdz2      0.01003   0.00000     -0.000   0.000   0.000
   12 12 3Pdxz      0.09336   0.00000      0.000  -0.000  -0.000
   12 13 3Pdx2-y2   0.16649   0.00000     -0.000  -0.000   0.000
   12     Total     3.53943   0.00000     -0.000  -0.000  -0.000

   15  1 3s         0.66447   0.00000     -0.000  -0.000  -0.000
   15  2 3s         0.36690   0.00000      0.000   0.000  -0.000
   15  3 3py       -0.01948   0.00000      0.000   0.000  -0.000
   15  4 3pz        0.51213   0.00000     -0.000  -0.000  -0.000
   15  5 3px        0.39609   0.00000     -0.000  -0.000   0.000
   15  6 3py        0.46900   0.00000     -0.000  -0.000   0.000
   15  7 3pz        0.19795   0.00000      0.000   0.000  -0.000
   15  8 3px        0.33841   0.00000      0.000   0.000  -0.000
   15  9 3Pdxy      0.14186   0.00000      0.000   0.000   0.000
   15 10 3Pdyz      0.12629   0.00000      0.000   0.000  -0.000
   15 11 3Pdz2      0.01431   0.00000      0.000  -0.000  -0.000
   15 12 3Pdxz      0.12619   0.00000     -0.000   0.000   0.000
   15 13 3Pdx2-y2   0.30666   0.00000      0.000   0.000  -0.000
   15     Total     3.64078   0.00000      0.000   0.000  -0.000

   17  1 3s         0.72998   0.00000      0.000  -0.000  -0.000
   17  2 3s         0.35670   0.00000     -0.000  -0.000  -0.000
   17  3 3py        0.09747   0.00000      0.000   0.000  -0.000
   17  4 3pz        0.62539   0.00000      0.000  -0.000  -0.000
   17  5 3px        0.35880   0.00000     -0.000   0.000  -0.000
   17  6 3py        0.45368   0.00000     -0.000  -0.000   0.000
   17  7 3pz        0.15255   0.00000     -0.000   0.000  -0.000
   17  8 3px        0.33280   0.00000      0.000  -0.000  -0.000
   17  9 3Pdxy      0.15069   0.00000     -0.000  -0.000  -0.000
   17 10 3Pdyz      0.02353   0.00000     -0.000  -0.000  -0.000
   17 11 3Pdz2      0.00892   0.00000     -0.000  -0.000   0.000
   17 12 3Pdxz      0.12857   0.00000      0.000  -0.000  -0.000
   17 13 3Pdx2-y2   0.12734   0.00000     -0.000  -0.000  -0.000
   17     Total     3.54642   0.00000      0.000  -0.000  -0.000

   19  1 3s         0.86074   0.00000      0.000   0.000   0.000
   19  2 3s         0.31445   0.00000     -0.000   0.000   0.000
   19  3 3py        0.42655   0.00000      0.000   0.000   0.000
   19  4 3pz        0.65944   0.00000     -0.000   0.000   0.000
   19  5 3px        0.35118   0.00000     -0.000   0.000   0.000
   19  6 3py        0.33076   0.00000     -0.000  -0.000  -0.000
   19  7 3pz        0.27040   0.00000      0.000  -0.000   0.000
   19  8 3px        0.35850   0.00000      0.000   0.000   0.000
   19  9 3Pdxy      0.09328   0.00000     -0.000   0.000  -0.000
   19 10 3Pdyz      0.02910   0.00000      0.000  -0.000  -0.000
   19 11 3Pdz2      0.01434   0.00000     -0.000  -0.000  -0.000
   19 12 3Pdxz      0.05683   0.00000      0.000  -0.000  -0.000
   19 13 3Pdx2-y2   0.13166   0.00000      0.000  -0.000   0.000
   19     Total     3.89722   0.00000     -0.000   0.000   0.000

   20  1 3s         0.54086   0.00000     -0.000  -0.000   0.000
   20  2 3s         0.44384   0.00000      0.000   0.000  -0.000
   20  3 3py        0.31021   0.00000      0.000   0.000   0.000
   20  4 3pz        0.25481   0.00000     -0.000   0.000  -0.000
   20  5 3px        0.45472   0.00000      0.000  -0.000   0.000
   20  6 3py        0.38754   0.00000     -0.000  -0.000   0.000
   20  7 3pz        0.42344   0.00000      0.000   0.000   0.000
   20  8 3px        0.27767   0.00000     -0.000   0.000   0.000
   20  9 3Pdxy      0.07003   0.00000      0.000  -0.000   0.000
   20 10 3Pdyz      0.08426   0.00000      0.000  -0.000   0.000
   20 11 3Pdz2      0.05101   0.00000     -0.000   0.000  -0.000
   20 12 3Pdxz      0.07230   0.00000     -0.000  -0.000   0.000
   20 13 3Pdx2-y2   0.04584   0.00000     -0.000  -0.000   0.000
   20     Total     3.41653   0.00000     -0.000  -0.000   0.000

   24  1 3s         0.60094   0.00000     -0.000  -0.000  -0.000
   24  2 3s         0.37283   0.00000      0.000   0.000   0.000
   24  3 3py        0.27076   0.00000      0.000  -0.000   0.000
   24  4 3pz        0.39697   0.00000     -0.000  -0.000  -0.000
   24  5 3px        0.18196   0.00000     -0.000   0.000   0.000
   24  6 3py        0.38550   0.00000     -0.000   0.000  -0.000
   24  7 3pz        0.19599   0.00000      0.000   0.000  -0.000
   24  8 3px        0.35417   0.00000     -0.000  -0.000  -0.000
   24  9 3Pdxy      0.14123   0.00000      0.000   0.000   0.000
   24 10 3Pdyz      0.14117   0.00000     -0.000  -0.000   0.000
   24 11 3Pdz2      0.01122   0.00000      0.000   0.000   0.000
   24 12 3Pdxz      0.12272   0.00000      0.000  -0.000   0.000
   24 13 3Pdx2-y2   0.33635   0.00000     -0.000  -0.000  -0.000
   24     Total     3.51182   0.00000     -0.000  -0.000  -0.000

   28  1 3s         0.43532   0.00000      0.000   0.000   0.000
   28  2 3s         0.37624   0.00000     -0.000   0.000  -0.000
   28  3 3py        0.11696   0.00000     -0.000  -0.000  -0.000
   28  4 3pz        0.39372   0.00000      0.000  -0.000  -0.000
   28  5 3px        0.18379   0.00000      0.000  -0.000   0.000
   28  6 3py        0.39373   0.00000      0.000   0.000   0.000
   28  7 3pz        0.20524   0.00000     -0.000   0.000   0.000
   28  8 3px        0.37804   0.00000      0.000   0.000   0.000
   28  9 3Pdxy      0.14397   0.00000     -0.000   0.000  -0.000
   28 10 3Pdyz      0.12403   0.00000      0.000   0.000  -0.000
   28 11 3Pdz2      0.01293   0.00000      0.000   0.000   0.000
   28 12 3Pdxz      0.15752   0.00000      0.000   0.000   0.000
   28 13 3Pdx2-y2   0.35107   0.00000      0.000  -0.000  -0.000
   28     Total     3.27257   0.00000      0.000   0.000   0.000

----------------------------------------------------------------
Total              85.05312   0.00000     -0.000  -0.000  -0.000


Species: O                   

Atom      Orb        Charge      Spin       Svec
----------------------------------------------------------------
   25  1 2s         1.75115   0.00000     -0.000  -0.000   0.000
   25  2 2s         0.05469   0.00000      0.000   0.000   0.000
   25  3 2py        1.43539   0.00000      0.000  -0.000   0.000
   25  4 2pz        1.54771   0.00000     -0.000   0.000   0.000
   25  5 2px        1.59149   0.00000      0.000   0.000  -0.000
   25  6 2py        0.05341   0.00000     -0.000   0.000  -0.000
   25  7 2pz       -0.00737   0.00000     -0.000   0.000   0.000
   25  8 2px        0.02892   0.00000     -0.000  -0.000   0.000
   25  9 3Pdxy      0.00625   0.00000      0.000  -0.000  -0.000
   25 10 3Pdyz      0.00529   0.00000      0.000  -0.000  -0.000
   25 11 3Pdz2      0.00144   0.00000     -0.000   0.000  -0.000
   25 12 3Pdxz      0.00407   0.00000     -0.000  -0.000  -0.000
   25 13 3Pdx2-y2   0.00831   0.00000     -0.000   0.000   0.000
   25     Total     6.48076   0.00000      0.000   0.000   0.000

   29  1 2s         1.74925   0.00000     -0.000  -0.000  -0.000
   29  2 2s         0.06318   0.00000      0.000   0.000   0.000
   29  3 2py        1.46888   0.00000     -0.000   0.000   0.000
   29  4 2pz        1.54229   0.00000      0.000   0.000   0.000
   29  5 2px        1.52462   0.00000      0.000   0.000  -0.000
   29  6 2py        0.04561   0.00000     -0.000   0.000  -0.000
   29  7 2pz        0.00186   0.00000      0.000   0.000  -0.000
   29  8 2px        0.04110   0.00000     -0.000  -0.000   0.000
   29  9 3Pdxy      0.00783   0.00000     -0.000   0.000   0.000
   29 10 3Pdyz      0.00443   0.00000     -0.000   0.000   0.000
   29 11 3Pdz2      0.00165   0.00000      0.000  -0.000   0.000
   29 12 3Pdxz      0.00621   0.00000      0.000  -0.000   0.000
   29 13 3Pdx2-y2   0.00920   0.00000     -0.000   0.000  -0.000
   29     Total     6.46612   0.00000      0.000   0.000   0.000

----------------------------------------------------------------
Total              98.00000   0.00000      0.000   0.000  -0.000


siesta: Eigenvalues (eV):
ik =     1
  -23.0606  -23.0606  -22.8325  -22.8325  -22.0404  -22.0404  -21.1566  -21.1566  -20.9271  -20.9271
  -20.2484  -20.2484  -19.3422  -19.3422  -19.1635  -19.1635  -18.5912  -18.5912  -15.3772  -15.3772
  -14.4282  -14.4282  -13.6601  -13.6601  -13.5123  -13.5123  -13.3526  -13.3526  -12.8223  -12.8223
  -12.3424  -12.3424  -12.0632  -12.0632  -11.7220  -11.7220  -11.4112  -11.4112  -11.2683  -11.2683
  -10.7896  -10.7896  -10.7324  -10.7324  -10.0938  -10.0938   -9.9038   -9.9038   -9.6212   -9.6212
   -9.4575   -9.4575   -9.2042   -9.2042   -9.0029   -9.0029   -8.8996   -8.8996   -8.7439   -8.7439
   -8.6172   -8.6172   -8.2670   -8.2670   -8.1732   -8.1732   -8.0516   -8.0516   -7.9346   -7.9346
   -7.7708   -7.7708   -7.4810   -7.4810   -7.2816   -7.2816   -7.2354   -7.2354   -6.8402   -6.8402
   -6.7957   -6.7957   -6.6083   -6.6083   -6.5755   -6.5755   -6.2151   -6.2151   -6.1730   -6.1730
   -6.0257   -6.0257   -5.6082   -5.6082   -5.5105   -5.5105   -4.1162   -4.1162   -3.7947   -3.7947
   -2.9394   -2.9394   -2.5762   -2.5762   -2.2712   -2.2712   -2.1301   -2.1301   -2.0723   -2.0723
   -1.9263   -1.9263   -1.6803   -1.6803   -1.5464   -1.5464   -1.4580   -1.4580   -1.2047   -1.2047
   -1.1238   -1.1238   -0.4637   -0.4637   -0.4427   -0.4427   -0.2570   -0.2570   -0.1476   -0.1476
   -0.1173   -0.1173    0.0041    0.0041    0.2054    0.2054    0.3360    0.3360    0.6763    0.6763
    0.7349    0.7349    0.8437    0.8437    1.0131    1.0131    1.3147    1.3147    1.3981    1.3981
    1.6321    1.6321    1.8447    1.8447    2.1369    2.1369    2.2466    2.2466    2.4260    2.4260
    2.5377    2.5377    2.7496    2.7496    2.8984    2.8984    2.9659    2.9659    3.0469    3.0469
    3.1313    3.1313    3.1392    3.1392    3.3992    3.3992    3.7598    3.7598    3.8925    3.8925
    4.2640    4.2640    4.3137    4.3137    4.3363    4.3363    4.4724    4.4724    4.5176    4.5176
    4.6000    4.6000    4.7776    4.7776    4.9091    4.9091    5.0794    5.0794    5.1832    5.1832
    5.3864    5.3864    5.4969    5.4969    5.7546    5.7546    5.9093    5.9093    6.0389    6.0389
    6.2342    6.2342    6.2526    6.2526    6.4602    6.4602    6.5434    6.5434    6.7134    6.7134
    6.9037    6.9037    6.9348    6.9348    6.9642    6.9642    7.3103    7.3103    7.4911    7.4911
    7.5754    7.5754    7.6867    7.6867    7.8044    7.8044    8.0127    8.0127    8.1813    8.1813
    8.3889    8.3889    8.4849    8.4849    8.5500    8.5500    8.7098    8.7098    8.7773    8.7773
    9.1110    9.1110    9.2498    9.2498    9.3122    9.3122    9.5499    9.5499    9.6929    9.6929
    9.8397    9.8397    9.9664    9.9664   10.0915   10.0915   10.1658   10.1658   10.1796   10.1796
   10.5702   10.5702   10.7795   10.7795   10.9059   10.9059   11.2266   11.2266   11.2918   11.2918
   11.6326   11.6326   11.7873   11.7873   11.8498   11.8498   11.9940   11.9940   12.0473   12.0473
   12.3099   12.3099   12.6065   12.6065   12.7624   12.7624   12.9692   12.9692   13.0292   13.0292
   13.2175   13.2175   13.4088   13.4088   13.6364   13.6364   13.8547   13.8547   13.9640   13.9640
   14.1554   14.1554   14.2480   14.2480   14.8718   14.8718   14.9727   14.9727   15.1591   15.1591
   15.5751   15.5751   15.6504   15.6504   16.0953   16.0953   16.3614   16.3614   16.4815   16.4815
   16.7453   16.7453   17.1502   17.1502   17.2357   17.2357   17.6065   17.6065   18.0579   18.0579
   18.1895   18.1895   18.4148   18.4148   18.7377   18.7377   18.7966   18.7966   19.1908   19.1908
   19.4396   19.4396   19.7891   19.7891   19.9710   19.9710   20.5838   20.5838   21.0915   21.0915
   21.1612   21.1612   21.5899   21.5899   22.1309   22.1309   22.5657   22.5657   22.6429   22.6429
   23.0752   23.0752   23.3118   23.3118   23.7069   23.7069   23.8654   23.8654   24.1830   24.1830
   24.9480   24.9480   25.3915   25.3915   25.5418   25.5418   25.7476   25.7476   26.4817   26.4817
   26.8065   26.8065   27.1937   27.1937   27.7352   27.7352   28.1869   28.1869   28.4423   28.4423
   28.9542   28.9542   29.3040   29.3040   30.7356   30.7356   30.9410   30.9410   31.1488   31.1488
   31.3725   31.3725   31.3789   31.3789   31.6458   31.6458   32.0682   32.0682   32.6686   32.6686
   33.1862   33.1862   33.8541   33.8541   34.2621   34.2621   34.4892   34.4892   35.4514   35.4514
   35.7096   35.7096   35.7817   35.7817   36.0738   36.0738   36.3694   36.3694   37.1594   37.1594
   37.1727   37.1727   37.3440   37.3440   38.5615   38.5615   39.2829   39.2829   39.3957   39.3957
   39.6668   39.6668   39.9012   39.9012   40.3112   40.3112   40.8708   40.8708   41.5453   41.5453
   41.8078   41.8078   42.3104   42.3104   42.4419   42.4419   43.1353   43.1353   43.2831   43.2831
   43.6620   43.6620   43.6668   43.6668   44.3388   44.3388   44.5578   44.5578   45.1762   45.1762
   45.5287   45.5287   45.5477   45.5477   46.1660   46.1660   46.8676   46.8676   47.0456   47.0456
   47.5373   47.5373   47.7839   47.7839   48.5306   48.5306   48.5689   48.5689   49.1341   49.1341
   49.3798   49.3798   49.7421   49.7421   49.7935   49.7935   50.4149   50.4149   50.4719   50.4719
   51.1081   51.1081   51.2302   51.2302   52.2427   52.2427   53.2068   53.2068   53.5531   53.5531
   54.3612   54.3612   55.1573   55.1573   55.6694   55.6694   56.1459   56.1459   56.9096   56.9096
   57.3172   57.3172   58.3808   58.3808   58.8698   58.8698   59.0826   59.0826   59.4357   59.4357
   60.7628   60.7628   61.0506   61.0506   61.8028   61.8028   62.2128   62.2128   63.2121   63.2121
   63.3655   63.3655   64.4679   64.4679   65.4325   65.4325   66.0722   66.0722   66.7607   66.7607
   67.7574   67.7574   68.5770   68.5770   68.7865   68.7865   69.0892   69.0892   71.1887   71.1887
   71.9242   71.9242   74.1318   74.1318   82.0432   82.0432   86.6111   86.6111   92.5919   92.5919
   93.4126   93.4126   95.6394   95.6394   96.9166   96.9166  100.1036  100.1036  100.8984  100.8984
  103.5229  103.5229  103.6176  103.6176  116.5929  116.5929  123.2460  123.2460  124.7202  124.7202
  141.9470  141.9470  147.1937  147.1937
siesta: Fermi energy =      -3.955436 eV

siesta: Program's energy decomposition (eV):
siesta: Ebs     =     -1114.103498
siesta: Eions   =      3553.971015
siesta: Ena     =       377.539460
siesta: Ekin    =      2754.084714
siesta: Enl     =     -2534.290351
siesta: Eso     =        -0.004751
siesta: Edftu   =         0.000000
siesta: DEna    =        37.559420
siesta: DUscf   =        13.854273
siesta: DUext   =         0.000000
siesta: Exc     =     -1094.075287
siesta: eta*DQ  =         0.000000
siesta: Emadel  =         0.000000
siesta: Emeta   =         0.000000
siesta: Emolmec =         0.000000
siesta: Ekinion =         0.000000
siesta: Eharris =     -3999.303536
siesta: Etot    =     -3999.303536
siesta: FreeEng =     -3999.305019

siesta: Final energy (eV):
siesta:  Band Struct. =   -1114.103498
siesta:       Kinetic =    2754.084714
siesta:       Hartree =    7974.186915
siesta:       Edftu   =       0.000000
siesta:       Eso     =      -0.004751
siesta:    Ext. field =       0.000000
siesta:   Exch.-corr. =   -1094.075287
siesta:  Ion-electron =  -18396.526039
siesta:       Ion-ion =    4763.030911
siesta:       Ekinion =       0.000000
siesta:         Total =   -3999.303536
siesta:         Fermi =      -3.955436

siesta: Atomic forces (eV/Ang):
siesta:      1   -0.017938    0.004015    0.000004
siesta:      2   -0.017107   -0.068440   -0.000014
siesta:      3    0.023466    0.048515   -0.000027
siesta:      4   -0.026047   -0.027411    0.000019
siesta:      5   -0.007043   -0.028699   -0.000031
siesta:      6    0.129145   -0.004165    0.000118
siesta:      7   -0.759833    0.217929    0.000064
siesta:      8    0.235227   -0.702366   -0.000348
siesta:      9    0.088976    0.582256    0.000491
siesta:     10    0.113019   -0.060379    0.000046
siesta:     11    0.032616    0.249740   -0.000138
siesta:     12    0.494396    0.029272   -0.000087
siesta:     13   -0.150274   -0.184250   -0.000026
siesta:     14   -0.062034   -0.135427    0.000089
siesta:     15    0.022474    0.029888   -0.000045
siesta:     16    0.055286    0.090968    0.007876
siesta:     17    0.056174   -0.085485   -0.039433
siesta:     18   -0.068066    0.097696    0.008247
siesta:     19   -0.109172   -0.007600   -0.041672
siesta:     20    0.043844   -0.033250    0.022435
siesta:     21   -0.150745    0.182763    0.070783
siesta:     22   -0.038938    0.067478    0.028814
siesta:     23    0.102541    0.109806   -0.038459
siesta:     24    0.492227   -0.037069   -0.026373
siesta:     25    0.926766   -3.310362    0.003104
siesta:     26   -0.107385    0.606142    0.006892
siesta:     27   -0.041058   -0.810023    0.002890
siesta:     28   -0.337330   -0.091777   -0.000792
siesta:     29   -0.903359    0.221627   -0.001127
siesta:     30    0.149372    0.107439    0.007954
siesta: ----------------------------------------
siesta:    Tot    0.169202   -2.941171    0.011254

siesta: Stress tensor (static) (eV/Ang**3):
siesta:    -0.001063    0.000130    0.000034
siesta:     0.000130   -0.000749   -0.000030
siesta:     0.000034   -0.000030   -0.000138

siesta: Cell volume =       4042.542450 Ang**3

siesta: Pressure (static):
siesta:                Solid            Molecule  Units
siesta:           0.00000708          0.00001176  Ry/Bohr**3
siesta:           0.00064961          0.00107967  eV/Ang**3
siesta:           1.04080266          1.72983752  kBar
(Free)E+ p_basis*V_orbitals  =       -3978.176934
(Free)Eharris+ p_basis*V_orbitals  =       -3978.176934
     spin moment: S , {S} =    0.00000   0.00000   0.00000  -0.00000

siesta: Electric dipole (a.u.)  =   -0.151550    2.903453   -0.012901
siesta: Electric dipole (Debye) =   -0.385203    7.379846   -0.032792

cite: Please see "AT.bib" for an exhaustive BiBTeX file.
cite: Please clearly indicate Siesta version in published work: v4.1.5-1-g384057250
cite: This calculation has made use of the following articles
cite: which are encouraged to be cited in a published work.
        Primary SIESTA paper
          DOI: www.doi.org/10.1088/0953-8984/14/11/302
        Spin-orbit coupling (on-site approximation)
          DOI: www.doi.org/10.1088/0953-8984/19/19/489001


WARNING: alloc-realloc-dealloc name mismatch
         Name: atomlist isa
         Size:              -120. Bytes
         Node:     0
         Subsequent mismatches will not be reported
>> End of run:  22-MAY-2023   9:53:53
Job completed
