Siesta Version  : v4.1.5-1-g384057250
Architecture    : gcc
Compiler version: GNU Fortran (Debian 10.2.1-6) 10.2.1 20210110
Compiler flags  : mpifort -O2 -fPIC -ftree-vectorize -fallow-argument-mismatch
PP flags        : -DFC_HAVE_ABORT -DMPI -DSIESTA__FLOOK -DSIESTA__METIS -DSIESTA__MUMPS -DCDF -DNCDF -DNCDF_4 -DNCDF_PARALLEL -DSIESTA__MRRR -DSIESTA__ELPA
Libraries       : libncdf.a libfdict.a  -lflookall -ldl -lnetcdff -lnetcdf -lhdf5_hl -lhdf5 -lhdf5_fortran -lz -lscalapack-openmpi -lopenblas -lmetis -lzmumps -lcmumps -ldmumps -lmumps_common -lpord -lsmumps -lesmumps -lscotch -lscotcherr -fopenmp -lelpa
PARALLEL version
NetCDF support
NetCDF-4 support
NetCDF-4 MPI-IO support
METIS ordering support
Lua support

* Running on 6 nodes in parallel
>> Start of run:  22-MAY-2023  10:45:07

                           ***********************       
                           *  WELCOME TO SIESTA  *       
                           ***********************       

reinit: Reading from standard input
reinit: Dumped input in INPUT_TMP.10146
************************** Dump of input data file ****************************
SystemLabel      AT
NumberOfAtoms    30
NumberOfSpecies  4
%block ChemicalSpeciesLabel
    1    1  H
    2    7  N
    3   14  Si
    4    8  O
%endblock ChemicalSpeciesLabel
# Single point calculation
MD.TypeOfRun                CG
MD.Steps                    0
SCF.MustConverge            F # In case it does not. There can be 2 very close atoms
AtomicCoordinatesFormat NotScaledCartesianAng
%block AtomicCoordinatesAndAtomicSpecies
2.582377650    -5.776830440   0.000000000       1
1.654759240    -5.269361980   0.000000000       2
0.063128840    -6.101704590   0.000000000       3
0.119223240    -7.596849500   0.000000000       1
-1.376892050   -5.182603740   0.000000000       2
-0.824371900   -3.460866440   0.000000000       3
-1.170571480   -1.270002100   0.000000000       3
-2.706933680   -0.417515780   0.000000000       2
-2.754569660   0.634858620    0.000000000       1
-3.637675640   -0.909967860   0.000000000       1
0.218091790    -0.234193970   0.000000000       2
1.872004100    -0.697162300   0.000000000       3
2.828001130    0.461464770    0.000000000       1
2.648150080    -2.255024470   0.000000000       2
1.391921380    -3.454727220   0.000000000       3
1.826060215    9.054656089    0.000000000       2
0.498688695    10.264860389   0.000000000       3
1.138689965    11.626178629   0.000000000       1
-1.587057245   9.594329039    0.000000000       3
-3.616619845   10.724445229   0.000000000       3
-3.462384075   11.884675439   0.940305280       1
-4.602554565   9.702524609    0.512613700       1
-4.032834805   11.200671079   -1.366678340      1
-1.520561825   7.320352419    0.000000000       3
-2.559610555   6.127292919    0.000000000       4
0.136429755    6.686377229    0.000000000       2
0.118412385    5.623932399    0.000000000       1
1.760032825    7.283447439    0.000000000       3
2.955048995    6.269022239    0.000000000       4
2.826097585    9.400163189    0.000000000       1
%endblock AtomicCoordinatesAndAtomicSpecies
%include ../../../Defaults.fdf
************************** End of input data file *****************************

reinit: -----------------------------------------------------------------------
reinit: System Name: 
reinit: -----------------------------------------------------------------------
reinit: System Label: AT
reinit: -----------------------------------------------------------------------

initatom: Reading input for the pseudopotentials and atomic orbitals ----------
Species number:   1 Atomic number:    1 Label: H
Species number:   2 Atomic number:    7 Label: N
Species number:   3 Atomic number:   14 Label: Si
Species number:   4 Atomic number:    8 Label: O

Ground state valence configuration:   1s01
Reading pseudopotential information in formatted form from H.psf

Pseudopotential generated from a relativistic atomic calculation

Valence configuration for pseudopotential generation:
1s( 1.00) rc: 0.01
2p( 0.00) rc: 0.60
3d( 0.00) rc: 1.99
4f( 0.00) rc: 2.49
Ground state valence configuration:   2s02  2p03
Reading pseudopotential information in formatted form from N.psf

Pseudopotential generated from a relativistic atomic calculation

Valence configuration for pseudopotential generation:
2s( 2.00) rc: 0.94
2p( 3.00) rc: 0.59
3d( 0.00) rc: 3.46
4f( 0.00) rc: 2.47
Ground state valence configuration:   3s02  3p02
Reading pseudopotential information in formatted form from Si.psf

Pseudopotential generated from a relativistic atomic calculation

Valence configuration for pseudopotential generation:
3s( 2.00) rc: 1.67
3p( 2.00) rc: 2.04
3d( 0.00) rc: 2.89
4f( 0.00) rc: 2.49
Ground state valence configuration:   2s02  2p04
Reading pseudopotential information in formatted form from O.psf

Pseudopotential generated from a relativistic atomic calculation

Valence configuration for pseudopotential generation:
2s( 2.00) rc: 0.45
2p( 4.00) rc: 0.92
3d( 0.00) rc: 2.24
4f( 0.00) rc: 0.25
For H, standard SIESTA heuristics set lmxkb to 2
 (one more than the basis l, including polarization orbitals).
Use PS.lmax or PS.KBprojectors blocks to override.
For N, standard SIESTA heuristics set lmxkb to 3
 (one more than the basis l, including polarization orbitals).
Use PS.lmax or PS.KBprojectors blocks to override.
For Si, standard SIESTA heuristics set lmxkb to 3
 (one more than the basis l, including polarization orbitals).
Use PS.lmax or PS.KBprojectors blocks to override.
For O, standard SIESTA heuristics set lmxkb to 3
 (one more than the basis l, including polarization orbitals).
Use PS.lmax or PS.KBprojectors blocks to override.

<basis_specs>
===============================================================================
H                    Z=   1    Mass=  1.0100        Charge= 0.17977+309
Lmxo=0 Lmxkb= 2    BasisType=split      Semic=F
L=0  Nsemic=0  Cnfigmx=1
          i=1  nzeta=2  polorb=1  (1s)
            splnorm:   0.62000    
               vcte:    0.0000    
               rinn:    0.0000    
               qcoe:    0.0000    
               qyuk:    0.0000    
               qwid:   0.10000E-01
                rcs:    0.0000      0.0000    
            lambdas:    1.0000      1.0000    
-------------------------------------------------------------------------------
L=0  Nkbl=1  erefs: 0.17977+309
L=1  Nkbl=1  erefs: 0.17977+309
L=2  Nkbl=1  erefs: 0.17977+309
===============================================================================
</basis_specs>

atom: Called for H                     (Z =   1)

read_vps: Pseudopotential generation method:
read_vps: ATM4.2.7  Troullier-Martins                       
Valence charge for ps generation:    1.00000

xc_check: Exchange-correlation functional:
xc_check: GGA Perdew, Burke & Ernzerhof 1996
V l=0 = -2*Zval/r beyond r=  0.0098
V l=1 = -2*Zval/r beyond r=  0.5817
V l=2 = -2*Zval/r beyond r=  1.9372
All V_l potentials equal beyond r=  1.9372
This should be close to max(r_c) in ps generation
All pots = -2*Zval/r beyond r=  1.9372

VLOCAL1: 99.0% of the norm of Vloc inside     11.567 Ry
VLOCAL1: 99.9% of the norm of Vloc inside     26.362 Ry
atom: Maximum radius for 4*pi*r*r*local-pseudopot. charge    2.25106
atom: Maximum radius for r*vlocal+2*Zval:    1.91306
GHOST: No ghost state for L =  0
GHOST: No ghost state for L =  1
GHOST: No ghost state for L =  2

KBgen: Kleinman-Bylander projectors: 
   l= 0   rc=  2.036604   el= -0.477180   Ekb= -6.081590   kbcos= -0.277285
   l= 1   rc=  2.195416   el=  0.001076   Ekb= -0.926943   kbcos= -0.034643
   l= 2   rc=  2.251056   el=  0.002010   Ekb= -0.130941   kbcos= -0.009788

KBgen: Total number of Kleinman-Bylander projectors:    9
atom: -------------------------------------------------------------------------

atom: SANKEY-TYPE ORBITALS:
atom: Selected multiple-zeta basis: split     

SPLIT: Orbitals with angular momentum L= 0

SPLIT: Basis orbitals for state 1s

SPLIT: PAO cut-off radius determined from an
SPLIT: energy shift=  0.002000 Ry

   izeta = 1
                 lambda =    1.000000
                     rc =    6.518340
                 energy =   -0.475305
                kinetic =    0.912139
    potential(screened) =   -1.387444
       potential(ionic) =   -1.907295

   izeta = 2
                 rmatch =    2.141150
              splitnorm =    0.620000
                 energy =    0.566467
                kinetic =    3.772856
    potential(screened) =   -3.206389
       potential(ionic) =   -3.759093

POLgen: Perturbative polarization orbital with L=  1

POLgen: Polarization orbital for state 1s

   izeta = 1
                     rc =    6.518340
                 energy =    0.533861
                kinetic =    1.121086
    potential(screened) =   -0.587225
       potential(ionic) =   -1.053027
atom: Total number of Sankey-type orbitals:  5

atm_pop: Valence configuration (for local Pseudopot. screening):
 1s( 1.00)                                                            
Vna: chval, zval:    1.00000   1.00000

Vna:  Cut-off radius for the neutral-atom potential:   6.518340

atom: _________________________________________________________________________

<basis_specs>
===============================================================================
N                    Z=   7    Mass=  14.010        Charge= 0.17977+309
Lmxo=1 Lmxkb= 3    BasisType=split      Semic=F
L=0  Nsemic=0  Cnfigmx=2
          i=1  nzeta=2  polorb=0  (2s)
            splnorm:   0.28000    
               vcte:    0.0000    
               rinn:    0.0000    
               qcoe:    0.0000    
               qyuk:    0.0000    
               qwid:   0.10000E-01
                rcs:    0.0000      0.0000    
            lambdas:    1.0000      1.0000    
L=1  Nsemic=0  Cnfigmx=2
          i=1  nzeta=2  polorb=1  (2p)
            splnorm:   0.28000    
               vcte:    0.0000    
               rinn:    0.0000    
               qcoe:    0.0000    
               qyuk:    0.0000    
               qwid:   0.10000E-01
                rcs:    0.0000      0.0000    
            lambdas:    1.0000      1.0000    
-------------------------------------------------------------------------------
L=0  Nkbl=1  erefs: 0.17977+309
L=1  Nkbl=1  erefs: 0.17977+309
L=2  Nkbl=1  erefs: 0.17977+309
L=3  Nkbl=1  erefs: 0.17977+309
===============================================================================
</basis_specs>

atom: Called for N                     (Z =   7)

read_vps: Pseudopotential generation method:
read_vps: ATM4.2.7  Troullier-Martins                       
Valence charge for ps generation:    5.00000

xc_check: Exchange-correlation functional:
xc_check: GGA Perdew, Burke & Ernzerhof 1996
V l=0 = -2*Zval/r beyond r=  1.2889
V l=1 = -2*Zval/r beyond r=  1.2889
V l=2 = -2*Zval/r beyond r=  3.4178
V l=3 = -2*Zval/r beyond r=  2.4084
All V_l potentials equal beyond r=  3.3753
This should be close to max(r_c) in ps generation
All pots = -2*Zval/r beyond r=  3.4178

VLOCAL1: 99.0% of the norm of Vloc inside      3.810 Ry
VLOCAL1: 99.9% of the norm of Vloc inside      8.683 Ry
atom: Maximum radius for 4*pi*r*r*local-pseudopot. charge    4.02088
atom: Maximum radius for r*vlocal+2*Zval:    3.54838
GHOST: No ghost state for L =  0
GHOST: No ghost state for L =  1
GHOST: No ghost state for L =  2
GHOST: No ghost state for L =  3

KBgen: Kleinman-Bylander projectors: 
   l= 0   rc=  3.417763   el= -1.365098   Ekb= -4.433130   kbcos= -0.707855
   l= 1   rc=  3.375302   el= -0.521201   Ekb=-13.264039   kbcos= -0.535594
   l= 2   rc=  3.872880   el=  0.001991   Ekb= -0.641094   kbcos= -0.062456
   l= 3   rc=  3.970931   el=  0.003093   Ekb= -0.474517   kbcos= -0.018236

KBgen: Total number of Kleinman-Bylander projectors:   16
atom: -------------------------------------------------------------------------

atom: SANKEY-TYPE ORBITALS:
atom: Selected multiple-zeta basis: split     

SPLIT: Orbitals with angular momentum L= 0

SPLIT: Basis orbitals for state 2s

SPLIT: PAO cut-off radius determined from an
SPLIT: energy shift=  0.002000 Ry

   izeta = 1
                 lambda =    1.000000
                     rc =    4.730425
                 energy =   -1.363399
                kinetic =    1.245246
    potential(screened) =   -2.608645
       potential(ionic) =   -8.121105

   izeta = 2
                 rmatch =    2.531849
              splitnorm =    0.280000
                 energy =   -0.959908
                kinetic =    2.409435
    potential(screened) =   -3.369343
       potential(ionic) =   -9.427975

SPLIT: Orbitals with angular momentum L= 1

SPLIT: Basis orbitals for state 2p

SPLIT: PAO cut-off radius determined from an
SPLIT: energy shift=  0.002000 Ry

   izeta = 1
                 lambda =    1.000000
                     rc =    5.924108
                 energy =   -0.519262
                kinetic =    3.672940
    potential(screened) =   -4.192202
       potential(ionic) =   -9.518354

   izeta = 2
                 rmatch =    2.531849
              splitnorm =    0.280000
                 energy =   -0.104258
                kinetic =    6.807538
    potential(screened) =   -6.911796
       potential(ionic) =  -13.149920

POLgen: Perturbative polarization orbital with L=  2

POLgen: Polarization orbital for state 2p

   izeta = 1
                     rc =    5.924108
                 energy =    1.427508
                kinetic =    2.872379
    potential(screened) =   -1.444871
       potential(ionic) =   -5.563644
atom: Total number of Sankey-type orbitals: 13

atm_pop: Valence configuration (for local Pseudopot. screening):
 2s( 2.00)                                                            
 2p( 3.00)                                                            
Vna: chval, zval:    5.00000   5.00000

Vna:  Cut-off radius for the neutral-atom potential:   5.924108

atom: _________________________________________________________________________

<basis_specs>
===============================================================================
Si                   Z=  14    Mass=  28.090        Charge= 0.17977+309
Lmxo=1 Lmxkb= 3    BasisType=split      Semic=F
L=0  Nsemic=0  Cnfigmx=3
          i=1  nzeta=2  polorb=0  (3s)
            splnorm:   0.28000    
               vcte:    0.0000    
               rinn:    0.0000    
               qcoe:    0.0000    
               qyuk:    0.0000    
               qwid:   0.10000E-01
                rcs:    0.0000      0.0000    
            lambdas:    1.0000      1.0000    
L=1  Nsemic=0  Cnfigmx=3
          i=1  nzeta=2  polorb=1  (3p)
            splnorm:   0.28000    
               vcte:    0.0000    
               rinn:    0.0000    
               qcoe:    0.0000    
               qyuk:    0.0000    
               qwid:   0.10000E-01
                rcs:    0.0000      0.0000    
            lambdas:    1.0000      1.0000    
-------------------------------------------------------------------------------
L=0  Nkbl=1  erefs: 0.17977+309
L=1  Nkbl=1  erefs: 0.17977+309
L=2  Nkbl=1  erefs: 0.17977+309
L=3  Nkbl=1  erefs: 0.17977+309
===============================================================================
</basis_specs>

atom: Called for Si                    (Z =  14)

read_vps: Pseudopotential generation method:
read_vps: ATM4.2.7  Troullier-Martins                       
Valence charge for ps generation:    4.00000

xc_check: Exchange-correlation functional:
xc_check: GGA Perdew, Burke & Ernzerhof 1996
V l=0 = -2*Zval/r beyond r=  2.7826
V l=1 = -2*Zval/r beyond r=  2.7826
V l=2 = -2*Zval/r beyond r=  2.9253
V l=3 = -2*Zval/r beyond r=  2.7826
All V_l potentials equal beyond r=  2.8530
This should be close to max(r_c) in ps generation
All pots = -2*Zval/r beyond r=  2.9253

VLOCAL1: 99.0% of the norm of Vloc inside      5.333 Ry
VLOCAL1: 99.9% of the norm of Vloc inside     12.154 Ry
atom: Maximum radius for 4*pi*r*r*local-pseudopot. charge    3.39869
atom: Maximum radius for r*vlocal+2*Zval:    2.96205
GHOST: No ghost state for L =  0
GHOST: No ghost state for L =  1
GHOST: No ghost state for L =  2
GHOST: No ghost state for L =  3

KBgen: Kleinman-Bylander projectors: 
   l= 0   rc=  3.075247   el= -0.794092   Ekb=  5.879390   kbcos=  0.167461
   l= 1   rc=  3.153101   el= -0.300068   Ekb=  2.642817   kbcos=  0.058301
   l= 2   rc=  3.273594   el=  0.001958   Ekb= -1.185135   kbcos= -0.104411
   l= 3   rc=  3.232927   el=  0.003046   Ekb= -0.497174   kbcos= -0.015889

KBgen: Total number of Kleinman-Bylander projectors:   16
atom: -------------------------------------------------------------------------

atom: SANKEY-TYPE ORBITALS:
atom: Selected multiple-zeta basis: split     

SPLIT: Orbitals with angular momentum L= 0

SPLIT: Basis orbitals for state 3s

SPLIT: PAO cut-off radius determined from an
SPLIT: energy shift=  0.002000 Ry

   izeta = 1
                 lambda =    1.000000
                     rc =    6.429618
                 energy =   -0.792283
                kinetic =    0.525293
    potential(screened) =   -1.317576
       potential(ionic) =   -3.744923

   izeta = 2
                 rmatch =    3.998416
              splitnorm =    0.280000
                 energy =   -0.583081
                kinetic =    1.069570
    potential(screened) =   -1.652651
       potential(ionic) =   -4.235185

SPLIT: Orbitals with angular momentum L= 1

SPLIT: Basis orbitals for state 3p

SPLIT: PAO cut-off radius determined from an
SPLIT: energy shift=  0.002000 Ry

   izeta = 1
                 lambda =    1.000000
                     rc =    8.464845
                 energy =   -0.298236
                kinetic =    0.785360
    potential(screened) =   -1.083596
       potential(ionic) =   -3.273779

   izeta = 2
                 rmatch =    4.587816
              splitnorm =    0.280000
                 energy =   -0.131871
                kinetic =    1.403687
    potential(screened) =   -1.535557
       potential(ionic) =   -4.015310

POLgen: Perturbative polarization orbital with L=  2

POLgen: Polarization orbital for state 3p

   izeta = 1
                     rc =    8.464845
                 energy =    0.321949
                kinetic =    1.055677
    potential(screened) =   -0.733728
       potential(ionic) =   -2.672950
atom: Total number of Sankey-type orbitals: 13

atm_pop: Valence configuration (for local Pseudopot. screening):
 3s( 2.00)                                                            
 3p( 2.00)                                                            
Vna: chval, zval:    4.00000   4.00000

Vna:  Cut-off radius for the neutral-atom potential:   8.464845

atom: _________________________________________________________________________

<basis_specs>
===============================================================================
O                    Z=   8    Mass=  16.000        Charge= 0.17977+309
Lmxo=1 Lmxkb= 3    BasisType=split      Semic=F
L=0  Nsemic=0  Cnfigmx=2
          i=1  nzeta=2  polorb=0  (2s)
            splnorm:   0.28000    
               vcte:    0.0000    
               rinn:    0.0000    
               qcoe:    0.0000    
               qyuk:    0.0000    
               qwid:   0.10000E-01
                rcs:    0.0000      0.0000    
            lambdas:    1.0000      1.0000    
L=1  Nsemic=0  Cnfigmx=2
          i=1  nzeta=2  polorb=1  (2p)
            splnorm:   0.28000    
               vcte:    0.0000    
               rinn:    0.0000    
               qcoe:    0.0000    
               qyuk:    0.0000    
               qwid:   0.10000E-01
                rcs:    0.0000      0.0000    
            lambdas:    1.0000      1.0000    
-------------------------------------------------------------------------------
L=0  Nkbl=1  erefs: 0.17977+309
L=1  Nkbl=1  erefs: 0.17977+309
L=2  Nkbl=1  erefs: 0.17977+309
L=3  Nkbl=1  erefs: 0.17977+309
===============================================================================
</basis_specs>

atom: Called for O                     (Z =   8)

read_vps: Pseudopotential generation method:
read_vps: ATM4.2.7  Troullier-Martins                       
Valence charge for ps generation:    6.00000

xc_check: Exchange-correlation functional:
xc_check: GGA Perdew, Burke & Ernzerhof 1996
V l=0 = -2*Zval/r beyond r=  1.1000
V l=1 = -2*Zval/r beyond r=  1.1000
V l=2 = -2*Zval/r beyond r=  2.2154
V l=3 = -2*Zval/r beyond r=  1.1000
All V_l potentials equal beyond r=  2.2154
This should be close to max(r_c) in ps generation
All pots = -2*Zval/r beyond r=  2.2154

VLOCAL1: 99.0% of the norm of Vloc inside      8.845 Ry
VLOCAL1: 99.9% of the norm of Vloc inside     20.157 Ry
atom: Maximum radius for 4*pi*r*r*local-pseudopot. charge    2.67231
atom: Maximum radius for r*vlocal+2*Zval:    2.32897
GHOST: No ghost state for L =  0
GHOST: No ghost state for L =  1
GHOST: No ghost state for L =  2
GHOST: No ghost state for L =  3

KBgen: Kleinman-Bylander projectors: 
   l= 0   rc=  2.243238   el= -1.759686   Ekb=**********   kbcos= -0.171774
   l= 1   rc=  2.328968   el= -0.663873   Ekb=-14.506792   kbcos= -0.519897
   l= 2   rc=  2.573941   el=  0.002031   Ekb= -1.137373   kbcos= -0.019581
   l= 3   rc=  2.606321   el=  0.003153   Ekb= -1.013546   kbcos= -0.003122

KBgen: Total number of Kleinman-Bylander projectors:   16
atom: -------------------------------------------------------------------------

atom: SANKEY-TYPE ORBITALS:
atom: Selected multiple-zeta basis: split     

SPLIT: Orbitals with angular momentum L= 0

SPLIT: Basis orbitals for state 2s

SPLIT: PAO cut-off radius determined from an
SPLIT: energy shift=  0.002000 Ry

   izeta = 1
                 lambda =    1.000000
                     rc =    4.243912
                 energy =   -1.758270
                kinetic =    3.286084
    potential(screened) =   -5.044353
       potential(ionic) =  -12.921184

   izeta = 2
                 rmatch =    2.187845
              splitnorm =    0.280000
                 energy =   -0.885018
                kinetic =    8.134434
    potential(screened) =   -9.019452
       potential(ionic) =  -17.710645

SPLIT: Orbitals with angular momentum L= 1

SPLIT: Basis orbitals for state 2p

SPLIT: PAO cut-off radius determined from an
SPLIT: energy shift=  0.002000 Ry

   izeta = 1
                 lambda =    1.000000
                     rc =    5.314825
                 energy =   -0.661986
                kinetic =    4.917472
    potential(screened) =   -5.579458
       potential(ionic) =  -13.236259

   izeta = 2
                 rmatch =    2.160663
              splitnorm =    0.280000
                 energy =   -0.068760
                kinetic =    9.183374
    potential(screened) =   -9.252135
       potential(ionic) =  -18.274251

POLgen: Perturbative polarization orbital with L=  2

POLgen: Polarization orbital for state 2p

   izeta = 1
                     rc =    5.314825
                 energy =    1.970580
                kinetic =    3.886128
    potential(screened) =   -1.915547
       potential(ionic) =   -7.749584
atom: Total number of Sankey-type orbitals: 13

atm_pop: Valence configuration (for local Pseudopot. screening):
 2s( 2.00)                                                            
 2p( 4.00)                                                            
Vna: chval, zval:    6.00000   6.00000

Vna:  Cut-off radius for the neutral-atom potential:   5.314825

atom: _________________________________________________________________________

prinput: Basis input ----------------------------------------------------------

PAO.BasisType split     

%block ChemicalSpeciesLabel
    1    1 H                       # Species index, atomic number, species label
    2    7 N                       # Species index, atomic number, species label
    3   14 Si                      # Species index, atomic number, species label
    4    8 O                       # Species index, atomic number, species label
%endblock ChemicalSpeciesLabel

%block PAO.Basis                 # Define Basis set
H                     1                    # Species label, number of l-shells
 n=1   0   2 P   1                   # n, l, Nzeta, Polarization, NzetaPol
   6.518      2.141   
   1.000      1.000   
N                     2                    # Species label, number of l-shells
 n=2   0   2                         # n, l, Nzeta 
   4.730      2.532   
   1.000      1.000   
 n=2   1   2 P   1                   # n, l, Nzeta, Polarization, NzetaPol
   5.924      2.532   
   1.000      1.000   
Si                    2                    # Species label, number of l-shells
 n=3   0   2                         # n, l, Nzeta 
   6.430      3.998   
   1.000      1.000   
 n=3   1   2 P   1                   # n, l, Nzeta, Polarization, NzetaPol
   8.465      4.588   
   1.000      1.000   
O                     2                    # Species label, number of l-shells
 n=2   0   2                         # n, l, Nzeta 
   4.244      2.188   
   1.000      1.000   
 n=2   1   2 P   1                   # n, l, Nzeta, Polarization, NzetaPol
   5.315      2.161   
   1.000      1.000   
%endblock PAO.Basis

prinput: ----------------------------------------------------------------------

Dumping basis to NetCDF file H.ion.nc
Dumping basis to NetCDF file N.ion.nc
Dumping basis to NetCDF file Si.ion.nc
Dumping basis to NetCDF file O.ion.nc
coor:   Atomic-coordinates input format  =     Cartesian coordinates
coor:                                          (in Angstroms)

siesta: Atomic coordinates (Bohr) and species
siesta:      4.87999 -10.91663   0.00000  1        1
siesta:      3.12704  -9.95765   0.00000  2        2
siesta:      0.11930 -11.53056   0.00000  3        3
siesta:      0.22530 -14.35597   0.00000  1        4
siesta:     -2.60195  -9.79371   0.00000  2        5
siesta:     -1.55784  -6.54009   0.00000  3        6
siesta:     -2.21206  -2.39996   0.00000  3        7
siesta:     -5.11537  -0.78899   0.00000  2        8
siesta:     -5.20538   1.19971   0.00000  1        9
siesta:     -6.87421  -1.71959   0.00000  1       10
siesta:      0.41213  -0.44256   0.00000  2       11
siesta:      3.53758  -1.31745   0.00000  3       12
siesta:      5.34415   0.87204   0.00000  1       13
siesta:      5.00428  -4.26138   0.00000  2       14
siesta:      2.63035  -6.52849   0.00000  3       15
siesta:      3.45076  17.11083   0.00000  2       16
siesta:      0.94239  19.39778   0.00000  3       17
siesta:      2.15181  21.97030   0.00000  1       18
siesta:     -2.99910  18.13066   0.00000  3       19
siesta:     -6.83442  20.26627   0.00000  3       20
siesta:     -6.54296  22.45879   1.77692  1       21
siesta:     -8.69757  18.33512   0.96870  1       22
siesta:     -7.62096  21.16621  -2.58265  1       23
siesta:     -2.87345  13.83347   0.00000  3       24
siesta:     -4.83696  11.57891   0.00000  4       25
siesta:      0.25781  12.63543   0.00000  2       26
siesta:      0.22377  10.62770   0.00000  1       27
siesta:      3.32598  13.76373   0.00000  3       28
siesta:      5.58424  11.84674   0.00000  4       29
siesta:      5.34055  17.76374   0.00000  1       30

siesta: Automatic unit cell vectors (Ang):
siesta:   15.892170    0.000000    0.000000
siesta:    0.000000   29.018260    0.000000
siesta:    0.000000    0.000000   10.224979

siesta: System type = molecule  

initatomlists: Number of atoms, orbitals, and projectors:     30   302   403

siesta: ******************** Simulation parameters ****************************
siesta:
siesta: The following are some of the parameters of the simulation.
siesta: A complete list of the parameters used, including default values,
siesta: can be found in file out.fdf
siesta:
redata: Spin configuration                          = spin-orbit
redata: Number of spin components                   = 8
redata: Time-Reversal Symmetry                      = F
redata: Spin spiral                                 = F
############################################################
This spin-orbit implementation uses a local approximation.
From 4.2 and onwards the full non-local approximation is implemented
You are strongly advised to use >=4.2 versions!
############################################################
redata: Long output                                 =   F
redata: Number of Atomic Species                    =        4
redata: Charge density info will appear in .RHO file
redata: Write Mulliken Pop.                         = Atomic and Orbital charges
redata: Matel table size (NRTAB)                    =     1024
redata: Mesh Cutoff                                 =   340.0000 Ry
redata: Net charge of the system                    =     0.0000 |e|
redata: Min. number of SCF Iter                     =        1
redata: Max. number of SCF Iter                     =      200
redata: SCF mix quantity                            = Hamiltonian
redata: Mix DM or H after convergence               =   F
redata: Recompute H after scf cycle                 =   F
redata: Mix DM in first SCF step                    =   T
redata: Write Pulay info on disk                    =   F
redata: New DM Occupancy tolerance                  = 0.000000000001
redata: No kicks to SCF
redata: DM Mixing Weight for Kicks                  =     0.5000
redata: Require Harris convergence for SCF          =   F
redata: Harris energy tolerance for SCF             =     0.000100 eV
redata: Require DM convergence for SCF              =   T
redata: DM tolerance for SCF                        =     0.000008
redata: Require EDM convergence for SCF             =   F
redata: EDM tolerance for SCF                       =     0.001000 eV
redata: Require H convergence for SCF               =   T
redata: Hamiltonian tolerance for SCF               =     0.000001 eV
redata: Require (free) Energy convergence for SCF   =   F
redata: (free) Energy tolerance for SCF             =     0.000100 eV
redata: Using Saved Data (generic)                  =   F
redata: Use continuation files for DM               =   F
redata: Neglect nonoverlap interactions             =   F
redata: Method of Calculation                       = Diagonalization
redata: Electronic Temperature                      =   299.9978 K
redata: Fix the spin of the system                  =   F
redata: Dynamics option                             = Single-point calculation
mix.SCF: Pulay mixing                            = Pulay
mix.SCF:    Variant                              = stable
mix.SCF:    History steps                        = 6
mix.SCF:    Linear mixing weight                 =     0.250000
mix.SCF:    Mixing weight                        =     0.250000
mix.SCF:    SVD condition                        = 0.1000E-07
mix.SCF:    Restart steps                        = 24
mix.SCF:    Restart save steps                   = 3
mix.SCF: Spin-component mixing                   all
redata: Save all siesta data in one NC              =   F
redata: ***********************************************************************

%block SCF.Mixers
  Pulay
%endblock SCF.Mixers

%block SCF.Mixer.Pulay
  # Mixing method
  method pulay
  variant stable

  # Mixing options
  weight 0.2500
  weight.linear 0.2500
  history 6
  restart 24
  restart.save 3
%endblock SCF.Mixer.Pulay

DM_history_depth set to one: no extrapolation allowed by default for geometry relaxation
Size of DM history Fstack: 1
Total number of electrons:    98.000000
Total ionic charge:    98.000000

* ProcessorY, Blocksize:    2  24


* Orbital distribution balance (max,min):    62    48


Time-reversal symmetry not used.

siesta: k-grid: Number of k-points =     1
siesta: k-grid: Cutoff (effective) =     5.112 Ang
siesta: k-grid: Supercell and displacements
siesta: k-grid:    1   0   0      0.000
siesta: k-grid:    0   1   0      0.000
siesta: k-grid:    0   0   1      0.000

diag: Algorithm                                     = ELPA-1stage
diag: Parallel over k                               =   F
diag: Use parallel 2D distribution                  =   T
diag: Parallel block-size                           = 24
diag: Parallel distribution                         =     2 x     3
diag: Used triangular part                          = Lower
diag: Absolute tolerance                            =  0.100E-15
diag: Orthogonalization factor                      =  0.100E-05
diag: Memory factor                                 =  1.0000


ts: **************************************************************
ts: Save H and S matrices                           =    F
ts: Save DM and EDM matrices                        =    F
ts: Only save the overlap matrix S                  =    F
ts: **************************************************************

************************ Begin: TS CHECKS AND WARNINGS ************************
************************ End: TS CHECKS AND WARNINGS **************************


                     ====================================
                        Single-point calculation
                     ====================================

outcoor: Atomic coordinates (Ang):                          
    2.58237765   -5.77683044    0.00000000   1       1  H
    1.65475924   -5.26936198    0.00000000   2       2  N
    0.06312884   -6.10170459    0.00000000   3       3  Si
    0.11922324   -7.59684950    0.00000000   1       4  H
   -1.37689205   -5.18260374    0.00000000   2       5  N
   -0.82437190   -3.46086644    0.00000000   3       6  Si
   -1.17057148   -1.27000210    0.00000000   3       7  Si
   -2.70693368   -0.41751578    0.00000000   2       8  N
   -2.75456966    0.63485862    0.00000000   1       9  H
   -3.63767564   -0.90996786    0.00000000   1      10  H
    0.21809179   -0.23419397    0.00000000   2      11  N
    1.87200410   -0.69716230    0.00000000   3      12  Si
    2.82800113    0.46146477    0.00000000   1      13  H
    2.64815008   -2.25502447    0.00000000   2      14  N
    1.39192138   -3.45472722    0.00000000   3      15  Si
    1.82606022    9.05465609    0.00000000   2      16  N
    0.49868870   10.26486039    0.00000000   3      17  Si
    1.13868996   11.62617863    0.00000000   1      18  H
   -1.58705725    9.59432904    0.00000000   3      19  Si
   -3.61661985   10.72444523    0.00000000   3      20  Si
   -3.46238408   11.88467544    0.94030528   1      21  H
   -4.60255457    9.70252461    0.51261370   1      22  H
   -4.03283481   11.20067108   -1.36667834   1      23  H
   -1.52056182    7.32035242    0.00000000   3      24  Si
   -2.55961055    6.12729292    0.00000000   4      25  O
    0.13642976    6.68637723    0.00000000   2      26  N
    0.11841238    5.62393240    0.00000000   1      27  H
    1.76003282    7.28344744    0.00000000   3      28  Si
    2.95504899    6.26902224    0.00000000   4      29  O
    2.82609758    9.40016319    0.00000000   1      30  H

outcell: Unit cell vectors (Ang):
       15.892170    0.000000    0.000000
        0.000000   29.018260    0.000000
        0.000000    0.000000   10.224979

outcell: Cell vector modules (Ang)   :   15.892170   29.018260   10.224979
outcell: Cell angles (23,13,12) (deg):     90.0000     90.0000     90.0000
outcell: Cell volume (Ang**3)        :   4715.3833
<dSpData1D:S at geom step 0
  <sparsity:sparsity for geom step 0
    nrows_g=302 nrows=62 sparsity=.0999 nnzs=9110, refcount: 8>
  <dData1D:(new from dSpData1D) n=9110, refcount: 1>
refcount: 1>
new_DM -- step:     1
Initializing Density Matrix...
DM filled with atomic data:
<dSpData2D:DM initialized from atoms
  <sparsity:sparsity for geom step 0
    nrows_g=302 nrows=62 sparsity=.0999 nnzs=9110, refcount: 9>
  <dData2D:DM n=9110 m=8, refcount: 1>
refcount: 1>
     spin moment: S , {S} =   56.00000   0.00000   0.00000  56.00000
No. of atoms with KB's overlaping orbs in proc 0. Max # of overlaps:      24     133

Initializing spin-orbit part of the Hamiltonian
  Adding spin-orbit effects for H 
  Adding spin-orbit effects for N 
  Adding spin-orbit effects for Si
  Adding spin-orbit effects for O 


New grid distribution:   1
           1       1:   90    1:   81    1:   20
           2       1:   90    1:   81   21:   40
           3       1:   90    1:   81   41:   60
           4       1:   90   82:  162    1:   20
           5       1:   90   82:  162   21:   40
           6       1:   90   82:  162   41:   60

InitMesh: MESH =   180 x   324 x   120 =     6998400
InitMesh: (bp) =    90 x   162 x    60 =      874800
InitMesh: Mesh cutoff (required, used) =   340.000   344.547 Ry
ExtMesh (bp) on 0 =   194 x   185 x   128 =     4593920
New grid distribution:   2
           1      14:   90   46:   65    1:   60
           2       1:   11   66:  162    1:   60
           3       1:   13    1:   65    1:   60
           4      12:   90   66:  143    1:   60
           5      14:   90    1:   45    1:   60
           6      12:   90  144:  162    1:   60
New grid distribution:   3
           1       1:   19   66:  162    1:   60
           2      22:   90   41:   65    1:   60
           3       1:   21    1:   65    1:   60
           4      20:   90   66:  132    1:   60
           5      22:   90    1:   40    1:   60
           6      20:   90  133:  162    1:   60
Setting up quadratic distribution...
ExtMesh (bp) on 0 =   181 x   124 x   168 =     3770592
PhiOnMesh: Number of (b)points on node 0 =                92400
PhiOnMesh: nlist on node 0 =              1699301

stepf: Fermi-Dirac step function

siesta: Program's energy decomposition (eV):
siesta: Ebs     =      -638.345086
siesta: Eions   =      3553.971015
siesta: Ena     =       377.805314
siesta: Ekin    =      3183.363736
siesta: Enl     =     -2998.276904
siesta: Eso     =        -0.003901
siesta: Edftu   =         0.000000
siesta: DEna    =       130.402221
siesta: DUscf   =        76.788072
siesta: DUext   =         0.000000
siesta: Exc     =     -1171.376674
siesta: eta*DQ  =         0.000000
siesta: Emadel  =         0.000000
siesta: Emeta   =         0.000000
siesta: Emolmec =         0.000000
siesta: Ekinion =         0.000000
siesta: Eharris =     -3882.189981
siesta: Etot    =     -3955.269151
siesta: FreeEng =     -3955.273348

        iscf     Eharris(eV)        E_KS(eV)     FreeEng(eV)     dDmax    Ef(eV) dHmax(eV)
   scf:    1    -3882.189981    -3955.269151    -3955.273348  0.971356 -4.940670 21.521824
     spin moment: S , {S} =    2.03166   0.00003   0.00001   2.03166
timer: Routine,Calls,Time,% = IterSCF        1       5.547  21.74
   scf:    2    -3997.236418    -3989.037566    -3989.037567  0.457300 -4.373510 11.027048
     spin moment: S , {S} =    2.00010  -0.00001   0.00004   2.00010
   scf:    3    -3967.294073    -3988.131564    -3988.160413  0.414966 -4.293439 10.586739
     spin moment: S , {S} =    1.59972   0.00003   0.00001   1.59972
   scf:    4    -4001.726401    -3997.369130    -3997.369135  0.263686 -3.987843  5.629695
     spin moment: S , {S} =    0.00011   0.00001  -0.00000   0.00011
   scf:    5    -3998.642424    -3998.101537    -3998.101537  0.039879 -3.917787  3.249054
     spin moment: S , {S} =    0.00006   0.00001  -0.00000   0.00006
   scf:    6    -3998.805447    -3998.461810    -3998.461810  0.023490 -3.908307  1.841573
     spin moment: S , {S} =    0.00003   0.00000  -0.00000   0.00003
   scf:    7    -3998.870562    -3998.658362    -3998.658362  0.024477 -3.956413  0.760470
     spin moment: S , {S} =    0.00001   0.00000  -0.00000   0.00001
   scf:    8    -3998.778235    -3998.715995    -3998.715995  0.012091 -3.997740  0.445485
     spin moment: S , {S} =    0.00000   0.00000  -0.00000   0.00000
   scf:    9    -3998.759183    -3998.736673    -3998.736673  0.006557 -4.013166  0.353129
     spin moment: S , {S} =    0.00000   0.00000  -0.00000   0.00000
   scf:   10    -3998.794217    -3998.757606    -3998.757612  0.021904 -4.039395  0.196712
     spin moment: S , {S} =    0.00002   0.00000   0.00000  -0.00002
   scf:   11    -3998.761622    -3998.759704    -3998.759713  0.004076 -4.026629  0.060742
     spin moment: S , {S} =    0.00000   0.00000   0.00000   0.00000
   scf:   12    -3998.760351    -3998.760038    -3998.760050  0.001211 -4.024305  0.033490
     spin moment: S , {S} =    0.00000   0.00000   0.00000   0.00000
   scf:   13    -3998.760491    -3998.760261    -3998.760273  0.000840 -4.022157  0.016450
     spin moment: S , {S} =    0.00000   0.00000   0.00000   0.00000
   scf:   14    -3998.760457    -3998.760356    -3998.760369  0.000845 -4.021389  0.009861
     spin moment: S , {S} =    0.00000   0.00000   0.00000   0.00000
   scf:   15    -3998.760468    -3998.760408    -3998.760421  0.000837 -4.021044  0.007225
     spin moment: S , {S} =    0.00000   0.00000   0.00000   0.00000
   scf:   16    -3998.760462    -3998.760433    -3998.760446  0.000697 -4.021086  0.004742
     spin moment: S , {S} =    0.00000   0.00000   0.00000   0.00000
   scf:   17    -3998.760450    -3998.760441    -3998.760454  0.000427 -4.021162  0.003614
     spin moment: S , {S} =    0.00000   0.00000   0.00000  -0.00000
   scf:   18    -3998.760446    -3998.760443    -3998.760456  0.000229 -4.021223  0.002493
     spin moment: S , {S} =    0.00000   0.00000   0.00000   0.00000
   scf:   19    -3998.760448    -3998.760445    -3998.760458  0.000283 -4.021230  0.001419
     spin moment: S , {S} =    0.00000   0.00000   0.00000  -0.00000
   scf:   20    -3998.760446    -3998.760446    -3998.760459  0.000099 -4.021240  0.000997
     spin moment: S , {S} =    0.00000   0.00000   0.00000  -0.00000
   scf:   21    -3998.760447    -3998.760446    -3998.760459  0.000116 -4.021244  0.000509
     spin moment: S , {S} =    0.00000   0.00000   0.00000  -0.00000
   scf:   22    -3998.760446    -3998.760446    -3998.760459  0.000083 -4.021252  0.000156
     spin moment: S , {S} =    0.00000   0.00000  -0.00000  -0.00000
   scf:   23    -3998.760446    -3998.760446    -3998.760459  0.000029 -4.021256  0.000096
     spin moment: S , {S} =    0.00000   0.00000  -0.00000  -0.00000
   scf:   24    -3998.760446    -3998.760446    -3998.760459  0.000011 -4.021255  0.000061
     spin moment: S , {S} =    0.00000  -0.00000  -0.00000  -0.00000
mix: Pulay -- resetting history
   scf:   25    -3998.760446    -3998.760446    -3998.760459  0.000006 -4.021253  0.000029
     spin moment: S , {S} =    0.00000  -0.00000  -0.00000  -0.00000
   scf:   26    -3998.760446    -3998.760446    -3998.760459  0.000002 -4.021252  0.000019
     spin moment: S , {S} =    0.00000   0.00000  -0.00000  -0.00000
   scf:   27    -3998.760446    -3998.760446    -3998.760459  0.000001 -4.021251  0.000010
     spin moment: S , {S} =    0.00000   0.00000  -0.00000  -0.00000
   scf:   28    -3998.760446    -3998.760446    -3998.760459  0.000001 -4.021251  0.000006
     spin moment: S , {S} =    0.00000  -0.00000  -0.00000  -0.00000
   scf:   29    -3998.760446    -3998.760446    -3998.760459  0.000000 -4.021251  0.000003
     spin moment: S , {S} =    0.00000   0.00000  -0.00000  -0.00000
   scf:   30    -3998.760446    -3998.760446    -3998.760459  0.000000 -4.021252  0.000003
     spin moment: S , {S} =    0.00000   0.00000  -0.00000   0.00000
   scf:   31    -3998.760446    -3998.760446    -3998.760459  0.000000 -4.021252  0.000002
     spin moment: S , {S} =    0.00000   0.00000  -0.00000   0.00000
   scf:   32    -3998.760446    -3998.760446    -3998.760459  0.000000 -4.021252  0.000002
     spin moment: S , {S} =    0.00000   0.00000   0.00000   0.00000
   scf:   33    -3998.760446    -3998.760446    -3998.760459  0.000000 -4.021252  0.000001
     spin moment: S , {S} =    0.00000  -0.00000   0.00000   0.00000

SCF Convergence by DM+H criterion
max |DM_out - DM_in|         :     0.0000002242
max |H_out - H_in|      (eV) :     0.0000008479
SCF cycle converged after 33 iterations

Using DM_out to compute the final energy and forces
No. of atoms with KB's overlaping orbs in proc 0. Max # of overlaps:      24     133

siesta: E_KS(eV) =            -3998.7604

siesta: E_KS - E_eggbox =     -3998.7604
     spin moment: S , {S} =    0.00000  -0.00000   0.00000   0.00000

siesta: Atomic forces (eV/Ang):
     1   -0.024570    0.021946    0.000002
     2   -0.006039   -0.037251   -0.000002
     3   -0.003582    0.039882    0.000004
     4   -0.044557   -0.048443    0.000001
     5    0.015826   -0.034736   -0.000003
     6    0.020984    0.004692   -0.000000
     7   -0.050434    0.101481    0.000003
     8    0.046645   -0.036275   -0.000012
     9    0.096391   -0.081510    0.000016
    10    0.140618    0.121880    0.000003
    11   -0.041335   -0.043045   -0.000004
    12    0.033819    0.058084    0.000001
    13   -0.089756   -0.207175   -0.000000
    14   -0.021233   -0.088782    0.000000
    15    0.000458    0.065676   -0.000000
    16   -0.001536    0.095197    0.008000
    17   -0.012110   -0.043390   -0.039744
    18   -0.025539    0.172617    0.008230
    19    0.007966    0.031703   -0.041273
    20    0.042295   -0.056057    0.025777
    21   -0.065305    0.201894    0.068678
    22    0.014158   -0.003545    0.026579
    23   -0.053281    0.017280   -0.048954
    24    0.031189   -0.110753   -0.026617
    25   -0.776643   -1.643434    0.002993
    26   -0.026506    0.053879    0.006530
    27   -0.036353   -0.038706    0.002782
    28   -0.000475   -0.105129   -0.000870
    29    0.738689    0.252822   -0.001111
    30   -0.003320    0.346779    0.008280
----------------------------------------
   Tot   -0.093535   -0.992421   -0.000714
----------------------------------------
   Max    1.643434
   Res    0.219146    sqrt( Sum f_i^2 / 3N )
----------------------------------------
   Max    1.643434    constrained

Stress tensor Voigt[x,y,z,yz,xz,xy] (kbar):       -1.55       -0.44       -0.21       -0.04        0.05        0.27
(Free)E + p*V (eV/cell)    -3996.6136
Target enthalpy (eV/cell)    -3998.7605

mulliken: Atomic and Orbital Populations:

Species: H                   

Atom      Orb        Charge      Spin       Svec
----------------------------------------------------------------
    1  1 1s         0.50839   0.00000     -0.000   0.000   0.000
    1  2 1s         0.18806   0.00000     -0.000  -0.000   0.000
    1  3 2Ppy       0.02791   0.00000     -0.000   0.000  -0.000
    1  4 2Ppz       0.03993   0.00000     -0.000  -0.000  -0.000
    1  5 2Ppx       0.02505   0.00000     -0.000  -0.000   0.000
    1     Total     0.78935   0.00000     -0.000   0.000   0.000

    4  1 1s         1.02370   0.00000     -0.000   0.000  -0.000
    4  2 1s         0.09513   0.00000      0.000  -0.000   0.000
    4  3 2Ppy       0.03906   0.00000     -0.000   0.000  -0.000
    4  4 2Ppz       0.01986   0.00000      0.000  -0.000   0.000
    4  5 2Ppx       0.01356   0.00000     -0.000   0.000  -0.000
    4     Total     1.19132   0.00000     -0.000   0.000  -0.000

    9  1 1s         0.47973   0.00000     -0.000   0.000  -0.000
    9  2 1s         0.19538   0.00000     -0.000  -0.000  -0.000
    9  3 2Ppy       0.02297   0.00000     -0.000   0.000   0.000
    9  4 2Ppz       0.04915   0.00000      0.000  -0.000  -0.000
    9  5 2Ppx       0.01241   0.00000      0.000  -0.000  -0.000
    9     Total     0.75964   0.00000     -0.000  -0.000  -0.000

   10  1 1s         0.48230   0.00000     -0.000   0.000  -0.000
   10  2 1s         0.19605   0.00000      0.000  -0.000  -0.000
   10  3 2Ppy       0.00685   0.00000     -0.000   0.000   0.000
   10  4 2Ppz       0.05301   0.00000     -0.000  -0.000   0.000
   10  5 2Ppx       0.02900   0.00000     -0.000   0.000  -0.000
   10     Total     0.76721   0.00000     -0.000   0.000  -0.000

   13  1 1s         1.01415   0.00000     -0.000  -0.000  -0.000
   13  2 1s         0.09944   0.00000      0.000   0.000   0.000
   13  3 2Ppy       0.02468   0.00000     -0.000   0.000   0.000
   13  4 2Ppz       0.01447   0.00000      0.000  -0.000   0.000
   13  5 2Ppx       0.01750   0.00000     -0.000   0.000  -0.000
   13     Total     1.17024   0.00000     -0.000  -0.000  -0.000

   18  1 1s         1.05012   0.00000     -0.000  -0.000  -0.000
   18  2 1s         0.08399   0.00000      0.000   0.000   0.000
   18  3 2Ppy       0.02776   0.00000     -0.000  -0.000   0.000
   18  4 2Ppz       0.01893   0.00000     -0.000  -0.000  -0.000
   18  5 2Ppx       0.01766   0.00000     -0.000   0.000   0.000
   18     Total     1.19846   0.00000     -0.000  -0.000  -0.000

   21  1 1s         1.06680   0.00000     -0.000   0.000  -0.000
   21  2 1s         0.08256   0.00000      0.000  -0.000   0.000
   21  3 2Ppy       0.02228   0.00000      0.000   0.000   0.000
   21  4 2Ppz       0.02109   0.00000      0.000  -0.000   0.000
   21  5 2Ppx       0.01161   0.00000      0.000  -0.000  -0.000
   21     Total     1.20434   0.00000     -0.000   0.000  -0.000

   22  1 1s         1.05203   0.00000     -0.000  -0.000  -0.000
   22  2 1s         0.08348   0.00000      0.000   0.000   0.000
   22  3 2Ppy       0.02014   0.00000      0.000  -0.000  -0.000
   22  4 2Ppz       0.01768   0.00000      0.000   0.000  -0.000
   22  5 2Ppx       0.01709   0.00000     -0.000  -0.000   0.000
   22     Total     1.19042   0.00000     -0.000  -0.000  -0.000

   23  1 1s         1.06497   0.00000     -0.000  -0.000  -0.000
   23  2 1s         0.08217   0.00000      0.000   0.000   0.000
   23  3 2Ppy       0.01685   0.00000     -0.000  -0.000  -0.000
   23  4 2Ppz       0.02461   0.00000     -0.000  -0.000   0.000
   23  5 2Ppx       0.01349   0.00000      0.000  -0.000   0.000
   23     Total     1.20209   0.00000     -0.000  -0.000  -0.000

   27  1 1s         0.46499   0.00000     -0.000   0.000   0.000
   27  2 1s         0.19041   0.00000      0.000  -0.000  -0.000
   27  3 2Ppy       0.02015   0.00000     -0.000  -0.000  -0.000
   27  4 2Ppz       0.02571   0.00000      0.000   0.000   0.000
   27  5 2Ppx       0.02937   0.00000      0.000  -0.000   0.000
   27     Total     0.73064   0.00000     -0.000   0.000   0.000

   30  1 1s         0.48420   0.00000     -0.000   0.000  -0.000
   30  2 1s         0.18921   0.00000      0.000   0.000   0.000
   30  3 2Ppy       0.02652   0.00000      0.000  -0.000   0.000
   30  4 2Ppz       0.03450   0.00000     -0.000  -0.000   0.000
   30  5 2Ppx       0.02319   0.00000      0.000  -0.000   0.000
   30     Total     0.75762   0.00000     -0.000  -0.000   0.000

----------------------------------------------------------------
Total              10.96133   0.00000     -0.000  -0.000  -0.000


Species: N                   

Atom      Orb        Charge      Spin       Svec
----------------------------------------------------------------
    2  1 2s         1.38116   0.00000      0.000  -0.000  -0.000
    2  2 2s         0.12656   0.00000     -0.000   0.000   0.000
    2  3 2py        1.06834   0.00000     -0.000  -0.000  -0.000
    2  4 2pz        1.49546   0.00000     -0.000   0.000  -0.000
    2  5 2px        1.01756   0.00000     -0.000   0.000  -0.000
    2  6 2py        0.19589   0.00000     -0.000   0.000   0.000
    2  7 2pz        0.01427   0.00000      0.000  -0.000   0.000
    2  8 2px        0.20990   0.00000      0.000  -0.000   0.000
    2  9 3Pdxy      0.00673   0.00000     -0.000  -0.000   0.000
    2 10 3Pdyz      0.00606   0.00000      0.000  -0.000   0.000
    2 11 3Pdz2      0.00151   0.00000     -0.000   0.000   0.000
    2 12 3Pdxz      0.00304   0.00000      0.000  -0.000   0.000
    2 13 3Pdx2-y2   0.00297   0.00000     -0.000  -0.000   0.000
    2     Total     5.52944   0.00000     -0.000   0.000  -0.000

    5  1 2s         1.55820   0.00000     -0.000   0.000  -0.000
    5  2 2s         0.08110   0.00000     -0.000  -0.000  -0.000
    5  3 2py        0.90449   0.00000     -0.000   0.000  -0.000
    5  4 2pz        1.22251   0.00000     -0.000   0.000  -0.000
    5  5 2px        1.14169   0.00000     -0.000   0.000  -0.000
    5  6 2py        0.23013   0.00000      0.000  -0.000   0.000
    5  7 2pz        0.05523   0.00000     -0.000   0.000   0.000
    5  8 2px        0.14635   0.00000      0.000  -0.000   0.000
    5  9 3Pdxy      0.00854   0.00000     -0.000   0.000  -0.000
    5 10 3Pdyz      0.00700   0.00000      0.000   0.000   0.000
    5 11 3Pdz2      0.00189   0.00000      0.000  -0.000   0.000
    5 12 3Pdxz      0.01129   0.00000      0.000   0.000   0.000
    5 13 3Pdx2-y2   0.00920   0.00000      0.000  -0.000   0.000
    5     Total     5.37761   0.00000     -0.000   0.000  -0.000

    8  1 2s         1.28482   0.00000     -0.000   0.000  -0.000
    8  2 2s         0.17152   0.00000      0.000  -0.000  -0.000
    8  3 2py        1.06136   0.00000     -0.000   0.000  -0.000
    8  4 2pz        1.57197   0.00000      0.000   0.000  -0.000
    8  5 2px        1.00425   0.00000      0.000  -0.000  -0.000
    8  6 2py        0.19494   0.00000      0.000  -0.000   0.000
    8  7 2pz        0.02738   0.00000     -0.000  -0.000  -0.000
    8  8 2px        0.22887   0.00000     -0.000  -0.000   0.000
    8  9 3Pdxy      0.00269   0.00000      0.000   0.000  -0.000
    8 10 3Pdyz      0.00082   0.00000     -0.000  -0.000  -0.000
    8 11 3Pdz2      0.00273   0.00000     -0.000  -0.000   0.000
    8 12 3Pdxz      0.00243   0.00000     -0.000   0.000  -0.000
    8 13 3Pdx2-y2   0.00436   0.00000      0.000  -0.000   0.000
    8     Total     5.55813   0.00000      0.000   0.000  -0.000

   11  1 2s         1.45915   0.00000      0.000   0.000  -0.000
   11  2 2s         0.11388   0.00000     -0.000  -0.000  -0.000
   11  3 2py        1.22248   0.00000     -0.000  -0.000  -0.000
   11  4 2pz        1.28735   0.00000     -0.000   0.000  -0.000
   11  5 2px        0.79891   0.00000     -0.000  -0.000  -0.000
   11  6 2py        0.11213   0.00000      0.000   0.000   0.000
   11  7 2pz        0.04632   0.00000      0.000   0.000   0.000
   11  8 2px        0.31789   0.00000      0.000   0.000   0.000
   11  9 3Pdxy      0.00736   0.00000      0.000   0.000   0.000
   11 10 3Pdyz      0.00609   0.00000      0.000  -0.000   0.000
   11 11 3Pdz2      0.00055   0.00000      0.000  -0.000   0.000
   11 12 3Pdxz      0.00496   0.00000      0.000   0.000  -0.000
   11 13 3Pdx2-y2   0.00528   0.00000     -0.000   0.000   0.000
   11     Total     5.38235   0.00000     -0.000   0.000  -0.000

   14  1 2s         1.50652   0.00000      0.000   0.000  -0.000
   14  2 2s         0.10229   0.00000     -0.000  -0.000  -0.000
   14  3 2py        0.84394   0.00000     -0.000   0.000  -0.000
   14  4 2pz        1.23724   0.00000     -0.000  -0.000  -0.000
   14  5 2px        1.17756   0.00000      0.000  -0.000  -0.000
   14  6 2py        0.27751   0.00000      0.000   0.000   0.000
   14  7 2pz        0.05438   0.00000     -0.000   0.000   0.000
   14  8 2px        0.13195   0.00000     -0.000   0.000   0.000
   14  9 3Pdxy      0.00949   0.00000     -0.000   0.000   0.000
   14 10 3Pdyz      0.00491   0.00000      0.000  -0.000   0.000
   14 11 3Pdz2      0.00146   0.00000     -0.000  -0.000   0.000
   14 12 3Pdxz      0.01066   0.00000      0.000   0.000   0.000
   14 13 3Pdx2-y2   0.00792   0.00000      0.000  -0.000  -0.000
   14     Total     5.36583   0.00000      0.000  -0.000  -0.000

   16  1 2s         1.37852   0.00000     -0.000   0.000  -0.000
   16  2 2s         0.12596   0.00000      0.000  -0.000   0.000
   16  3 2py        0.99107   0.00000      0.000   0.000  -0.000
   16  4 2pz        1.54751   0.00000      0.000   0.000  -0.000
   16  5 2px        1.07920   0.00000      0.000   0.000  -0.000
   16  6 2py        0.23958   0.00000     -0.000  -0.000   0.000
   16  7 2pz        0.00326   0.00000     -0.000   0.000   0.000
   16  8 2px        0.18097   0.00000      0.000  -0.000  -0.000
   16  9 3Pdxy      0.00152   0.00000     -0.000  -0.000   0.000
   16 10 3Pdyz      0.00476   0.00000     -0.000   0.000   0.000
   16 11 3Pdz2      0.00088   0.00000      0.000  -0.000   0.000
   16 12 3Pdxz      0.00237   0.00000     -0.000  -0.000  -0.000
   16 13 3Pdx2-y2   0.00609   0.00000      0.000  -0.000   0.000
   16     Total     5.56170   0.00000      0.000   0.000  -0.000

   26  1 2s         1.37342   0.00000      0.000   0.000  -0.000
   26  2 2s         0.12518   0.00000     -0.000  -0.000  -0.000
   26  3 2py        1.11205   0.00000      0.000  -0.000  -0.000
   26  4 2pz        1.53079   0.00000      0.000   0.000  -0.000
   26  5 2px        0.94651   0.00000     -0.000  -0.000  -0.000
   26  6 2py        0.16936   0.00000     -0.000   0.000   0.000
   26  7 2pz        0.00507   0.00000      0.000  -0.000   0.000
   26  8 2px        0.26508   0.00000      0.000   0.000   0.000
   26  9 3Pdxy      0.00063   0.00000     -0.000  -0.000  -0.000
   26 10 3Pdyz      0.00079   0.00000     -0.000  -0.000   0.000
   26 11 3Pdz2     -0.00127   0.00000     -0.000  -0.000  -0.000
   26 12 3Pdxz      0.00470   0.00000      0.000   0.000   0.000
   26 13 3Pdx2-y2   0.00220   0.00000     -0.000   0.000  -0.000
   26     Total     5.53452   0.00000      0.000   0.000  -0.000

----------------------------------------------------------------
Total              49.27091   0.00000     -0.000  -0.000  -0.000


Species: Si                  

Atom      Orb        Charge      Spin       Svec
----------------------------------------------------------------
    3  1 3s         0.55122   0.00000     -0.000   0.000   0.000
    3  2 3s         0.38748   0.00000      0.000  -0.000   0.000
    3  3 3py        0.08158   0.00000      0.000  -0.000   0.000
    3  4 3pz        0.53510   0.00000      0.000  -0.000   0.000
    3  5 3px        0.36828   0.00000      0.000  -0.000   0.000
    3  6 3py        0.49929   0.00000     -0.000   0.000   0.000
    3  7 3pz        0.17609   0.00000      0.000  -0.000   0.000
    3  8 3px        0.23724   0.00000     -0.000   0.000   0.000
    3  9 3Pdxy      0.10813   0.00000      0.000   0.000   0.000
    3 10 3Pdyz      0.05202   0.00000     -0.000   0.000   0.000
    3 11 3Pdz2      0.01014   0.00000      0.000  -0.000  -0.000
    3 12 3Pdxz      0.13291   0.00000      0.000   0.000   0.000
    3 13 3Pdx2-y2   0.32434   0.00000      0.000   0.000   0.000
    3     Total     3.46382   0.00000      0.000  -0.000   0.000

    6  1 3s         0.66183   0.00000      0.000  -0.000   0.000
    6  2 3s         0.37048   0.00000     -0.000   0.000   0.000
    6  3 3py        0.13097   0.00000     -0.000   0.000  -0.000
    6  4 3pz        0.69459   0.00000     -0.000   0.000  -0.000
    6  5 3px        0.49058   0.00000      0.000  -0.000   0.000
    6  6 3py        0.46532   0.00000      0.000  -0.000   0.000
    6  7 3pz        0.24297   0.00000      0.000   0.000   0.000
    6  8 3px        0.24559   0.00000     -0.000   0.000   0.000
    6  9 3Pdxy      0.18509   0.00000     -0.000  -0.000   0.000
    6 10 3Pdyz      0.14730   0.00000     -0.000   0.000  -0.000
    6 11 3Pdz2      0.01171   0.00000     -0.000  -0.000   0.000
    6 12 3Pdxz      0.03651   0.00000      0.000   0.000  -0.000
    6 13 3Pdx2-y2   0.18882   0.00000      0.000  -0.000  -0.000
    6     Total     3.87174   0.00000      0.000  -0.000  -0.000

    7  1 3s         0.62616   0.00000     -0.000   0.000   0.000
    7  2 3s         0.36991   0.00000      0.000  -0.000  -0.000
    7  3 3py        0.37236   0.00000     -0.000   0.000   0.000
    7  4 3pz        0.49259   0.00000     -0.000   0.000  -0.000
    7  5 3px        0.08015   0.00000     -0.000   0.000   0.000
    7  6 3py        0.30341   0.00000      0.000  -0.000   0.000
    7  7 3pz        0.20865   0.00000      0.000  -0.000  -0.000
    7  8 3px        0.42162   0.00000      0.000  -0.000   0.000
    7  9 3Pdxy      0.20443   0.00000      0.000  -0.000   0.000
    7 10 3Pdyz      0.14273   0.00000     -0.000   0.000  -0.000
    7 11 3Pdz2      0.01065   0.00000      0.000  -0.000  -0.000
    7 12 3Pdxz      0.15004   0.00000      0.000  -0.000   0.000
    7 13 3Pdx2-y2   0.24201   0.00000     -0.000   0.000   0.000
    7     Total     3.62473   0.00000     -0.000   0.000  -0.000

   12  1 3s         0.52677   0.00000     -0.000   0.000   0.000
   12  2 3s         0.40236   0.00000      0.000   0.000  -0.000
   12  3 3py        0.22969   0.00000      0.000  -0.000   0.000
   12  4 3pz        0.43825   0.00000      0.000  -0.000   0.000
   12  5 3px        0.29012   0.00000      0.000  -0.000   0.000
   12  6 3py        0.39458   0.00000     -0.000  -0.000   0.000
   12  7 3pz        0.17084   0.00000      0.000   0.000   0.000
   12  8 3px        0.34392   0.00000     -0.000   0.000   0.000
   12  9 3Pdxy      0.38724   0.00000     -0.000  -0.000   0.000
   12 10 3Pdyz      0.08018   0.00000     -0.000   0.000   0.000
   12 11 3Pdz2      0.01044   0.00000     -0.000  -0.000  -0.000
   12 12 3Pdxz      0.09250   0.00000      0.000  -0.000   0.000
   12 13 3Pdx2-y2   0.16490   0.00000      0.000  -0.000   0.000
   12     Total     3.53178   0.00000      0.000  -0.000   0.000

   15  1 3s         0.66087   0.00000     -0.000   0.000   0.000
   15  2 3s         0.36721   0.00000      0.000  -0.000   0.000
   15  3 3py       -0.03269   0.00000     -0.000   0.000   0.000
   15  4 3pz        0.51018   0.00000      0.000  -0.000   0.000
   15  5 3px        0.38862   0.00000      0.000   0.000   0.000
   15  6 3py        0.47458   0.00000      0.000  -0.000   0.000
   15  7 3pz        0.20043   0.00000      0.000   0.000   0.000
   15  8 3px        0.34014   0.00000     -0.000  -0.000   0.000
   15  9 3Pdxy      0.14151   0.00000      0.000  -0.000   0.000
   15 10 3Pdyz      0.12584   0.00000      0.000   0.000   0.000
   15 11 3Pdz2      0.01383   0.00000      0.000  -0.000   0.000
   15 12 3Pdxz      0.12447   0.00000      0.000   0.000   0.000
   15 13 3Pdx2-y2   0.30180   0.00000     -0.000  -0.000   0.000
   15     Total     3.61677   0.00000     -0.000   0.000   0.000

   17  1 3s         0.73212   0.00000     -0.000  -0.000   0.000
   17  2 3s         0.35610   0.00000      0.000   0.000   0.000
   17  3 3py        0.09629   0.00000      0.000   0.000   0.000
   17  4 3pz        0.62747   0.00000     -0.000  -0.000  -0.000
   17  5 3px        0.35559   0.00000     -0.000  -0.000   0.000
   17  6 3py        0.45277   0.00000     -0.000  -0.000   0.000
   17  7 3pz        0.15072   0.00000     -0.000  -0.000   0.000
   17  8 3px        0.33532   0.00000      0.000   0.000   0.000
   17  9 3Pdxy      0.15131   0.00000      0.000  -0.000   0.000
   17 10 3Pdyz      0.02343   0.00000      0.000   0.000  -0.000
   17 11 3Pdz2      0.00920   0.00000     -0.000  -0.000  -0.000
   17 12 3Pdxz      0.12868   0.00000     -0.000   0.000  -0.000
   17 13 3Pdx2-y2   0.12698   0.00000     -0.000  -0.000  -0.000
   17     Total     3.54600   0.00000      0.000  -0.000   0.000

   19  1 3s         0.86240   0.00000      0.000  -0.000   0.000
   19  2 3s         0.31305   0.00000     -0.000   0.000  -0.000
   19  3 3py        0.44667   0.00000     -0.000  -0.000   0.000
   19  4 3pz        0.66011   0.00000     -0.000   0.000   0.000
   19  5 3px        0.35313   0.00000     -0.000  -0.000   0.000
   19  6 3py        0.32180   0.00000      0.000   0.000  -0.000
   19  7 3pz        0.26789   0.00000      0.000  -0.000   0.000
   19  8 3px        0.35635   0.00000      0.000   0.000  -0.000
   19  9 3Pdxy      0.09359   0.00000     -0.000  -0.000   0.000
   19 10 3Pdyz      0.02945   0.00000     -0.000   0.000   0.000
   19 11 3Pdz2      0.01455   0.00000      0.000  -0.000   0.000
   19 12 3Pdxz      0.05653   0.00000      0.000  -0.000   0.000
   19 13 3Pdx2-y2   0.13124   0.00000     -0.000  -0.000   0.000
   19     Total     3.90676   0.00000     -0.000  -0.000   0.000

   20  1 3s         0.54046   0.00000      0.000   0.000   0.000
   20  2 3s         0.44403   0.00000     -0.000  -0.000   0.000
   20  3 3py        0.31075   0.00000      0.000   0.000   0.000
   20  4 3pz        0.25492   0.00000      0.000  -0.000   0.000
   20  5 3px        0.45525   0.00000     -0.000   0.000   0.000
   20  6 3py        0.38736   0.00000     -0.000  -0.000   0.000
   20  7 3pz        0.42302   0.00000     -0.000   0.000   0.000
   20  8 3px        0.27763   0.00000      0.000  -0.000   0.000
   20  9 3Pdxy      0.06995   0.00000     -0.000   0.000  -0.000
   20 10 3Pdyz      0.08428   0.00000     -0.000   0.000   0.000
   20 11 3Pdz2      0.05091   0.00000      0.000  -0.000  -0.000
   20 12 3Pdxz      0.07242   0.00000      0.000   0.000   0.000
   20 13 3Pdx2-y2   0.04586   0.00000      0.000  -0.000   0.000
   20     Total     3.41685   0.00000      0.000   0.000   0.000

   24  1 3s         0.60602   0.00000      0.000   0.000   0.000
   24  2 3s         0.36933   0.00000     -0.000  -0.000  -0.000
   24  3 3py        0.27077   0.00000     -0.000   0.000  -0.000
   24  4 3pz        0.41054   0.00000     -0.000   0.000   0.000
   24  5 3px        0.16839   0.00000      0.000   0.000   0.000
   24  6 3py        0.39804   0.00000      0.000  -0.000   0.000
   24  7 3pz        0.19300   0.00000     -0.000  -0.000   0.000
   24  8 3px        0.36005   0.00000     -0.000  -0.000  -0.000
   24  9 3Pdxy      0.14184   0.00000      0.000  -0.000   0.000
   24 10 3Pdyz      0.14013   0.00000      0.000  -0.000   0.000
   24 11 3Pdz2      0.01532   0.00000      0.000  -0.000   0.000
   24 12 3Pdxz      0.12090   0.00000      0.000   0.000   0.000
   24 13 3Pdx2-y2   0.34960   0.00000     -0.000   0.000  -0.000
   24     Total     3.54392   0.00000      0.000   0.000   0.000

   28  1 3s         0.43446   0.00000      0.000  -0.000   0.000
   28  2 3s         0.37741   0.00000     -0.000   0.000  -0.000
   28  3 3py        0.16178   0.00000     -0.000  -0.000  -0.000
   28  4 3pz        0.39998   0.00000      0.000   0.000   0.000
   28  5 3px        0.16710   0.00000     -0.000   0.000   0.000
   28  6 3py        0.36806   0.00000      0.000  -0.000   0.000
   28  7 3pz        0.20441   0.00000     -0.000   0.000   0.000
   28  8 3px        0.38557   0.00000      0.000  -0.000   0.000
   28  9 3Pdxy      0.14375   0.00000     -0.000  -0.000   0.000
   28 10 3Pdyz      0.12406   0.00000      0.000   0.000   0.000
   28 11 3Pdz2      0.01563   0.00000      0.000  -0.000   0.000
   28 12 3Pdxz      0.15663   0.00000      0.000  -0.000   0.000
   28 13 3Pdx2-y2   0.35181   0.00000     -0.000  -0.000   0.000
   28     Total     3.29063   0.00000     -0.000  -0.000   0.000

----------------------------------------------------------------
Total              85.08392   0.00000      0.000   0.000  -0.000


Species: O                   

Atom      Orb        Charge      Spin       Svec
----------------------------------------------------------------
   25  1 2s         1.73947   0.00000     -0.000   0.000   0.000
   25  2 2s         0.07110   0.00000      0.000  -0.000  -0.000
   25  3 2py        1.46327   0.00000     -0.000  -0.000  -0.000
   25  4 2pz        1.50795   0.00000      0.000  -0.000   0.000
   25  5 2px        1.58951   0.00000     -0.000  -0.000  -0.000
   25  6 2py        0.03574   0.00000      0.000   0.000   0.000
   25  7 2pz        0.00039   0.00000     -0.000   0.000   0.000
   25  8 2px        0.02347   0.00000      0.000  -0.000   0.000
   25  9 3Pdxy      0.00727   0.00000      0.000  -0.000   0.000
   25 10 3Pdyz      0.00625   0.00000      0.000   0.000  -0.000
   25 11 3Pdz2      0.00138   0.00000     -0.000  -0.000  -0.000
   25 12 3Pdxz      0.00444   0.00000      0.000  -0.000  -0.000
   25 13 3Pdx2-y2   0.00748   0.00000     -0.000  -0.000  -0.000
   25     Total     6.45770   0.00000     -0.000  -0.000   0.000

   29  1 2s         1.73394   0.00000     -0.000   0.000  -0.000
   29  2 2s         0.07490   0.00000      0.000  -0.000   0.000
   29  3 2py        1.48307   0.00000      0.000  -0.000  -0.000
   29  4 2pz        1.52856   0.00000     -0.000  -0.000   0.000
   29  5 2px        1.52528   0.00000      0.000   0.000  -0.000
   29  6 2py        0.04133   0.00000     -0.000  -0.000  -0.000
   29  7 2pz        0.00511   0.00000      0.000   0.000   0.000
   29  8 2px        0.03767   0.00000      0.000   0.000   0.000
   29  9 3Pdxy      0.00816   0.00000     -0.000   0.000  -0.000
   29 10 3Pdyz      0.00485   0.00000      0.000  -0.000   0.000
   29 11 3Pdz2      0.00138   0.00000      0.000   0.000   0.000
   29 12 3Pdxz      0.00628   0.00000     -0.000   0.000  -0.000
   29 13 3Pdx2-y2   0.00785   0.00000     -0.000   0.000   0.000
   29     Total     6.45838   0.00000     -0.000   0.000   0.000

----------------------------------------------------------------
Total              98.00000   0.00000     -0.000   0.000   0.000


siesta: Eigenvalues (eV):
ik =     1
  -22.9509  -22.9509  -22.5377  -22.5377  -21.9820  -21.9820  -21.2626  -21.2626  -21.1040  -21.1040
  -20.8525  -20.8525  -19.5136  -19.5136  -19.3237  -19.3237  -18.7198  -18.7198  -15.3101  -15.3101
  -14.3736  -14.3736  -13.7099  -13.7099  -13.6846  -13.6846  -13.3000  -13.3000  -12.9948  -12.9948
  -12.5897  -12.5896  -12.1094  -12.1094  -12.0294  -12.0294  -11.6315  -11.6315  -11.5024  -11.5024
  -11.0212  -11.0212  -10.7609  -10.7609  -10.2927  -10.2927   -9.8308   -9.8308   -9.5736   -9.5736
   -9.3289   -9.3289   -9.2184   -9.2184   -9.1825   -9.1825   -8.9208   -8.9208   -8.7221   -8.7221
   -8.3972   -8.3972   -8.2764   -8.2764   -8.2271   -8.2271   -8.1280   -8.1280   -8.0221   -8.0221
   -7.9032   -7.9032   -7.4299   -7.4299   -7.4240   -7.4240   -7.3135   -7.3135   -6.8453   -6.8453
   -6.8243   -6.8243   -6.6404   -6.6404   -6.4747   -6.4747   -6.3514   -6.3514   -6.2077   -6.2077
   -5.9422   -5.9422   -5.8381   -5.8381   -5.6407   -5.6407   -4.3187   -4.3187   -3.7238   -3.7238
   -2.8412   -2.8412   -2.4664   -2.4664   -2.3054   -2.3054   -2.1780   -2.1780   -2.1334   -2.1334
   -1.9615   -1.9615   -1.7494   -1.7494   -1.6707   -1.6707   -1.5914   -1.5914   -1.4465   -1.4465
   -1.0936   -1.0936   -0.7158   -0.7158   -0.3934   -0.3934   -0.3232   -0.3232   -0.2629   -0.2629
   -0.2037   -0.2037   -0.0678   -0.0678    0.2685    0.2685    0.4090    0.4090    0.4833    0.4833
    0.5277    0.5277    0.7276    0.7276    1.0643    1.0643    1.2216    1.2216    1.2601    1.2601
    1.3333    1.3333    1.5419    1.5419    1.8418    1.8418    2.0506    2.0506    2.1243    2.1243
    2.4805    2.4805    2.6183    2.6183    2.7894    2.7894    2.7977    2.7977    2.8488    2.8488
    2.9786    2.9786    3.0367    3.0367    3.0707    3.0707    3.1371    3.1371    3.5717    3.5717
    3.6824    3.6824    3.9169    3.9169    4.0961    4.0961    4.2393    4.2393    4.3920    4.3920
    4.5170    4.5170    4.6045    4.6045    4.6545    4.6545    4.6704    4.6704    4.9916    4.9916
    5.0397    5.0397    5.1892    5.1892    5.4149    5.4149    5.5850    5.5850    5.8025    5.8026
    5.8405    5.8405    6.0184    6.0184    6.0471    6.0471    6.2635    6.2635    6.3739    6.3739
    6.5315    6.5315    6.5977    6.5977    6.7917    6.7917    6.9849    6.9849    7.0490    7.0490
    7.1542    7.1542    7.4844    7.4844    7.7003    7.7003    7.7167    7.7167    7.8908    7.8908
    7.9156    7.9156    8.2649    8.2649    8.2768    8.2768    8.3371    8.3371    8.4984    8.4984
    8.5448    8.5448    8.8811    8.8811    8.8930    8.8930    9.3043    9.3043    9.5898    9.5898
    9.6804    9.6804    9.8189    9.8189    9.8838    9.8838    9.8928    9.8928    9.9677    9.9677
   10.0015   10.0015   10.3700   10.3700   10.6471   10.6471   10.8819   10.8819   11.1220   11.1220
   11.3102   11.3102   11.3654   11.3654   11.4952   11.4952   11.6868   11.6868   11.7951   11.7951
   11.8705   11.8705   12.3070   12.3070   12.3795   12.3795   12.6726   12.6726   12.7306   12.7306
   12.9284   12.9284   13.0144   13.0144   13.2393   13.2393   13.2547   13.2547   13.4432   13.4432
   13.6401   13.6401   13.8788   13.8788   14.3605   14.3605   14.5086   14.5086   14.7262   14.7262
   14.7813   14.7813   15.0684   15.0684   15.5555   15.5555   16.0862   16.0862   16.3093   16.3093
   16.3675   16.3675   16.7847   16.7847   16.8833   16.8833   17.2334   17.2334   17.2816   17.2816
   17.8673   17.8673   18.0426   18.0426   18.3617   18.3617   18.5517   18.5517   18.6861   18.6861
   18.7540   18.7540   19.7794   19.7794   19.9651   19.9651   20.2843   20.2843   20.5953   20.5953
   20.9139   20.9139   21.0295   21.0295   21.2559   21.2559   21.4105   21.4105   22.1981   22.1981
   22.4498   22.4498   22.8032   22.8032   22.9673   22.9673   23.0144   23.0144   23.0663   23.0663
   24.2295   24.2295   24.6229   24.6229   25.1066   25.1066   25.5713   25.5713   25.8856   25.8856
   26.1271   26.1271   26.5787   26.5787   27.0477   27.0477   27.9389   27.9389   28.1571   28.1571
   28.4589   28.4589   28.5237   28.5237   29.8510   29.8510   29.8833   29.8833   30.4993   30.4993
   30.7557   30.7557   30.8266   30.8266   31.2773   31.2773   31.4182   31.4182   31.6905   31.6905
   31.7491   31.7491   32.3553   32.3553   32.3669   32.3669   33.4563   33.4563   33.6110   33.6110
   34.0126   34.0126   34.2606   34.2606   34.5070   34.5070   34.8677   34.8677   35.4746   35.4746
   35.8953   35.8953   36.0732   36.0732   36.3925   36.3925   37.1594   37.1594   37.5847   37.5847
   37.6086   37.6086   37.6618   37.6618   38.4672   38.4672   38.8373   38.8373   38.9597   38.9597
   39.8963   39.8963   40.4267   40.4267   40.7001   40.7001   41.3603   41.3603   41.6201   41.6201
   41.7326   41.7326   41.8591   41.8591   42.0243   42.0243   42.9000   42.9000   43.2570   43.2570
   43.8503   43.8503   44.4652   44.4652   44.7231   44.7231   44.9051   44.9051   45.2149   45.2149
   45.2289   45.2290   45.8575   45.8575   46.4289   46.4289   46.5490   46.5490   47.1518   47.1518
   47.6282   47.6282   48.0113   48.0113   48.5606   48.5606   48.7983   48.7983   49.2058   49.2058
   49.8832   49.8832   50.2075   50.2075   50.4248   50.4248   50.5893   50.5893   50.6609   50.6609
   51.8519   51.8519   52.2630   52.2630   53.9682   53.9682   54.0528   54.0528   54.9227   54.9227
   55.0444   55.0444   55.5220   55.5220   56.3158   56.3158   56.3814   56.3814   56.5093   56.5093
   56.8572   56.8572   57.5341   57.5341   58.5488   58.5488   59.0235   59.0235   59.6478   59.6478
   60.2230   60.2230   61.1809   61.1809   61.5931   61.5931   62.1630   62.1630   62.8166   62.8166
   65.5935   65.5935   66.3486   66.3486   67.1005   67.1005   67.2464   67.2464   68.1242   68.1242
   68.8042   68.8042   71.3780   71.3780   73.6117   73.6117   78.6790   78.6790   91.3873   91.3873
   92.4594   92.4594   92.9078   92.9078   95.5535   95.5535   97.5732   97.5732  100.3999  100.3999
  100.6276  100.6276  102.9578  102.9578  113.3258  113.3258  120.3466  120.3466  123.0223  123.0223
  135.5872  135.5872  140.4045  140.4045
siesta: Fermi energy =      -4.021252 eV

siesta: Program's energy decomposition (eV):
siesta: Ebs     =     -1121.077310
siesta: Eions   =      3553.971015
siesta: Ena     =       377.805314
siesta: Ekin    =      2751.404420
siesta: Enl     =     -2532.186849
siesta: Eso     =        -0.004697
siesta: Edftu   =         0.000000
siesta: DEna    =        37.120217
siesta: DUscf   =        14.129814
siesta: DUext   =         0.000000
siesta: Exc     =     -1093.057650
siesta: eta*DQ  =         0.000000
siesta: Emadel  =         0.000000
siesta: Emeta   =         0.000000
siesta: Emolmec =         0.000000
siesta: Ekinion =         0.000000
siesta: Eharris =     -3998.760446
siesta: Etot    =     -3998.760446
siesta: FreeEng =     -3998.760459

siesta: Final energy (eV):
siesta:  Band Struct. =   -1121.077310
siesta:       Kinetic =    2751.404420
siesta:       Hartree =    6938.249090
siesta:       Edftu   =       0.000000
siesta:       Eso     =      -0.004697
siesta:    Ext. field =       0.000000
siesta:   Exch.-corr. =   -1093.057650
siesta:  Ion-electron =  -16330.383119
siesta:       Ion-ion =    3735.031510
siesta:       Ekinion =       0.000000
siesta:         Total =   -3998.760446
siesta:         Fermi =      -4.021252

siesta: Atomic forces (eV/Ang):
siesta:      1   -0.024570    0.021946    0.000002
siesta:      2   -0.006039   -0.037251   -0.000002
siesta:      3   -0.003582    0.039882    0.000004
siesta:      4   -0.044557   -0.048443    0.000001
siesta:      5    0.015826   -0.034736   -0.000003
siesta:      6    0.020984    0.004692   -0.000000
siesta:      7   -0.050434    0.101481    0.000003
siesta:      8    0.046645   -0.036275   -0.000012
siesta:      9    0.096391   -0.081510    0.000016
siesta:     10    0.140618    0.121880    0.000003
siesta:     11   -0.041335   -0.043045   -0.000004
siesta:     12    0.033819    0.058084    0.000001
siesta:     13   -0.089756   -0.207175   -0.000000
siesta:     14   -0.021233   -0.088782    0.000000
siesta:     15    0.000458    0.065676   -0.000000
siesta:     16   -0.001536    0.095197    0.008000
siesta:     17   -0.012110   -0.043390   -0.039744
siesta:     18   -0.025539    0.172617    0.008230
siesta:     19    0.007966    0.031703   -0.041273
siesta:     20    0.042295   -0.056057    0.025777
siesta:     21   -0.065305    0.201894    0.068678
siesta:     22    0.014158   -0.003545    0.026579
siesta:     23   -0.053281    0.017280   -0.048954
siesta:     24    0.031189   -0.110753   -0.026617
siesta:     25   -0.776643   -1.643434    0.002993
siesta:     26   -0.026506    0.053879    0.006530
siesta:     27   -0.036353   -0.038706    0.002782
siesta:     28   -0.000475   -0.105129   -0.000870
siesta:     29    0.738689    0.252822   -0.001111
siesta:     30   -0.003320    0.346779    0.008280
siesta: ----------------------------------------
siesta:    Tot   -0.093535   -0.992421   -0.000714

siesta: Stress tensor (static) (eV/Ang**3):
siesta:    -0.000965    0.000171    0.000028
siesta:     0.000171   -0.000272   -0.000026
siesta:     0.000028   -0.000026   -0.000129

siesta: Cell volume =       4715.383252 Ang**3

siesta: Pressure (static):
siesta:                Solid            Molecule  Units
siesta:           0.00000496          0.00000176  Ry/Bohr**3
siesta:           0.00045529          0.00016197  eV/Ang**3
siesta:           0.72946251          0.25950214  kBar
(Free)E+ p_basis*V_orbitals  =       -3977.632374
(Free)Eharris+ p_basis*V_orbitals  =       -3977.632374
     spin moment: S , {S} =    0.00000  -0.00000   0.00000   0.00000

siesta: Electric dipole (a.u.)  =   -0.323611    2.526378   -0.012845
siesta: Electric dipole (Debye) =   -0.822537    6.421418   -0.032648

cite: Please see "AT.bib" for an exhaustive BiBTeX file.
cite: Please clearly indicate Siesta version in published work: v4.1.5-1-g384057250
cite: This calculation has made use of the following articles
cite: which are encouraged to be cited in a published work.
        Primary SIESTA paper
          DOI: www.doi.org/10.1088/0953-8984/14/11/302
        Spin-orbit coupling (on-site approximation)
          DOI: www.doi.org/10.1088/0953-8984/19/19/489001


WARNING: alloc-realloc-dealloc name mismatch
         Name: atomlist isa
         Size:              -120. Bytes
         Node:     0
         Subsequent mismatches will not be reported
>> End of run:  22-MAY-2023  10:47:10
Job completed
