<?xml version="1.0" encoding="UTF-8" ?>
<psml version="1.1" energy_unit="hartree" length_unit="bohr"
 uuid="54a65520-111f-11ef-79c7-0facdefaeea7"
 xmlns="http://esl.cecam.org/PSML/ns/1.1">
<provenance creator="ATM4.2.7" date="13-MAY-24">
<annotation action="semilocal-pseudopotential-generation" />
<input-file name="INP">
<![CDATA[   pg Hydrogen
        tm2      4.0
   H    vlr
      0.00
    0    4
    1    0      0.50      0.50
    2    1      0.00      0.00
    3    2      0.00      0.00
    4    3      0.00      0.00
      0.01      0.00      0.01      0.01      0.00      0.00
]]>
</input-file>
</provenance>
<pseudo-atom-spec atomic-label="H" atomic-number="1" z-pseudo="1"
 flavor="Troullier-Martins" relativity="dirac" spin-dft="no"
 core-corrections="no">
<annotation pseudo-energy="-0.487570099639" />
<exchange-correlation>
<annotation atom-xc-code="vl" siesta-xc-type="VDW" siesta-xc-authors="LMKLL" />
<libxc-info number-of-functionals="2">
<functional name="XC_GGA_X_OPTB88_VDW" type="XC_EXCHANGE" id="139" />
<functional name="XC_NOT_IMPL" type="XC_EXCHANGE_CORRELATION" id="-1" />
</libxc-info>
</exchange-correlation>
<valence-configuration total-valence-charge="1">
<shell n="1" l="s" occupation="1" />
</valence-configuration>
</pseudo-atom-spec>
<grid npts="376">
<annotation type="sampled-log-atom"
 recipe="r(i:1..N) = a*(exp(b*(i-1))-1); resampled"
 recipe-cont="a: scale; b: step" scale="0.247875217667E-02"
 step="0.125000000000E-01" delta="0.500000000000E-02" rmax="20" />
<grid-data>
  0.000000000000E+00  5.061497378559E-03  1.010939006577E-02  1.516276895795E-02
  2.017340934922E-02  2.518866038934E-02  3.047994836604E-02  3.581379470968E-02
  4.091238809158E-02  4.607906909334E-02  5.118593973606E-02  5.682990465277E-02
  6.225322253433E-02  6.729481741978E-02  7.272907264199E-02  7.858657021787E-02
  8.381483432270E-02  8.938029249206E-02  9.530469187468E-02  1.003181562586E-01
  1.055886664582E-01  1.111294014941E-01  1.169542160901E-01  1.230776753165E-01
  1.295150910112E-01  1.345588393619E-01  1.397953194098E-01  1.452318958181E-01
  1.508762146683E-01  1.567362142138E-01  1.628201360449E-01  1.691365366793E-01
  1.756942995962E-01  1.825026477306E-01  1.895711564441E-01  1.969097669919E-01
  2.019573113858E-01  2.071326349744E-01  2.124389725035E-01  2.178796406066E-01
  2.234580398784E-01  2.291776570002E-01  2.350420669188E-01  2.410549350813E-01
  2.472200197259E-01  2.535411742315E-01  2.600223495251E-01  2.666675965525E-01
  2.734810688093E-01  2.804670249375E-01  2.876298313870E-01  2.949739651451E-01
  3.025040165344E-01  3.102246920822E-01  3.181408174620E-01  3.262573405099E-01
  3.345793343170E-01  3.431120004003E-01  3.518606719539E-01  3.608308171823E-01
  3.700280427183E-01  3.794580971273E-01  3.891268745001E-01  3.990404181375E-01
  4.040909075639E-01  4.092049243269E-01  4.143832675018E-01  4.196267462155E-01
  4.249361797721E-01  4.303123977813E-01  4.357562402883E-01  4.412685579044E-01
  4.468502119406E-01  4.525020745415E-01  4.582250288223E-01  4.640199690062E-01
  4.698878005643E-01  4.758294403574E-01  4.818458167787E-01  4.879378698992E-01
  4.941065516147E-01  5.003528257943E-01  5.066776684309E-01  5.130820677941E-01
  5.195670245844E-01  5.261335520893E-01  5.327826763423E-01  5.395154362825E-01
  5.463328839174E-01  5.532360844869E-01  5.602261166303E-01  5.673040725543E-01
  5.744710582038E-01  5.817281934351E-01  5.890766121901E-01  5.965174626744E-01
  6.040519075360E-01  6.116811240471E-01  6.194063042884E-01  6.272286553349E-01
  6.351493994451E-01  6.431697742512E-01  6.512910329532E-01  6.595144445142E-01
  6.678412938590E-01  6.762728820747E-01  6.848105266143E-01  6.934555615020E-01
  7.022093375420E-01  7.110732225298E-01  7.200486014654E-01  7.291368767700E-01
  7.383394685051E-01  7.476578145943E-01  7.570933710483E-01  7.666476121919E-01
  7.763220308947E-01  7.861181388044E-01  7.960374665827E-01  8.060815641448E-01
  8.162520009013E-01  8.265503660037E-01  8.369782685925E-01  8.475373380487E-01
  8.582292242484E-01  8.690555978205E-01  8.800181504079E-01  8.911185949318E-01
  9.023586658593E-01  9.137401194742E-01  9.252647341519E-01  9.369343106368E-01
  9.487506723240E-01  9.607156655442E-01  9.728311598517E-01  9.850990483172E-01
  9.975212478233E-01  1.010099699364E+00  1.022836368348E+00  1.035733244905E+00
  1.048792344199E+00  1.062015706741E+00  1.075405398708E+00  1.088963512266E+00
  1.102692165899E+00  1.116593504736E+00  1.130669700890E+00  1.144922953795E+00
  1.159355490552E+00  1.173969566272E+00  1.188767464436E+00  1.203751497244E+00
  1.218924005984E+00  1.234287361389E+00  1.249843964015E+00  1.265596244614E+00
  1.281546664511E+00  1.297697715992E+00  1.314051922691E+00  1.330611839987E+00
  1.347380055399E+00  1.364359188997E+00  1.381551893804E+00  1.398960856215E+00
  1.416588796417E+00  1.434438468809E+00  1.452512662442E+00  1.470814201442E+00
  1.489345945465E+00  1.508110790131E+00  1.527111667487E+00  1.546351546457E+00
  1.565833433314E+00  1.585560372139E+00  1.605535445309E+00  1.625761773969E+00
  1.646242518523E+00  1.666980879131E+00  1.687980096202E+00  1.709243450908E+00
  1.730774265691E+00  1.752575904784E+00  1.774651774737E+00  1.797005324952E+00
  1.819640048214E+00  1.842559481246E+00  1.865767205256E+00  1.889266846497E+00
  1.913062076837E+00  1.937156614329E+00  1.961554223793E+00  1.986258717406E+00
  2.011273955294E+00  2.036603846140E+00  2.062252347790E+00  2.088223467875E+00
  2.114521264436E+00  2.141149846556E+00  2.168113375007E+00  2.195416062893E+00
  2.223062176316E+00  2.251056035037E+00  2.279402013153E+00  2.308104539781E+00
  2.337168099749E+00  2.366597234298E+00  2.396396541790E+00  2.426570678428E+00
  2.457124358980E+00  2.488062357523E+00  2.519389508181E+00  2.551110705886E+00
  2.583230907139E+00  2.615755130787E+00  2.648688458806E+00  2.682036037095E+00
  2.715803076282E+00  2.749994852535E+00  2.784616708389E+00  2.819674053579E+00
  2.855172365886E+00  2.891117191995E+00  2.927514148357E+00  2.964368922071E+00
  3.001687271770E+00  3.039475028522E+00  3.077738096741E+00  3.116482455110E+00
  3.155714157513E+00  3.195439333984E+00  3.235664191661E+00  3.276395015762E+00
  3.317638170560E+00  3.359400100382E+00  3.401687330614E+00  3.444506468723E+00
  3.487864205285E+00  3.531767315036E+00  3.576222657925E+00  3.621237180190E+00
  3.666817915443E+00  3.712971985764E+00  3.759706602823E+00  3.807029068998E+00
  3.854946778520E+00  3.903467218630E+00  3.952597970744E+00  4.002346711643E+00
  4.052721214668E+00  4.103729350939E+00  4.155379090579E+00  4.207678503967E+00
  4.260635762992E+00  4.314259142333E+00  4.368557020753E+00  4.423537882405E+00
  4.479210318161E+00  4.535583026953E+00  4.592664817130E+00  4.650464607839E+00
  4.708991430414E+00  4.768254429791E+00  4.828262865934E+00  4.889026115282E+00
  4.950553672218E+00  5.012855150548E+00  5.075940285003E+00  5.139818932766E+00
  5.204501075003E+00  5.269996818432E+00  5.336316396897E+00  5.403470172965E+00
  5.471468639551E+00  5.540322421553E+00  5.610042277516E+00  5.680639101309E+00
  5.752123923829E+00  5.824507914725E+00  5.897802384142E+00  5.972018784492E+00
  6.047168712236E+00  6.123263909705E+00  6.200316266928E+00  6.278337823493E+00
  6.357340770425E+00  6.437337452097E+00  6.518340368153E+00  6.600362175464E+00
  6.683415690103E+00  6.767513889351E+00  6.852669913723E+00  6.938897069020E+00
  7.026208828413E+00  7.114618834539E+00  7.204140901644E+00  7.294789017731E+00
  7.386577346754E+00  7.479520230825E+00  7.573632192460E+00  7.668927936844E+00
  7.765422354130E+00  7.863130521768E+00  7.962067706858E+00  8.062249368536E+00
  8.163691160391E+00  8.266408932909E+00  8.370418735951E+00  8.475736821260E+00
  8.582379645001E+00  8.690363870333E+00  8.799706370011E+00  8.910424229022E+00
  9.022534747257E+00  9.136055442214E+00  9.251004051730E+00  9.367398536761E+00
  9.485257084182E+00  9.604598109630E+00  9.725440260383E+00  9.847802418274E+00
  9.971703702638E+00  1.009716347330E+01  1.022420133361E+01  1.035283713350E+01
  1.048309097255E+01  1.061498320321E+01  1.074853443390E+01  1.088376553227E+01
  1.102069762846E+01  1.115935211839E+01  1.129975066710E+01  1.144191521215E+01
  1.158586796705E+01  1.173163142469E+01  1.187922836092E+01  1.202868183806E+01
  1.218001520853E+01  1.233325211846E+01  1.248841651143E+01  1.264553263220E+01
  1.280462503049E+01  1.296571856479E+01  1.312883840631E+01  1.329401004286E+01
  1.346125928283E+01  1.363061225925E+01  1.380209543389E+01  1.397573560133E+01
  1.415155989320E+01  1.432959578240E+01  1.450987108741E+01  1.469241397661E+01
  1.487725297270E+01  1.506441695714E+01  1.525393517468E+01  1.544583723795E+01
  1.564015313201E+01  1.583691321913E+01  1.603614824348E+01  1.623788933592E+01
  1.644216801892E+01  1.664901621143E+01  1.685846623391E+01  1.707055081335E+01
  1.728530308839E+01  1.750275661452E+01  1.772294536928E+01  1.794590375763E+01
  1.817166661727E+01  1.840026922409E+01  1.863174729772E+01  1.886613700709E+01
  1.910347497606E+01  1.934379828916E+01  1.958714449742E+01  1.983355162416E+01
</grid-data>
</grid>
<valence-charge total-charge="1" is-unscreening-charge="yes"
 rescaled-to-z-pseudo="no">
<radfunc>
<data>
  4.115932766143E+00  4.065130704415E+00  4.020266381669E+00  3.976771570797E+00
  3.934137945428E+00  3.891928969727E+00  3.847886590040E+00  3.803990154350E+00
  3.762492895879E+00  3.720897808216E+00  3.680230780528E+00  3.635797666828E+00
  3.593601633741E+00  3.554810492483E+00  3.513462581231E+00  3.469428256935E+00
  3.430587168042E+00  3.389715684516E+00  3.346740257245E+00  3.310796758728E+00
  3.273425117575E+00  3.234591013373E+00  3.194261735741E+00  3.152406512766E+00
  3.108996866580E+00  3.075403908912E+00  3.040912247381E+00  3.005513196951E+00
  2.969199260201E+00  2.931964239178E+00  2.893803350988E+00  2.854713351259E+00
  2.814692660202E+00  2.773741491900E+00  2.731861986750E+00  2.689058346486E+00
  2.660012243787E+00  2.630560678234E+00  2.600706597054E+00  2.570453445421E+00
  2.539805184567E+00  2.508766309731E+00  2.477341867872E+00  2.445537475069E+00
  2.413359333520E+00  2.380814248058E+00  2.347909642087E+00  2.314653572831E+00
  2.281054745801E+00  2.247122528366E+00  2.212866962308E+00  2.178298775246E+00
  2.143429390800E+00  2.108270937381E+00  2.072836255447E+00  2.037138903124E+00
  2.001193160026E+00  1.965014029168E+00  1.928617236742E+00  1.892019227582E+00
  1.855237159284E+00  1.818288901253E+00  1.781193026696E+00  1.743968801916E+00
  1.725314765142E+00  1.706636172711E+00  1.687935621310E+00  1.669215747864E+00
  1.650479228851E+00  1.631728779563E+00  1.612967153322E+00  1.594197140639E+00
  1.575421568316E+00  1.556643298505E+00  1.537865227700E+00  1.519090285685E+00
  1.500321434417E+00  1.481561666862E+00  1.462814005766E+00  1.444081502375E+00
  1.425367235100E+00  1.406674308118E+00  1.388005849928E+00  1.369365011842E+00
  1.350754966422E+00  1.332178905865E+00  1.313640040336E+00  1.295141596240E+00
  1.276686814446E+00  1.258278948460E+00  1.239921262552E+00  1.221617029491E+00
  1.203369527822E+00  1.185182040770E+00  1.167057855582E+00  1.149000261125E+00
  1.131012545946E+00  1.113097996475E+00  1.095259894813E+00  1.077501516689E+00
  1.059826129290E+00  1.042236989063E+00  1.024737339465E+00  1.007330408678E+00
  9.900194072777E-01  9.728075258702E-01  9.556979326873E-01  9.386937711542E-01
  9.217981574501E-01  9.050141775875E-01  8.883448847861E-01  8.717932988321E-01
  8.553624022574E-01  8.390551373876E-01  8.228744046402E-01  8.068230593795E-01
  7.909039096951E-01  7.751197138155E-01  7.594731774127E-01  7.439669503191E-01
  7.286036248267E-01  7.133857360838E-01  6.983157597166E-01  6.833961094776E-01
  6.686291358686E-01  6.540171237728E-01  6.395622906108E-01  6.252667842861E-01
  6.111326812044E-01  5.971619842942E-01  5.833566210533E-01  5.697184416348E-01
  5.562492169276E-01  5.429506366863E-01  5.298243079318E-01  5.168717532536E-01
  5.040944091055E-01  4.914936244099E-01  4.790706590712E-01  4.668266827082E-01
  4.547627733458E-01  4.428799157110E-01  4.311790007499E-01  4.196608280682E-01
  4.083261055730E-01  3.971754485756E-01  3.862093802041E-01  3.754283307144E-01
  3.648326373503E-01  3.544225440310E-01  3.441982010657E-01  3.341596650138E-01
  3.243068988938E-01  3.146397720628E-01  3.051580602847E-01  2.958614461457E-01
  2.867495193403E-01  2.778217772668E-01  2.690776256841E-01  2.605163795585E-01
  2.521372638766E-01  2.439394145950E-01  2.359218813643E-01  2.280836308367E-01
  2.204235479089E-01  2.129404372944E-01  2.056330254254E-01  1.984999618767E-01
  1.915398210740E-01  1.847511039123E-01  1.781322394895E-01  1.716815868954E-01
  1.653974370945E-01  1.592780149067E-01  1.533214810885E-01  1.475259345203E-01
  1.418894144908E-01  1.364099030686E-01  1.310853276030E-01  1.259135633202E-01
  1.208924359928E-01  1.160197252674E-01  1.112931681688E-01  1.067104616620E-01
  1.022692652959E-01  9.796720393325E-02  9.380187025143E-02  8.977082735591E-02
  8.587161133925E-02  8.210173385676E-02  7.845868473919E-02  7.493993461573E-02
  7.154293753897E-02  6.826513362473E-02  6.510395169904E-02  6.205681192132E-02
  5.912112842579E-02  5.629431192944E-02  5.357377229006E-02  5.095692104916E-02
  4.844117395060E-02  4.602395338572E-02  4.370269077264E-02  4.147482894143E-02
  3.933782442217E-02  3.728914961261E-02  3.532629489755E-02  3.344677068318E-02
  3.164810935576E-02  2.992786717671E-02  2.828362612135E-02  2.671299561112E-02
  2.521361422561E-02  2.378315132389E-02  2.241930854691E-02  2.111982128936E-02
  1.988246008942E-02  1.870503192946E-02  1.758538147201E-02  1.652139218937E-02
  1.551098742120E-02  1.455213137145E-02  1.364282999622E-02  1.278113182307E-02
  1.196512867009E-02  1.119295629284E-02  1.046279497228E-02  9.772869986448E-03
  9.121452007506E-03  8.506857402749E-03  7.927448597676E-03  7.381634139495E-03
  6.867868812199E-03  6.384653905188E-03  5.930537130825E-03  5.504112428388E-03
  5.104019747359E-03  4.728944809726E-03  4.377618744317E-03  4.048817700149E-03
  3.741362405032E-03  3.454117632687E-03  3.185991510104E-03  2.935935270302E-03
  2.702942130157E-03  2.486046699591E-03  2.284324977444E-03  2.096893152316E-03
  1.922906392188E-03  1.761557803416E-03  1.612077606465E-03  1.473732157082E-03
  1.345822784735E-03  1.227685197506E-03  1.118688566338E-03  1.018234088667E-03
  9.257538634257E-04  8.407098087565E-04  7.625926468525E-04  6.909209366279E-04
  6.252400034559E-04  5.651208012557E-04  5.101589800098E-04  4.599738693310E-04
  4.142074287100E-04  3.725232796357E-04  3.346058939707E-04  3.001596721452E-04
  2.689079222700E-04  2.405920014845E-04  2.149705812862E-04  1.918187906792E-04
  1.709272814783E-04  1.521015156015E-04  1.351610316818E-04  1.199386143774E-04
  1.062795646562E-04  9.404102837254E-05  8.309127297169E-05  7.330900419611E-05
  6.458274300980E-05  5.681018655223E-05  4.989760193950E-05  4.375926066702E-05
  3.831687813495E-05  3.349908859464E-05  2.924094511006E-05  2.548343860481E-05
  2.217304772862E-05  1.926131465829E-05  1.670444320288E-05  1.446291735911E-05
  1.250114377980E-05  1.078712013947E-05  9.292125602956E-06  7.990430833449E-06
  6.859028032218E-06  5.877380342299E-06  5.027189949410E-06  4.292184398279E-06
  3.657919848772E-06  3.111600003911E-06  2.641909887499E-06  2.238863683598E-06
  1.893665779105E-06  1.598584149870E-06  1.346835253874E-06  1.132479622120E-06
  9.503273677444E-07  7.958528658492E-07  6.651178901063E-07  5.547025269035E-07
  4.616432233986E-07  3.833773616164E-07  3.176937870588E-07  2.626887552228E-07
  2.167267965073E-07  1.784060308723E-07  1.465275035199E-07  1.200681344494E-07
  9.815692869883E-08  8.005406522998E-08  6.513266217188E-08  5.286270991665E-08
  4.279728655365E-08  3.456026965275E-08  2.783643407171E-08  2.236027745050E-08
  1.791409580046E-08  1.431008936645E-08  1.139914085581E-08  9.056759803288E-09
  7.177176547822E-09  5.672837858185E-09  4.471969250430E-09  3.515883682423E-09
  2.756720999243E-09  2.155554192270E-09  1.680807186001E-09  1.306936479699E-09
  1.013335650939E-09  7.834275721029E-10  6.039142881400E-10  4.641589366065E-10
  3.556779339917E-10  2.717249738443E-10  2.069512441169E-10  1.571287292992E-10
  1.189255675824E-10  8.972422956242E-11  6.747481307275E-11  5.057704443549E-11
  3.778567143792E-11  2.813485567773E-11  2.087794617883E-11  1.543966391912E-11
  1.137826693617E-11  8.355714328645E-12  6.114218897115E-12  4.457884563711E-12
  3.238376551275E-12  2.343778547500E-12  1.689959361435E-12  1.213908374239E-12
  8.686098658051E-13  6.191156691266E-13  4.395474246089E-13  3.108171982840E-13
  2.189010680448E-13  1.535366861847E-13  1.072446203437E-13  7.459595639682E-14
  5.166643963542E-14  3.563133011169E-14  2.446596026281E-14  1.672535765080E-14
</data>
</radfunc>
</valence-charge>
<semilocal-potentials set="scalar_relativistic">
<slps n="1" l="s" rc="0.995301765142E-02" flavor="Troullier-Martins">
<radfunc>
<data>
 -8.839538083315E+02 -2.409311985680E+02 -9.891722537786E+01 -6.595100946047E+01
 -4.957019927664E+01 -3.970040126136E+01 -3.280845216815E+01 -2.792219979492E+01
 -2.444247282698E+01 -2.170182594077E+01 -1.953661385669E+01 -1.759636846520E+01
 -1.606342456985E+01 -1.485998453855E+01 -1.374965900177E+01 -1.272481987065E+01
 -1.193106160662E+01 -1.118814814215E+01 -1.049266237796E+01 -9.968284838137E+00
 -9.470713009914E+00 -8.998518346483E+00 -8.550354083932E+00 -8.124950016724E+00
 -7.721107657769E+00 -7.431692829430E+00 -7.153315049644E+00 -6.885539551159E+00
 -6.627949708979E+00 -6.380146212861E+00 -6.141746274712E+00 -5.912382883591E+00
 -5.691704097316E+00 -5.479372369345E+00 -5.275063909901E+00 -5.078468079022E+00
 -4.951541291156E+00 -4.827824291235E+00 -4.707234059316E+00 -4.589689813911E+00
 -4.475112947155E+00 -4.363426962082E+00 -4.254557411902E+00 -4.148431841228E+00
 -4.044979729171E+00 -3.944132434237E+00 -3.845823140952E+00 -3.749986808181E+00
 -3.656560119038E+00 -3.565481432366E+00 -3.476690735716E+00 -3.390129599772E+00
 -3.305741134179E+00 -3.223469944713E+00 -3.143262091759E+00 -3.065065050044E+00
 -2.988827669591E+00 -2.914500137856E+00 -2.842033942521E+00 -2.771381837572E+00
 -2.702497806173E+00 -2.635337028698E+00 -2.569855849829E+00 -2.506011746920E+00
 -2.474690612766E+00 -2.443763299299E+00 -2.413224796228E+00 -2.383070158460E+00
 -2.353294505211E+00 -2.323893019138E+00 -2.294860945479E+00 -2.266193591206E+00
 -2.237886324193E+00 -2.209934572392E+00 -2.182333823025E+00 -2.155079621781E+00
 -2.128167572036E+00 -2.101593334071E+00 -2.075352624312E+00 -2.049441214573E+00
 -2.023854931315E+00 -1.998589654916E+00 -1.973641318942E+00 -1.949005909446E+00
 -1.924679464258E+00 -1.900658072298E+00 -1.876937872892E+00 -1.853515055104E+00
 -1.830385857060E+00 -1.807546565352E+00 -1.784993514193E+00 -1.762723085168E+00
 -1.740731706344E+00 -1.719015851488E+00 -1.697572039805E+00 -1.676396835154E+00
 -1.655486845500E+00 -1.634838722325E+00 -1.614449160050E+00 -1.594314895469E+00
 -1.574432707191E+00 -1.554799415090E+00 -1.535411879756E+00 -1.516267001964E+00
 -1.497361722143E+00 -1.478693019854E+00 -1.460257913277E+00 -1.442053458703E+00
 -1.424076750046E+00 -1.406324918312E+00 -1.388795131149E+00 -1.371484592370E+00
 -1.354390541452E+00 -1.337510253089E+00 -1.320841036726E+00 -1.304380236100E+00
 -1.288125228810E+00 -1.272073425832E+00 -1.256222271154E+00 -1.240569241303E+00
 -1.225111844888E+00 -1.209847622239E+00 -1.194774144969E+00 -1.179889015574E+00
 -1.165189867030E+00 -1.150674362392E+00 -1.136340194410E+00 -1.122185085141E+00
 -1.108206785569E+00 -1.094403075228E+00 -1.080771761837E+00 -1.067310680924E+00
 -1.054017695484E+00 -1.040890695609E+00 -1.027927598141E+00 -1.015126346326E+00
 -1.002484909478E+00 -9.900012826332E-01 -9.776734862283E-01 -9.654995657626E-01
 -9.534775914843E-01 -9.416056580678E-01 -9.298818842934E-01 -9.183044127429E-01
 -9.068714094924E-01 -8.955810638099E-01 -8.844315878564E-01 -8.734212163920E-01
 -8.625482064851E-01 -8.518108372265E-01 -8.412074094452E-01 -8.307362454305E-01
 -8.203956886571E-01 -8.101841035123E-01 -8.000998750281E-01 -7.901414086170E-01
 -7.803071298107E-01 -7.705954840023E-01 -7.610049361924E-01 -7.515339707375E-01
 -7.421810911038E-01 -7.329448196214E-01 -7.238236972431E-01 -7.148162833076E-01
 -7.059211553038E-01 -6.971369086392E-01 -6.884621564115E-01 -6.798955291821E-01
 -6.714356747542E-01 -6.630812579520E-01 -6.548309604047E-01 -6.466834803312E-01
 -6.386375323296E-01 -6.306918471684E-01 -6.228451715800E-01 -6.150962680585E-01
 -6.074439146581E-01 -5.998869047960E-01 -5.924240470562E-01 -5.850541649976E-01
 -5.777760969627E-01 -5.705886958903E-01 -5.634908291300E-01 -5.564813782590E-01
 -5.495592389017E-01 -5.427233205511E-01 -5.359725463932E-01 -5.293058531326E-01
 -5.227221908219E-01 -5.162205226917E-01 -5.097998249841E-01 -5.034590867872E-01
 -4.971973098730E-01 -4.910135085360E-01 -4.849067094353E-01 -4.788759514376E-01
 -4.729202854627E-01 -4.670387743310E-01 -4.612304926131E-01 -4.554945264809E-01
 -4.498299735610E-01 -4.442359427897E-01 -4.387115542705E-01 -4.332559391321E-01
 -4.278682393899E-01 -4.225476078082E-01 -4.172932077641E-01 -4.121042131139E-01
 -4.069798080607E-01 -4.019191870234E-01 -3.969215545083E-01 -3.919861249816E-01
 -3.871121227436E-01 -3.822987818048E-01 -3.775453457635E-01 -3.728510676846E-01
 -3.682152099808E-01 -3.636370442940E-01 -3.591158513799E-01 -3.546509209923E-01
 -3.502415517703E-01 -3.458870511264E-01 -3.415867351354E-01 -3.373399284261E-01
 -3.331459640732E-01 -3.290041834909E-01 -3.249139363283E-01 -3.208745803655E-01
 -3.168854814113E-01 -3.129460132023E-01 -3.090555573032E-01 -3.052135030084E-01
 -3.014192472446E-01 -2.976721944749E-01 -2.939717566045E-01 -2.903173528865E-01
 -2.867084098299E-01 -2.831443611086E-01 -2.796246474710E-01 -2.761487166514E-01
 -2.727160232824E-01 -2.693260288077E-01 -2.659782013972E-01 -2.626720158623E-01
 -2.594069535725E-01 -2.561825023731E-01 -2.529981565041E-01 -2.498534165196E-01
 -2.467477892091E-01 -2.436807875186E-01 -2.406519304742E-01 -2.376607431050E-01
 -2.347067563686E-01 -2.317895070761E-01 -2.289085378191E-01 -2.260633968972E-01
 -2.232536382463E-01 -2.204788213682E-01 -2.177385112604E-01 -2.150322783479E-01
 -2.123596984147E-01 -2.097203525366E-01 -2.071138270154E-01 -2.045397133131E-01
 -2.019976079871E-01 -1.994871126270E-01 -1.970078337908E-01 -1.945593829435E-01
 -1.921413763949E-01 -1.897534352397E-01 -1.873951852970E-01 -1.850662570515E-01
 -1.827662855950E-01 -1.804949105687E-01 -1.782517761065E-01 -1.760365307786E-01
 -1.738488275361E-01 -1.716883236560E-01 -1.695546806873E-01 -1.674475643976E-01
 -1.653666447203E-01 -1.633115957023E-01 -1.612820954528E-01 -1.592778260925E-01
 -1.572984737034E-01 -1.553437282792E-01 -1.534132836766E-01 -1.515068375668E-01
 -1.496240913880E-01 -1.477647502983E-01 -1.459285231290E-01 -1.441151223391E-01
 -1.423242639695E-01 -1.405556675988E-01 -1.388090562987E-01 -1.370841565903E-01
 -1.353806984015E-01 -1.336984150238E-01 -1.320370430710E-01 -1.303963224372E-01
 -1.287759962558E-01 -1.271758108595E-01 -1.255955157400E-01 -1.240348635088E-01
 -1.224936098577E-01 -1.209715135213E-01 -1.194683362381E-01 -1.179838427134E-01
 -1.165178005826E-01 -1.150699803737E-01 -1.136401554725E-01 -1.122281020855E-01
 -1.108335992060E-01 -1.094564285785E-01 -1.080963746646E-01 -1.067532246093E-01
 -1.054267682072E-01 -1.041167978697E-01 -1.028231085922E-01 -1.015454979219E-01
 -1.002837659261E-01 -9.903771516070E-02 -9.780715063897E-02 -9.659187980120E-02
 -9.539171248427E-02 -9.420646089178E-02 -9.303593956457E-02 -9.187996535158E-02
 -9.073835738104E-02 -8.961093703207E-02 -8.849752790664E-02 -8.739795580182E-02
 -8.631204868243E-02 -8.523963665406E-02 -8.418055193631E-02 -8.313462883651E-02
 -8.210170372365E-02 -8.108161500271E-02 -8.007420308930E-02 -7.907931038456E-02
 -7.809678125046E-02 -7.712646198533E-02 -7.616820079978E-02 -7.522184779282E-02
 -7.428725492836E-02 -7.336427601197E-02 -7.245276666792E-02 -7.155258431656E-02
 -7.066358815190E-02 -6.978563911956E-02 -6.891859989489E-02 -6.806233486150E-02
 -6.721671008991E-02 -6.638159331658E-02 -6.555685392316E-02 -6.474236291597E-02
 -6.393799290579E-02 -6.314361808788E-02 -6.235911422225E-02 -6.158435861413E-02
 -6.081923009480E-02 -6.006360900251E-02 -5.931737716379E-02 -5.858041787486E-02
 -5.785261588335E-02 -5.713385737025E-02 -5.642402993201E-02 -5.572302256300E-02
 -5.503072563800E-02 -5.434703089512E-02 -5.367183141874E-02 -5.300502162283E-02
 -5.234649723432E-02 -5.169615527682E-02 -5.105389405443E-02 -5.041961313584E-02
</data>
</radfunc>
</slps>
<slps n="2" l="p" rc="100.733195533" flavor="Troullier-Martins">
<radfunc>
<data>
  5.732982951169E+01  1.657245142405E+01  7.048932462880E+00  4.616798763903E+00
  3.407773967035E+00  2.678333594837E+00  2.168033925491E+00  1.805396630170E+00
  1.546455050856E+00  1.341908679799E+00  1.179782305103E+00  1.033963510990E+00
  9.182814251463E-01  8.270890493078E-01  7.425866078012E-01  6.642071607843E-01
  6.031946874762E-01  5.458014487059E-01  4.917741065272E-01  4.508175540201E-01
  4.117529377304E-01  3.744751540071E-01  3.388855047046E-01  3.048913640136E-01
  2.724058781083E-01  2.489826802872E-01  2.263298642643E-01  2.044166630979E-01
  1.832149760810E-01  1.627036692264E-01  1.428479072123E-01  1.236219809193E-01
  1.050015020033E-01  8.696334265898E-02  6.948561544912E-02  5.254765586262E-02
  4.154589697722E-02  3.076989622474E-02  2.021442302013E-02  9.874483474122E-03
 -2.546793325080E-04 -1.017758468447E-02 -1.989851324084E-02 -2.942150573323E-02
 -3.875036139169E-02 -4.788863617244E-02 -5.683964080739E-02 -6.560643879709E-02
 -7.419184437298E-02 -8.259842054787E-02 -9.082847735171E-02 -9.888407034706E-02
 -1.067669995762E-01 -1.144788090389E-01 -1.220207868620E-01 -1.293939663228E-01
 -1.365991325620E-01 -1.436367558017E-01 -1.505040530720E-01 -1.571969161681E-01
 -1.637275853029E-01 -1.700976037385E-01 -1.763084767669E-01 -1.823614475224E-01
 -1.853290255242E-01 -1.882574555986E-01 -1.911468046553E-01 -1.939971182584E-01
 -1.968084200894E-01 -1.995807114955E-01 -2.023139710868E-01 -2.050081544111E-01
 -2.076631936946E-01 -2.102789976658E-01 -2.128554514621E-01 -2.153924166311E-01
 -2.178897312192E-01 -2.203472099665E-01 -2.227646446056E-01 -2.251418042682E-01
 -2.274784360066E-01 -2.297742654330E-01 -2.320289974802E-01 -2.342423172846E-01
 -2.364138911940E-01 -2.385433679405E-01 -2.406303759751E-01 -2.426745759082E-01
 -2.446753418961E-01 -2.466330693845E-01 -2.485447808279E-01 -2.504070763944E-01
 -2.522246703810E-01 -2.540008808921E-01 -2.557352253259E-01 -2.574282254676E-01
 -2.590800677228E-01 -2.606909347158E-01 -2.622609405389E-01 -2.637901387965E-01
 -2.652785251254E-01 -2.667260347091E-01 -2.681325457328E-01 -2.694978802009E-01
 -2.708218015153E-01 -2.721040815561E-01 -2.733440547107E-01 -2.745427078801E-01
 -2.756949294662E-01 -2.768041092469E-01 -2.778731104905E-01 -2.788973373346E-01
 -2.798769680377E-01 -2.808112651370E-01 -2.816997215912E-01 -2.825416523950E-01
 -2.833367950675E-01 -2.840837557898E-01 -2.847774684114E-01 -2.854225602030E-01
 -2.860255702273E-01 -2.865862194542E-01 -2.871056249030E-01 -2.875842828766E-01
 -2.880226275220E-01 -2.884209159886E-01 -2.887792473614E-01 -2.890975958919E-01
 -2.893758093490E-01 -2.896136029622E-01 -2.898107176240E-01 -2.899663808511E-01
 -2.900800961214E-01 -2.901518346444E-01 -2.901807095263E-01 -2.901662185485E-01
 -2.901077634890E-01 -2.900047596456E-01 -2.898566397956E-01 -2.896632592498E-01
 -2.894196400712E-01 -2.891300314494E-01 -2.888029122564E-01 -2.884390841127E-01
 -2.880400951054E-01 -2.876067836644E-01 -2.871397629882E-01 -2.866393503643E-01
 -2.861057067800E-01 -2.855381111049E-01 -2.849367712909E-01 -2.843019089470E-01
 -2.836324953552E-01 -2.829282354958E-01 -2.821886004020E-01 -2.814131506978E-01
 -2.806015085823E-01 -2.797532390305E-01 -2.788685194191E-01 -2.779460684011E-01
 -2.769848909748E-01 -2.759918417841E-01 -2.749726841028E-01 -2.739283346077E-01
 -2.728601840532E-01 -2.717690102313E-01 -2.706553756182E-01 -2.695194702257E-01
 -2.683612943208E-01 -2.671807276411E-01 -2.659775767098E-01 -2.647516370685E-01
 -2.635027334223E-01 -2.622307567371E-01 -2.609357067289E-01 -2.596176884616E-01
 -2.582767919266E-01 -2.569136806239E-01 -2.555287557128E-01 -2.541226120975E-01
 -2.526997877506E-01 -2.512640723494E-01 -2.498165288024E-01 -2.483582833337E-01
 -2.468899774263E-01 -2.454120648660E-01 -2.439248880892E-01 -2.424286110599E-01
 -2.409233878486E-01 -2.394094766221E-01 -2.378871524962E-01 -2.363567268651E-01
 -2.348186056310E-01 -2.332732743008E-01 -2.317212851650E-01 -2.301632901822E-01
 -2.286000696593E-01 -2.270322688679E-01 -2.254606818569E-01 -2.238862329492E-01
 -2.223097445427E-01 -2.207320014574E-01 -2.191540502259E-01 -2.175769316507E-01
 -2.160011760066E-01 -2.144272995166E-01 -2.128558020005E-01 -2.112869526087E-01
 -2.097210733939E-01 -2.081584456421E-01 -2.065992763501E-01 -2.050438052104E-01
 -2.034924267520E-01 -2.019450263286E-01 -2.004016714463E-01 -1.988626539452E-01
 -1.973279861995E-01 -1.957977586505E-01 -1.942719423742E-01 -1.927503855201E-01
 -1.912331928396E-01 -1.897202957541E-01 -1.882114269977E-01 -1.867063957079E-01
 -1.852048646614E-01 -1.837067824295E-01 -1.822117499618E-01 -1.807190290198E-01
 -1.792284096448E-01 -1.777399361120E-01 -1.762530848132E-01 -1.747668346356E-01
 -1.732854421614E-01 -1.718104459452E-01 -1.703394605685E-01 -1.688729856552E-01
 -1.674114992123E-01 -1.659554708323E-01 -1.645050318531E-01 -1.630614807481E-01
 -1.616247405210E-01 -1.601957079921E-01 -1.587776462215E-01 -1.573705871556E-01
 -1.559724528724E-01 -1.546151721586E-01 -1.533028433524E-01 -1.520139725147E-01
 -1.507516511122E-01 -1.495178365267E-01 -1.483158640072E-01 -1.471432950860E-01
 -1.460177995422E-01 -1.449614185600E-01 -1.439553582515E-01 -1.429865082010E-01