<?xml version="1.0" encoding="UTF-8" ?>
<psml version="1.1" energy_unit="hartree" length_unit="bohr"
 uuid="1b5df950-3f03-11ef-4a64-821f7fb77103"
 xmlns="http://esl.cecam.org/PSML/ns/1.1">
<provenance creator="ATM4.2.7" date="11-JUL-24">
<annotation action="semilocal-pseudopotential-generation" />
<input-file name="INP">
<![CDATA[   pe  Phosphorus
        tm2    4.000
   P    vwr 00000000
       0.0
    3    3
    3    0     1.000     1.000
    3    1     2.000     0.000
    3    2     0.500     0.500
   0.48544   1.87574   1.29454   0.00000   1.00000   0.00000
]]>
</input-file>
</provenance>
<pseudo-atom-spec atomic-label="P" atomic-number="15" z-pseudo="5"
 flavor="Troullier-Martins" relativity="dirac" spin-dft="no"
 core-corrections="yes">
<annotation pseudo-energy="-12.6972111285" />
<exchange-correlation>
<annotation atom-xc-code="vw" siesta-xc-type="VDW" siesta-xc-authors="DRSLL" />
<libxc-info number-of-functionals="2">
<functional name="XC_GGA_X_OPTB88_VDW" type="XC_EXCHANGE" id="139" />
<functional name="XC_NOT_IMPL" type="XC_EXCHANGE_CORRELATION" id="-1" />
</libxc-info>
</exchange-correlation>
<valence-configuration total-valence-charge="5">
<shell n="3" l="s" occupation="2" />
<shell n="3" l="p" occupation="2" />
<shell n="3" l="d" occupation="1" />
</valence-configuration>
</pseudo-atom-spec>
<grid npts="376">
<annotation type="sampled-log-atom"
 recipe="r(i:1..N) = a*(exp(b*(i-1))-1); resampled"
 recipe-cont="a: scale; b: step" scale="0.165250145111E-03"
 step="0.125000000000E-01" delta="0.500000000000E-02" rmax="20" />
<grid-data>
  0.000000000000E+00  5.040194254966E-03  1.005841431122E-02  1.508666499124E-02
  2.016693443563E-02  2.529720647515E-02  3.054833525482E-02  3.596769575217E-02
  4.129375361922E-02  4.681395583614E-02  5.240787592029E-02  5.793703985470E-02
  6.325004482160E-02  6.904888299368E-02  7.443956698241E-02  8.025009981629E-02
  8.543644430074E-02  9.095727926648E-02  9.683417749610E-02  1.030901030972E-01
  1.083841182646E-01  1.139495633939E-01  1.198003549968E-01  1.259511230998E-01
  1.324172478270E-01  1.374834898527E-01  1.427433231038E-01  1.482041450877E-01
  1.538736359854E-01  1.597597694527E-01  1.658708238349E-01  1.722153938093E-01
  1.788024024730E-01  1.856411138926E-01  1.927411461330E-01  2.001124847847E-01
  2.051825397828E-01  2.103809438342E-01  2.157109461108E-01  2.211758780373E-01
  2.267791553743E-01  2.325242803523E-01  2.384148438617E-01  2.444545276962E-01
  2.506471068549E-01  2.569964519014E-01  2.635065313829E-01  2.701814143112E-01
  2.770252727053E-01  2.840423841995E-01  2.912371347169E-01  2.986140212108E-01
  3.061776544753E-01  3.139327620276E-01  3.218841910622E-01  3.300369114812E-01
  3.383960190002E-01  3.469667383335E-01  3.557544264598E-01  3.647645759700E-01
  3.740028185011E-01  3.834749282553E-01  3.931868256095E-01  4.031445808158E-01
  4.082175939804E-01  4.133544177952E-01  4.185558548995E-01  4.238227180283E-01
  4.291558301398E-01  4.345560245436E-01  4.400241450309E-01  4.455610460068E-01
  4.511675926234E-01  4.568446609148E-01  4.625931379347E-01  4.684139218942E-01
  4.743079223026E-01  4.802760601096E-01  4.863192678487E-01  4.924384897836E-01
  4.986346820550E-01  5.049088128307E-01  5.112618624563E-01  5.176948236087E-01
  5.242087014512E-01  5.308045137905E-01  5.374832912357E-01  5.442460773594E-01
  5.510939288606E-01  5.580279157300E-01  5.650491214173E-01  5.721586430001E-01
  5.793575913556E-01  5.866470913341E-01  5.940282819348E-01  6.015023164838E-01
  6.090703628142E-01  6.167336034487E-01  6.244932357841E-01  6.323504722788E-01
  6.403065406420E-01  6.483626840255E-01  6.565201612183E-01  6.647802468425E-01
  6.731442315536E-01  6.816134222410E-01  6.901891422330E-01  6.988727315034E-01
  7.076655468806E-01  7.165689622600E-01  7.255843688182E-01  7.347131752310E-01
  7.439568078928E-01  7.533167111402E-01  7.627943474770E-01  7.723911978031E-01
  7.821087616460E-01  7.919485573948E-01  8.019121225377E-01  8.120010139018E-01
  8.222168078970E-01  8.325611007620E-01  8.430355088135E-01  8.536416686991E-01
  8.643812376528E-01  8.752558937542E-01  8.862673361904E-01  8.974172855217E-01
  9.087074839503E-01  9.201396955927E-01  9.317157067553E-01  9.434373262133E-01
  9.553063854936E-01  9.673247391610E-01  9.794942651075E-01  9.918168648464E-01
  1.004294463809E+00  1.016929011645E+00  1.029722482530E+00  1.042676875467E+00
  1.055794214609E+00  1.069076549565E+00  1.082525955728E+00  1.096144534595E+00
  1.109934414096E+00  1.123897748927E+00  1.138036720890E+00  1.152353539226E+00
  1.166850440968E+00  1.181529691286E+00  1.196393583842E+00  1.211444441151E+00
  1.226684614939E+00  1.242116486515E+00  1.257742467139E+00  1.273564998404E+00
  1.289586552611E+00  1.305809633161E+00  1.322236774944E+00  1.338870544734E+00
  1.355713541591E+00  1.372768397268E+00  1.390037776620E+00  1.407524378024E+00
  1.425230933796E+00  1.443160210622E+00  1.461315009988E+00  1.479698168618E+00
  1.498312558917E+00  1.517161089423E+00  1.536246705257E+00  1.555572388584E+00
  1.575141159083E+00  1.594956074413E+00  1.615020230696E+00  1.635336762996E+00
  1.655908845812E+00  1.676739693576E+00  1.697832561149E+00  1.719190744334E+00
  1.740817580392E+00  1.762716448559E+00  1.784890770578E+00  1.807344011232E+00
  1.830079678886E+00  1.853101326033E+00  1.876412549853E+00  1.900016992773E+00
  1.923918343034E+00  1.948120335271E+00  1.972626751094E+00  1.997441419681E+00
  2.022568218375E+00  2.048011073288E+00  2.073773959919E+00  2.099860903771E+00
  2.126275980983E+00  2.153023318962E+00  2.180107097037E+00  2.207531547101E+00
  2.235300954282E+00  2.263419657605E+00  2.291892050675E+00  2.320722582362E+00
  2.349915757494E+00  2.379476137565E+00  2.409408341445E+00  2.439717046100E+00
  2.470406987328E+00  2.501482960495E+00  2.532949821284E+00  2.564812486457E+00
  2.597075934620E+00  2.629745207002E+00  2.662825408243E+00  2.696321707193E+00
  2.730239337716E+00  2.764583599510E+00  2.799359858938E+00  2.834573549859E+00
  2.870230174485E+00  2.906335304236E+00  2.942894580613E+00  2.979913716075E+00
  3.017398494939E+00  3.055354774277E+00  3.093788484836E+00  3.132705631960E+00
  3.172112296534E+00  3.212014635928E+00  3.252418884965E+00  3.293331356890E+00
  3.334758444361E+00  3.376706620444E+00  3.419182439627E+00  3.462192538844E+00
  3.505743638509E+00  3.549842543571E+00  3.594496144573E+00  3.639711418731E+00
  3.685495431025E+00  3.731855335298E+00  3.778798375380E+00  3.826331886218E+00
  3.874463295018E+00  3.923200122411E+00  3.972549983626E+00  4.022520589679E+00
  4.073119748578E+00  4.124355366546E+00  4.176235449251E+00  4.228768103063E+00
  4.281961536315E+00  4.335824060589E+00  4.390364092015E+00  4.445590152583E+00
  4.501510871478E+00  4.558134986425E+00  4.615471345059E+00  4.673528906301E+00
  4.732316741763E+00  4.791844037165E+00  4.852120093768E+00  4.913154329828E+00
  4.974956282068E+00  5.037535607170E+00  5.100902083280E+00  5.165065611539E+00
  5.230036217629E+00  5.295824053339E+00  5.362439398153E+00  5.429892660853E+00
  5.498194381149E+00  5.567355231324E+00  5.637386017902E+00  5.708297683335E+00
  5.780101307715E+00  5.852808110505E+00  5.926429452291E+00  6.000976836556E+00
  6.076461911482E+00  6.152896471765E+00  6.230292460461E+00  6.308661970850E+00
  6.388017248327E+00  6.468370692317E+00  6.549734858208E+00  6.632122459317E+00
  6.715546368874E+00  6.800019622035E+00  6.885555417917E+00  6.972167121663E+00
  7.059868266526E+00  7.148672555991E+00  7.238593865908E+00  7.329646246663E+00
  7.421843925378E+00  7.515201308126E+00  7.609732982189E+00  7.705453718334E+00
  7.802378473120E+00  7.900522391236E+00  7.999900807871E+00  8.100529251104E+00
  8.202423444333E+00  8.305599308735E+00  8.410072965746E+00  8.515860739590E+00
  8.622979159821E+00  8.731444963909E+00  8.841275099859E+00  8.952486728851E+00
  9.065097227929E+00  9.179124192712E+00  9.294585440147E+00  9.411499011287E+00
  9.529883174116E+00  9.649756426400E+00  9.771137498580E+00  9.894045356693E+00
  1.001849920534E+01  1.014451849070E+01  1.027212290353E+01  1.040133238228E+01
  1.053216711620E+01  1.066464754848E+01  1.079879437946E+01  1.093462856985E+01
  1.107217134402E+01  1.121144419331E+01  1.135246887939E+01  1.149526743765E+01
  1.163986218065E+01  1.178627570162E+01  1.193453087797E+01  1.208465087486E+01
  1.223665914887E+01  1.239057945159E+01  1.254643583337E+01  1.270425264710E+01
  1.286405455197E+01  1.302586651736E+01  1.318971382671E+01  1.335562208151E+01
  1.352361720525E+01  1.369372544751E+01  1.386597338805E+01  1.404038794097E+01
  1.421699635888E+01  1.439582623723E+01  1.457690551853E+01  1.476026249680E+01
  1.494592582193E+01  1.513392450421E+01  1.532428791879E+01  1.551704581037E+01
  1.571222829774E+01  1.590986587857E+01  1.610998943413E+01  1.631263023414E+01
  1.651781994163E+01  1.672559061791E+01  1.693597472758E+01  1.714900514357E+01
  1.736471515233E+01  1.758313845898E+01  1.780430919261E+01  1.802826191160E+01
  1.825503160901E+01  1.848465371806E+01  1.871716411769E+01  1.895259913812E+01
  1.919099556654E+01  1.943239065288E+01  1.967682211561E+01  1.992432814766E+01
</grid-data>
</grid>
<valence-charge total-charge="5" is-unscreening-charge="yes"
 rescaled-to-z-pseudo="no">
<radfunc>
<data>
  1.879101360506E-01  1.879363505222E-01  1.880145389112E-01  1.881450188573E-01
  1.883298569648E-01  1.885705966376E-01  1.888733064771E-01  1.892454564275E-01
  1.896703506140E-01  1.901726471189E-01  1.907459789460E-01  1.913763492866E-01
  1.920417585598E-01  1.928348265555E-01  1.936346692967E-01  1.945644090547E-01
  1.954535664881E-01  1.964615844975E-01  1.976043906510E-01  1.989000578487E-01
  2.000603439264E-01  2.013432938495E-01  2.027619217027E-01  2.043306308744E-01
  2.060653634580E-01  2.074859119474E-01  2.090178680076E-01  2.106700077927E-01
  2.124518026703E-01  2.143734742889E-01  2.164460538628E-01  2.186814459429E-01
  2.210924969450E-01  2.236930687016E-01  2.264981172968E-01  2.295237774247E-01
  2.316719853447E-01  2.339314390169E-01  2.363079106135E-01  2.388074689181E-01
  2.414364937034E-01  2.442016906444E-01  2.471101067591E-01  2.501691463648E-01
  2.533865875337E-01  2.567705990234E-01  2.603297576502E-01  2.640730660670E-01
  2.680099708959E-01  2.721503811559E-01  2.765046869153E-01  2.810837780834E-01
  2.858990632424E-01  2.909624884047E-01  2.962865555600E-01  3.018843408580E-01
  3.077695122466E-01  3.139563463586E-01  3.204597444080E-01  3.272952468174E-01
  3.344790462546E-01  3.420279986982E-01  3.499596320857E-01  3.582921520134E-01
  3.626146195816E-01  3.670444438502E-01  3.715840913397E-01  3.762360704959E-01
  3.810029313130E-01  3.858872648479E-01  3.908917026114E-01  3.960189158264E-01
  4.012716145359E-01  4.066525465469E-01  4.121644961919E-01  4.178102828885E-01
  4.235927594745E-01  4.295148102953E-01  4.355793490149E-01  4.417893161221E-01
  4.481476760968E-01  4.546574141995E-01  4.613215328437E-01  4.681430475044E-01
  4.751249821119E-01  4.822703638766E-01  4.895822174816E-01  4.970635585772E-01
  5.047173865012E-01  5.125466761456E-01  5.205543688800E-01  5.287433624357E-01
  5.371164996452E-01  5.456765559235E-01  5.544262253697E-01  5.633681053558E-01
  5.725046794630E-01  5.818382986137E-01  5.913711602413E-01  6.011052853277E-01
  6.110424931327E-01  6.211843734300E-01  6.315322560596E-01  6.420871775999E-01
  6.528498449607E-01  6.638205956961E-01  6.749993548410E-01  6.863855880759E-01
  6.979782510389E-01  7.097757346161E-01  7.217758060603E-01  7.339755458191E-01
  7.463712799828E-01  7.589585083104E-01  7.717318278417E-01  7.846848521683E-01
  7.978101265132E-01  8.110990388569E-01  8.245417274499E-01  8.381269851738E-01
  8.518421613437E-01  8.656730616986E-01  8.796038474924E-01  8.936169347858E-01
  9.076928952342E-01  9.218103598894E-01  9.359459277516E-01  9.500740810501E-01
  9.641671094697E-01  9.781950457793E-01  9.921256155522E-01  1.005924203884E+00
  1.019553842205E+00  1.032975218434E+00  1.046146713832E+00  1.059024469944E+00
  1.071562488978E+00  1.083712770851E+00  1.095425489860E+00  1.106649213581E+00
  1.117331166088E+00  1.127417536905E+00  1.136853836287E+00  1.145585296439E+00
  1.153557317129E+00  1.160715952845E+00  1.167008437198E+00  1.172383738758E+00
  1.176793140843E+00  1.180190836154E+00  1.182534525518E+00  1.183786008439E+00
  1.183911751749E+00  1.182883421476E+00  1.180678362089E+00  1.177280006717E+00
  1.172678201685E+00  1.166869429567E+00  1.159856921098E+00  1.151650658193E+00
  1.142267263228E+00  1.131729754620E+00  1.120067176193E+00  1.107314100477E+00
  1.093510013904E+00  1.078698596542E+00  1.062926927879E+00  1.046244757538E+00
  1.028704107449E+00  1.010359114557E+00  9.912657150907E-01  9.714814015751E-01
  9.510649444258E-01  9.300760977470E-01  9.085752982002E-01  8.866233542146E-01
  8.642811331070E-01  8.416092480118E-01  8.186677286674E-01  7.955156939776E-01
  7.722110828983E-01  7.488103596351E-01  7.253682645799E-01  7.019375872646E-01
  6.785689607439E-01  6.553107017060E-01  6.322087556847E-01  6.093066337418E-01
  5.866453745545E-01  5.642634795747E-01  5.421968771036E-01  5.204788982061E-01
  4.991402621334E-01  4.782090741010E-01  4.577108362708E-01  4.376684683618E-01
  4.181023406851E-01  3.990303119477E-01  3.804677773246E-01  3.624277596736E-01
  3.449209998065E-01  3.279560289675E-01  3.115392581048E-01  2.956750663348E-01
  2.803658907842E-01  2.656123221354E-01  2.514132063549E-01  2.377657358557E-01
  2.246655532653E-01  2.121068854252E-01  2.000826707048E-01  1.885846622910E-01
  1.776035320867E-01  1.671289741717E-01  1.571497990627E-01  1.476540348451E-01
  1.386290186811E-01  1.300614799871E-01  1.219376549169E-01  1.142433921879E-01
  1.069642372260E-01  1.000855082366E-01  9.359236867986E-02  8.746988836415E-02
  8.170311454031E-02  7.627712352797E-02  7.117706915374E-02  6.638825480870E-02
  6.189619282875E-02  5.768664561816E-02  5.374566203073E-02  5.005960307949E-02
  4.661517098172E-02  4.339943442285E-02  4.039983722880E-02  3.760422001776E-02
  3.500084948623E-02  3.257843389031E-02  3.032612869732E-02  2.823353442655E-02
  2.629069790686E-02  2.448811182732E-02  2.281670093468E-02  2.126781810278E-02
  1.983325263190E-02  1.850522836867E-02  1.727638981939E-02  1.613978615974E-02
  1.508886244249E-02  1.411743959669E-02  1.321969425016E-02  1.239015675128E-02
  1.162370897055E-02  1.091556662222E-02  1.026125896159E-02  9.656616435562E-03
  9.097749442592E-03  8.581028805235E-03  8.103079957515E-03  7.660779190085E-03
  7.251236845889E-03  6.871779125345E-03  6.519935808081E-03  6.193424549849E-03
  5.890135327656E-03  5.608119788499E-03  5.345587616145E-03  5.100895908659E-03
  4.872535968212E-03  4.659123946644E-03  4.459389974105E-03  4.272169338394E-03
  4.096394105103E-03  3.931084470792E-03  3.775341320739E-03  3.628342560355E-03
  3.489337899258E-03  3.357642405684E-03  3.232631930326E-03  3.113738197423E-03
  3.000444458083E-03  2.892281521172E-03  2.788824087961E-03  2.689687369849E-03
  2.594523987481E-03  2.503021083142E-03  2.414897637782E-03  2.329902010368E-03
  2.247809503881E-03  2.168419729409E-03  2.091554568465E-03  2.017056384109E-03
  1.944786100321E-03  1.874621541890E-03  1.806455809823E-03  1.740195731385E-03
  1.675760413613E-03  1.613079891367E-03  1.552093837313E-03  1.492750361127E-03
  1.435004908552E-03  1.378819235527E-03  1.324160458792E-03  1.271000199727E-03
  1.219313807977E-03  1.169079647120E-03  1.120278457575E-03  1.072892786459E-03
  1.026906462396E-03  9.823039406650E-04  9.390694913032E-04  8.971869403554E-04
  8.566396226866E-04  8.174102207702E-04  7.794807751388E-04  7.428326905541E-04
  7.074467610371E-04  6.733032077312E-04  6.403817138997E-04  6.086614565002E-04
  5.781211318072E-04  5.487389717107E-04  5.204927572145E-04  4.933598251252E-04
  4.673170708241E-04  4.423409496137E-04  4.184074771184E-04  3.954922358674E-04
  3.735703697078E-04  3.526166348095E-04  3.326053416093E-04  3.135104914311E-04
  2.953057867812E-04  2.779644841043E-04  2.614598900388E-04  2.457653070978E-04
  2.308535648925E-04  2.166970478524E-04  2.032678936106E-04  1.905382447900E-04
  1.784804456562E-04  1.670672055848E-04  1.562717300307E-04  1.460678123263E-04
  1.364298997518E-04  1.273331320573E-04  1.187533634027E-04  1.106671700151E-04
  1.030518495348E-04  9.588541507076E-05  8.914658626739E-05  8.281477948092E-05
  7.687009799674E-05  7.129332296538E-05  6.606590513827E-05  6.116995709436E-05
  5.658824548269E-05  5.230418304176E-05  4.830182011824E-05  4.456583531444E-05
  4.108152495796E-05  3.783479173284E-05  3.481213158120E-05  3.200062115102E-05
  2.938790130355E-05  2.696216420160E-05  2.471213797546E-05  2.262706510968E-05
  2.069670112375E-05  1.891128721124E-05  1.726153200287E-05  1.573861177111E-05
  1.433415501420E-05  1.304021032030E-05  1.184924202498E-05  1.075412653556E-05
</data>
</radfunc>
</valence-charge>
<pseudocore-charge matching-radius="1.04267687547"
 number-of-continuous-derivatives="2">
<annotation model-core-charge="Three-parameter Martins fit" />
<radfunc>
<data>
  1.301347226277E+02  1.301175543467E+02  1.300663628302E+02  1.299809860686E+02
  1.298601504754E+02  1.297029617578E+02  1.295056176648E+02  1.292634721963E+02
  1.289876377170E+02  1.286624184206E+02  1.282923455820E+02  1.278868517648E+02
  1.274603980537E+02  1.269542373656E+02  1.264460624612E+02  1.258582559417E+02
  1.252990028089E+02  1.246683916808E+02  1.239577986070E+02  1.231576915315E+02
  1.224461353333E+02  1.216647513944E+02  1.208072719020E+02  1.198669937687E+02
  1.188367774531E+02  1.180005557497E+02  1.171061480716E+02  1.161500836474E+02
  1.151287768283E+02  1.140385394010E+02  1.128755964040E+02  1.116361059317E+02
  1.103161834454E+02  1.089119311359E+02  1.074194728974E+02  1.058349954793E+02
  1.047257208634E+02  1.035728413017E+02  1.023753389386E+02  1.011322454399E+02
  9.984265151224E+01  9.850571715386E+01  9.712068264415E+01  9.568688026766E+01
  9.420374676035E+01  9.267083645325E+01  9.108783507541E+01  8.945457416260E+01
  8.777104600092E+01  8.603741901489E+01  8.425405348824E+01  8.242151748216E+01
  8.054060279052E+01  7.861234074443E+01  7.663801765028E+01  7.461918961604E+01
  7.255769649066E+01  7.045567461194E+01  6.831556802962E+01  6.614013784366E+01
  6.393246927434E+01  6.169597606174E+01  5.943440177874E+01  5.715181763620E+01
  5.600400729030E+01  5.485261636218E+01  5.369824246646E+01  5.254150175163E+01
  5.138302831059E+01  5.022347350989E+01  4.906350523577E+01  4.790380705496E+01
  4.674507728903E+01  4.558802800110E+01  4.443338389416E+01  4.328188112092E+01
  4.213426600526E+01  4.099129367610E+01  3.985372661488E+01  3.872233311856E+01
  3.759788568065E+01  3.648115929313E+01  3.537292967334E+01  3.427397141994E+01
  3.318505610325E+01  3.210695029588E+01  3.104041354992E+01  2.998619632827E+01
  2.894503789793E+01  2.791766419395E+01  2.690478566348E+01  2.590709509988E+01
  2.492526547748E+01  2.395994779828E+01  2.301176896228E+01  2.208132967349E+01
  2.116920239426E+01  2.027592936071E+01  1.940202067218E+01  1.854795246793E+01
  1.771416520404E+01  1.690106204351E+01  1.610900737228E+01  1.533832545337E+01
  1.458929923098E+01  1.386216929569E+01  1.315713302099E+01  1.247434388067E+01
  1.181391095532E+01  1.117589863514E+01  1.056032652480E+01  9.967169554981E+00
  9.396358303256E+00  8.847779525723E+00  8.321276898968E+00  7.816651970193E+00
  7.333665311583E+00  6.872037873215E+00  6.431452526970E+00  6.011555792215E+00
  5.611959732244E+00  5.232244008911E+00  4.871958081295E+00  4.530623532877E+00
  4.207736510420E+00  3.902770256682E+00  3.615177718161E+00  3.344394208381E+00
  3.089840106752E+00  2.850923572771E+00  2.627043255305E+00  2.417590976926E+00
  2.221954373710E+00  2.039519471612E+00  1.869673181420E+00  1.711805695436E+00
  1.565312770321E+00  1.429597882069E+00  1.304074240674E+00  1.188166653867E+00
  1.081306422765E+00  9.829161363082E-01  8.924372162170E-01  8.093372368140E-01
  7.331096620821E-01  6.632734547267E-01  5.993726268187E-01  5.409757249112E-01
  4.876753761715E-01  4.390876343541E-01  3.948513721597E-01  3.546275765809E-01
  3.180985740944E-01  2.849672312120E-01  2.549561095770E-01  2.278065895774E-01
  2.032779799151E-01  1.811466210365E-01  1.612049923152E-01  1.432608304068E-01
  1.271362641429E-01  1.126669762690E-01  9.970138229472E-02  8.809984774452E-02
  7.773392931885E-02  6.848564919883E-02  6.024680303747E-02  5.291829713768E-02
  4.640951823940E-02  4.063773551898E-02  3.552753183740E-02  3.101026655629E-02
  2.702356709517E-02  2.351084894534E-02  2.042086406865E-02  1.770727551047E-02
  1.532825824988E-02  1.324612546597E-02  1.142697842749E-02  9.840380057210E-03
  8.459050713108E-03  7.258585022470E-03  6.217189666300E-03  5.315439987975E-03
  4.536055112912E-03  3.863691023826E-03  3.284749641180E-03  2.787203811886E-03
  2.360436926988E-03  1.995096197877E-03  1.682958840941E-03  1.416810286404E-03
  1.190333621990E-03  9.980093408155E-04  8.350249280436E-04  6.971931498099E-04
  5.808785879422E-04  4.829318550275E-04  4.006305370337E-04  3.316265531683E-04
  2.738992335880E-04  2.257135888172E-04  1.855833241247E-04  1.522381123297E-04
  1.245947577612E-04  1.017317967634E-04  8.286719778500E-05  6.733887890080E-05
  5.458766551894E-05  4.414245752406E-05  3.560734986195E-05  2.865046276281E-05
  2.299429182476E-05  1.840739135332E-05  1.469723418914E-05  1.170407913033E-05
  9.295742193511E-06  7.363136563874E-06  5.816478034651E-06  4.582074466019E-06
  3.599608132745E-06  2.819846072777E-06  2.202716242828E-06  1.715696673702E-06
  1.332467908081E-06  1.031793005795E-06  7.965867096875E-07  6.131445688380E-07
  4.705075796587E-07  3.599387881225E-07  2.744941294753E-07  2.086718640070E-07
  1.581265963117E-07  1.194371716188E-07  8.991887038276E-08  6.747169856135E-08
  5.045849718042E-08  3.760720520937E-08  2.793275231622E-08  2.067493439575E-08
  1.524908611888E-08  1.120711275643E-08  8.206815954406E-09  5.987794829558E-09
  4.352614224917E-09  3.152129197552E-09  2.274089923728E-09  1.634332696934E-09
  1.169987049257E-09  8.342720196148E-10  5.925136217570E-10  4.191120196347E-10
  2.952432404197E-10  2.071212051921E-10  1.446908249874E-10  1.006480444684E-10
  6.970976259719E-11  4.807081982383E-11  3.300227170344E-11  2.255565603550E-11
  1.534585125275E-11  1.039263210329E-11  7.005413218784E-12  4.699914230665E-12
  3.138112765005E-12  2.085178163353E-12  1.378755836744E-12  9.071407327358E-13
  5.938525541854E-13  3.867875957227E-13  2.506281565941E-13  1.615562220890E-13
  1.035921272602E-13  6.607112145458E-14  4.191315643584E-14  2.644321859202E-14
  1.659107905326E-14  1.035146926433E-14  6.421945587402E-15  3.961304568548E-15
  2.429327424740E-15  1.481080833015E-15  8.976034215217E-16  5.407180657285E-16
  3.237463675238E-16  1.926429347896E-16  1.139151273982E-16  6.693530696367E-17
  3.907865754728E-17  2.266725619504E-17  1.306162159925E-17  7.476484608856E-18
  4.250723524393E-18  2.400245751755E-18  1.345977752107E-18  7.494985250576E-19
  4.143958035419E-19  2.274741508606E-19  1.239598118193E-19  6.705350310756E-20
  3.600085697044E-20  1.918287302601E-20  1.014336590574E-20  5.322012397544E-21
  2.770462701005E-21  1.430764414690E-21  7.329591570606E-22  3.724287788357E-22
  1.876783000844E-22  9.378805674491E-23  4.647275451385E-23  2.283078710194E-23
  1.111907262343E-23  5.367777189439E-24  2.568331196065E-24  1.217839287710E-24
  5.722192698204E-25  2.663906769212E-25  1.228597047027E-25  5.612844826865E-26
  2.539734460575E-26  1.138081188146E-26  5.049927638045E-27  2.218557747273E-27
  9.648861376421E-28  4.153809709103E-28  1.769812124806E-28  7.462116248028E-29
  3.113111879588E-29  1.284896874265E-29  5.245962326449E-30  2.118395043756E-30
  8.459694071686E-31  3.340481035321E-31  1.304095875855E-31  5.032640204154E-32
  1.919585821907E-32  7.235738347398E-33  2.695004369605E-33  9.916856477262E-34
  3.604643672317E-34  1.294074660368E-34  4.587743152536E-35  1.605886694312E-35
  5.549312933362E-36  1.892795759646E-36  6.371467418777E-37  2.116296800602E-37
  6.934969864415E-38  2.241672991844E-38  7.146406165674E-39  2.246561220217E-39
  6.962907290090E-40  2.127309713117E-40  6.405659475235E-41  1.900704246127E-41
  5.556568516888E-42  1.600159969824E-42  4.538446391860E-43  1.267534838757E-43
  3.485319799648E-44  9.433566048078E-45  2.512925185526E-45  6.586776015886E-46
  1.698535401148E-46  4.308268505738E-47  1.074669689208E-47  2.635775580908E-48
  6.355057459738E-49  1.505998240359E-49  3.507026747826E-50  8.023769227259E-51
  1.803256485392E-51  3.980073980691E-52  8.625683246537E-53  1.835179534024E-53
</data>
</radfunc>
</pseudocore-charge>
<semilocal-potentials set="scalar_relativistic">
<slps n="3" l="s" rc="1.44316021062" flavor="Troullier-Martins">
<radfunc>
<data>
  1.893194952963E+00  1.893059841261E+00  1.892748516762E+00  1.892259234683E+00
  1.891584171824E+00  1.890717617121E+00  1.889637686106E+00  1.888317760293E+00
  1.886816508367E+00  1.885046168447E+00  1.883028585504E+00  1.880812081655E+00
  1.878472964664E+00  1.875684576710E+00  1.872870837379E+00  1.869597330925E+00
  1.866463287200E+00  1.862905726677E+00  1.858866108909E+00  1.854277498578E+00
  1.850160215529E+00  1.845598466588E+00  1.840542825944E+00  1.834938096235E+00
  1.828722580515E+00  1.823618893147E+00  1.818100852694E+00  1.812133462604E+00
  1.805678577981E+00  1.798694595622E+00  1.791136110365E+00  1.782953533964E+00
  1.774092672582E+00  1.764494258948E+00  1.754093435761E+00  1.742819188245E+00
  1.734779671338E+00  1.726292688942E+00  1.717331825493E+00  1.707869014966E+00
  1.697874451058E+00  1.687316502841E+00  1.676161641076E+00  1.664374382175E+00
  1.651917258574E+00  1.638750825887E+00  1.624833717942E+00  1.610122759622E+00
  1.594573142959E+00  1.578138662342E+00  1.560771988094E+00  1.542424932483E+00
  1.523048628431E+00  1.502593501244E+00  1.481008873863E+00  1.458242017389E+00
  1.434236455322E+00  1.408929367204E+00  1.382248024652E+00  1.354105327098E+00
  1.324394664255E+00  1.292984478036E+00  1.259712983271E+00  1.224383506221E+00
  1.205875098559E+00  1.186760829108E+00  1.167004889743E+00  1.146568860233E+00
  1.125411734975E+00  1.103489990893E+00  1.080757705239E+00  1.057166733856E+00
  1.032666961877E+00  1.007206639445E+00  9.807328143511E-01  9.531918714254E-01
  9.245301845823E-01  8.946948817984E-01  8.636347160071E-01  8.313010263025E-01
  7.976487645333E-01  7.626375530323E-01  7.262327307322E-01  6.884063381698E-01
  6.491383544961E-01  6.084138128175E-01  5.662364109958E-01  5.226179955082E-01
  4.775088698544E-01  4.323038388115E-01  3.871991184803E-01  3.411404412126E-01
  2.942703536564E-01  2.465066751342E-01  1.977972890049E-01  1.480775468895E-01
  9.727483156455E-02  4.532727006450E-02 -7.924914818910E-03 -6.224803439931E-02
 -1.189068283592E-01 -1.786500044490E-01 -2.402816080157E-01 -3.035697095898E-01
 -3.685798025498E-01 -4.352682742861E-01 -5.036203199503E-01 -5.735548308954E-01
 -6.451392191039E-01 -7.179907153764E-01 -7.918934900311E-01 -8.672431036720E-01
 -9.440928541947E-01 -1.022382561345E+00 -1.102068019126E+00 -1.183085053078E+00
 -1.265345850729E+00 -1.348810539877E+00 -1.433429483983E+00 -1.519101866559E+00
 -1.605744384861E+00 -1.693255950655E+00 -1.781511741047E+00 -1.870398649958E+00
 -1.959694229396E+00 -2.049305561069E+00 -2.139279455623E+00 -2.229522359568E+00
 -2.319891700339E+00 -2.410246934544E+00 -2.500358512366E+00 -2.590046760423E+00
 -2.679320715282E+00 -2.768082612770E+00 -2.856074999161E+00 -2.943023846025E+00
 -3.028502773516E+00 -3.112192657711E+00 -3.193924603554E+00 -3.273046778670E+00
 -3.348668123377E+00 -3.420405128845E+00 -3.487798708751E+00 -3.550250008077E+00
 -3.607361854451E+00 -3.658675010863E+00 -3.703790579468E+00 -3.742416414046E+00
 -3.774362249016E+00 -3.799550903140E+00 -3.817996983673E+00 -3.829779155172E+00
 -3.835064565226E+00 -3.834080457232E+00 -3.827080492104E+00 -3.814360205948E+00
 -3.796253570301E+00 -3.773134292036E+00 -3.745417381162E+00 -3.713565971363E+00
 -3.678093291830E+00 -3.639566405179E+00 -3.598605773679E+00 -3.555887572132E+00
 -3.512139423272E+00 -3.468150375295E+00 -3.424610801949E+00 -3.381630269815E+00
 -3.339217443475E+00 -3.297374542629E+00 -3.256087087965E+00 -3.215353143494E+00
 -3.175164021001E+00 -3.135512015861E+00 -3.096388294472E+00 -3.057782568036E+00
 -3.019665313442E+00 -2.982064802064E+00 -2.944962448809E+00 -2.908342398072E+00
 -2.872191342287E+00 -2.836498021448E+00 -2.801253228882E+00 -2.766448699233E+00
 -2.732078596817E+00 -2.698136753335E+00 -2.664617536790E+00 -2.631516502280E+00
 -2.598827270666E+00 -2.566544200948E+00 -2.534662436697E+00 -2.503176688654E+00
 -2.472081997359E+00 -2.441373433733E+00 -2.411046172230E+00 -2.381095453310E+00
 -2.351516561993E+00 -2.322304938042E+00 -2.293456044975E+00 -2.264965390762E+00
 -2.236828543705E+00 -2.209041125184E+00 -2.181598811793E+00 -2.154497326383E+00
 -2.127732467529E+00 -2.101300047813E+00 -2.075195941180E+00 -2.049416078632E+00
 -2.023956440465E+00 -1.998813055897E+00 -1.973982002938E+00 -1.949459407423E+00
 -1.925241439798E+00 -1.901324323460E+00 -1.877704325817E+00 -1.854377758764E+00
 -1.831340979639E+00 -1.808590390511E+00 -1.786122437850E+00 -1.763933611990E+00
 -1.742020445272E+00 -1.720379513679E+00 -1.699007435667E+00 -1.677900871564E+00
 -1.657056523039E+00 -1.636471132524E+00 -1.616141483274E+00 -1.596064398208E+00
 -1.576236739603E+00 -1.556655408662E+00 -1.537317345016E+00 -1.518219526352E+00
 -1.499358967762E+00 -1.480732721454E+00 -1.462337876264E+00 -1.444171557200E+00
 -1.426230924977E+00 -1.408513175579E+00 -1.391015539853E+00 -1.373735283034E+00
 -1.356669704329E+00 -1.339816136502E+00 -1.323171945455E+00 -1.306734529815E+00
 -1.290501320537E+00 -1.274469780502E+00 -1.258637404114E+00 -1.243001716913E+00