Siesta Version  : v4.1.5-1-g384057250
Architecture    : gcc
Compiler version: GNU Fortran (Ubuntu 11.4.0-1ubuntu1~22.04) 11.4.0
Compiler flags  : mpifort -O2 -fPIC -ftree-vectorize -fallow-argument-mismatch
PP flags        : -DFC_HAVE_ABORT -DMPI -DSIESTA__FLOOK -DSIESTA__METIS -DSIESTA__MUMPS -DCDF -DNCDF -DNCDF_4 -DNCDF_PARALLEL -DSIESTA__MRRR -DSIESTA__ELPA
Libraries       : libncdf.a libfdict.a  -lflookall -ldl -lnetcdff -lnetcdf -lhdf5_hl -lhdf5 -lhdf5_fortran -lz -lscalapack-openmpi -lopenblas -lmetis -lzmumps -lcmumps -ldmumps -lmumps_common -lpord -lsmumps -lesmumps -lscotch -lscotcherr -fopenmp -lelpa
PARALLEL version
NetCDF support
NetCDF-4 support
NetCDF-4 MPI-IO support
METIS ordering support
Lua support

* Running on 8 nodes in parallel
>> Start of run:   1-FEB-2024  21:23:45

                           ***********************       
                           *  WELCOME TO SIESTA  *       
                           ***********************       

reinit: Reading from standard input
reinit: Dumped input in INPUT_TMP.96394
************************** Dump of input data file ****************************
# mpirun -np 4 siesta-4.1.5 < GC.fdf > GC.out &
SystemLabel      GC
NumberOfAtoms    29
NumberOfSpecies  4
%block ChemicalSpeciesLabel
    1    1  H
    2    7  N
    3   14  Si
    4    8  O
%endblock ChemicalSpeciesLabel
############################################
# This overrides Defaults.fdf configuration
############################################
MD.TypeOfRun                Verlet # CG, Verlet
MD.Steps                    0
MaxSCFIterations            200
SCF.MustConverge            F
AtomicCoordinatesFormat NotScaledCartesianAng
%block AtomicCoordinatesAndAtomicSpecies
    1.0544747929072813 3.5676166257336606 -0.0  1  1  H
    0.34798806290728135 2.7775804457336606 -0.0  2  2  N
    -1.3822988470927187 3.2189443557336603 0.0  3  3  Si
    -1.5380785270927186 4.708936615733661 0.0  1  4  H
    -2.9056204670927186 1.6600368357336606 -0.0  3  5  Si
    -4.388808097092719 1.9028671957336607 -0.0  1  6  H
    -1.7072296070927186 -0.2532393242663394 -0.0  3  7  Si
    -2.4732550670927185 -1.7859560642663395 -0.0  2  8  N
    -1.8830085170927187 -2.7431690942663396 0.0  1  9  H
    -3.5248773870927184 -1.8664162942663394 -0.0  1  10  H
    0.00897045290728137 -0.19806501426633943 0.0  2  11  N
    1.0839930729072813 1.1322738257336606 -0.0  3  12  Si
    2.6926663929072814 1.1134635657336607 -0.0  4  13  O
    5.6164483 -7.44953905 0.0  1  14  H
    4.58206954 -7.2320376 0.0  2  15  N
    3.29666389 -8.492636 0.0  3  16  Si
    3.80117524 -9.90371886 -0.0  1  17  H
    1.65934232 -8.01362137 0.0  2  18  N
    1.68097912 -6.20463398 -0.0  3  19  Si
    0.54543521 -4.28636135 0.0  3  20  Si
    -1.03431493 -3.94450034 0.0  4  21  O
    1.73226934 -2.87719605 0.0  2  22  N
    1.20957366 -1.92961761 -0.0  1  23  H
    3.50853448 -2.77677601 0.0  3  24  Si
    4.13684451 -1.17938608 0.0  2  25  N
    3.54296161 -0.26248101 0.0  1  26  H
    5.18364407 -1.05231197 -0.0  1  27  H
    4.63288658 -4.07521596 -0.0  2  28  N
    3.79410501 -5.58634043 0.0  3  29  Si
%endblock AtomicCoordinatesAndAtomicSpecies
#############
# Unit Cell
#############
LatticeConstant 1.0 Ang
%block LatticeVectors
    30.00000    0.000000    0.000000
    0.000000    45.00000    0.000000
    0.000000    0.000000    10.00000
%endblock LatticeVectors
%include ../../../../Defaults.fdf
************************** End of input data file *****************************

reinit: -----------------------------------------------------------------------
reinit: System Name: 
reinit: -----------------------------------------------------------------------
reinit: System Label: GC
reinit: -----------------------------------------------------------------------

initatom: Reading input for the pseudopotentials and atomic orbitals ----------
Species number:   1 Atomic number:    1 Label: H
Species number:   2 Atomic number:    7 Label: N
Species number:   3 Atomic number:   14 Label: Si
Species number:   4 Atomic number:    8 Label: O

Ground state valence configuration:   1s01
Reading pseudopotential information in formatted form from H.psf

Pseudopotential generated from a relativistic atomic calculation

Valence configuration for pseudopotential generation:
1s( 1.00) rc: 0.01
2p( 0.00) rc: 0.60
3d( 0.00) rc: 1.99
4f( 0.00) rc: 2.49
Ground state valence configuration:   2s02  2p03
Reading pseudopotential information in formatted form from N.psf

Pseudopotential generated from a relativistic atomic calculation

Valence configuration for pseudopotential generation:
2s( 2.00) rc: 0.94
2p( 3.00) rc: 0.59
3d( 0.00) rc: 3.46
4f( 0.00) rc: 2.47
Ground state valence configuration:   3s02  3p02
Reading pseudopotential information in formatted form from Si.psf

Pseudopotential generated from a relativistic atomic calculation

Valence configuration for pseudopotential generation:
3s( 2.00) rc: 1.67
3p( 2.00) rc: 2.04
3d( 0.00) rc: 2.89
4f( 0.00) rc: 2.49
Ground state valence configuration:   2s02  2p04
Reading pseudopotential information in formatted form from O.psf

Pseudopotential generated from a relativistic atomic calculation

Valence configuration for pseudopotential generation:
2s( 2.00) rc: 0.45
2p( 4.00) rc: 0.92
3d( 0.00) rc: 2.24
4f( 0.00) rc: 0.25
For H, standard SIESTA heuristics set lmxkb to 2
 (one more than the basis l, including polarization orbitals).
Use PS.lmax or PS.KBprojectors blocks to override.
For N, standard SIESTA heuristics set lmxkb to 3
 (one more than the basis l, including polarization orbitals).
Use PS.lmax or PS.KBprojectors blocks to override.
For Si, standard SIESTA heuristics set lmxkb to 3
 (one more than the basis l, including polarization orbitals).
Use PS.lmax or PS.KBprojectors blocks to override.
For O, standard SIESTA heuristics set lmxkb to 3
 (one more than the basis l, including polarization orbitals).
Use PS.lmax or PS.KBprojectors blocks to override.

<basis_specs>
===============================================================================
H                    Z=   1    Mass=  1.0100        Charge= 0.17977+309
Lmxo=0 Lmxkb= 2    BasisType=split      Semic=F
L=0  Nsemic=0  Cnfigmx=1
          i=1  nzeta=2  polorb=1  (1s)
            splnorm:   0.62000    
               vcte:    0.0000    
               rinn:    0.0000    
               qcoe:    0.0000    
               qyuk:    0.0000    
               qwid:   0.10000E-01
                rcs:    0.0000      0.0000    
            lambdas:    1.0000      1.0000    
-------------------------------------------------------------------------------
L=0  Nkbl=1  erefs: 0.17977+309
L=1  Nkbl=1  erefs: 0.17977+309
L=2  Nkbl=1  erefs: 0.17977+309
===============================================================================
</basis_specs>

atom: Called for H                     (Z =   1)

read_vps: Pseudopotential generation method:
read_vps: ATM4.2.7  Troullier-Martins                       
Valence charge for ps generation:    1.00000

xc_check: Exchange-correlation functional:
xc_check: GGA Perdew, Burke & Ernzerhof 1996
V l=0 = -2*Zval/r beyond r=  0.0098
V l=1 = -2*Zval/r beyond r=  0.5817
V l=2 = -2*Zval/r beyond r=  1.9372
All V_l potentials equal beyond r=  1.9372
This should be close to max(r_c) in ps generation
All pots = -2*Zval/r beyond r=  1.9372

VLOCAL1: 99.0% of the norm of Vloc inside     11.567 Ry
VLOCAL1: 99.9% of the norm of Vloc inside     26.362 Ry
atom: Maximum radius for 4*pi*r*r*local-pseudopot. charge    2.25106
atom: Maximum radius for r*vlocal+2*Zval:    1.91306
GHOST: No ghost state for L =  0
GHOST: No ghost state for L =  1
GHOST: No ghost state for L =  2

KBgen: Kleinman-Bylander projectors: 
   l= 0   rc=  2.036604   el= -0.477180   Ekb= -6.081590   kbcos= -0.277285
   l= 1   rc=  2.195416   el=  0.001076   Ekb= -0.926943   kbcos= -0.034643
   l= 2   rc=  2.251056   el=  0.002010   Ekb= -0.130941   kbcos= -0.009788

KBgen: Total number of Kleinman-Bylander projectors:    9
atom: -------------------------------------------------------------------------

atom: SANKEY-TYPE ORBITALS:
atom: Selected multiple-zeta basis: split     

SPLIT: Orbitals with angular momentum L= 0

SPLIT: Basis orbitals for state 1s

SPLIT: PAO cut-off radius determined from an
SPLIT: energy shift=  0.002000 Ry

   izeta = 1
                 lambda =    1.000000
                     rc =    6.518340
                 energy =   -0.475305
                kinetic =    0.912139
    potential(screened) =   -1.387444
       potential(ionic) =   -1.907295

   izeta = 2
                 rmatch =    2.141150
              splitnorm =    0.620000
                 energy =    0.566467
                kinetic =    3.772856
    potential(screened) =   -3.206389
       potential(ionic) =   -3.759093

POLgen: Perturbative polarization orbital with L=  1

POLgen: Polarization orbital for state 1s

   izeta = 1
                     rc =    6.518340
                 energy =    0.533861
                kinetic =    1.121086
    potential(screened) =   -0.587225
       potential(ionic) =   -1.053027
atom: Total number of Sankey-type orbitals:  5

atm_pop: Valence configuration (for local Pseudopot. screening):
 1s( 1.00)                                                            
Vna: chval, zval:    1.00000   1.00000

Vna:  Cut-off radius for the neutral-atom potential:   6.518340

atom: _________________________________________________________________________

<basis_specs>
===============================================================================
N                    Z=   7    Mass=  14.010        Charge= 0.17977+309
Lmxo=1 Lmxkb= 3    BasisType=split      Semic=F
L=0  Nsemic=0  Cnfigmx=2
          i=1  nzeta=2  polorb=0  (2s)
            splnorm:   0.28000    
               vcte:    0.0000    
               rinn:    0.0000    
               qcoe:    0.0000    
               qyuk:    0.0000    
               qwid:   0.10000E-01
                rcs:    0.0000      0.0000    
            lambdas:    1.0000      1.0000    
L=1  Nsemic=0  Cnfigmx=2
          i=1  nzeta=2  polorb=1  (2p)
            splnorm:   0.28000    
               vcte:    0.0000    
               rinn:    0.0000    
               qcoe:    0.0000    
               qyuk:    0.0000    
               qwid:   0.10000E-01
                rcs:    0.0000      0.0000    
            lambdas:    1.0000      1.0000    
-------------------------------------------------------------------------------
L=0  Nkbl=1  erefs: 0.17977+309
L=1  Nkbl=1  erefs: 0.17977+309
L=2  Nkbl=1  erefs: 0.17977+309
L=3  Nkbl=1  erefs: 0.17977+309
===============================================================================
</basis_specs>

atom: Called for N                     (Z =   7)

read_vps: Pseudopotential generation method:
read_vps: ATM4.2.7  Troullier-Martins                       
Valence charge for ps generation:    5.00000

xc_check: Exchange-correlation functional:
xc_check: GGA Perdew, Burke & Ernzerhof 1996
V l=0 = -2*Zval/r beyond r=  1.2889
V l=1 = -2*Zval/r beyond r=  1.2889
V l=2 = -2*Zval/r beyond r=  3.4178
V l=3 = -2*Zval/r beyond r=  2.4084
All V_l potentials equal beyond r=  3.3753
This should be close to max(r_c) in ps generation
All pots = -2*Zval/r beyond r=  3.4178

VLOCAL1: 99.0% of the norm of Vloc inside      3.810 Ry
VLOCAL1: 99.9% of the norm of Vloc inside      8.683 Ry
atom: Maximum radius for 4*pi*r*r*local-pseudopot. charge    4.02088
atom: Maximum radius for r*vlocal+2*Zval:    3.54838
GHOST: No ghost state for L =  0
GHOST: No ghost state for L =  1
GHOST: No ghost state for L =  2
GHOST: No ghost state for L =  3

KBgen: Kleinman-Bylander projectors: 
   l= 0   rc=  3.417763   el= -1.365098   Ekb= -4.433130   kbcos= -0.707855
   l= 1   rc=  3.375302   el= -0.521201   Ekb=-13.264039   kbcos= -0.535594
   l= 2   rc=  3.872880   el=  0.001991   Ekb= -0.641094   kbcos= -0.062456
   l= 3   rc=  3.970931   el=  0.003093   Ekb= -0.474517   kbcos= -0.018236

KBgen: Total number of Kleinman-Bylander projectors:   16
atom: -------------------------------------------------------------------------

atom: SANKEY-TYPE ORBITALS:
atom: Selected multiple-zeta basis: split     

SPLIT: Orbitals with angular momentum L= 0

SPLIT: Basis orbitals for state 2s

SPLIT: PAO cut-off radius determined from an
SPLIT: energy shift=  0.002000 Ry

   izeta = 1
                 lambda =    1.000000
                     rc =    4.730425
                 energy =   -1.363399
                kinetic =    1.245246
    potential(screened) =   -2.608645
       potential(ionic) =   -8.121105

   izeta = 2
                 rmatch =    2.531849
              splitnorm =    0.280000
                 energy =   -0.959908
                kinetic =    2.409435
    potential(screened) =   -3.369343
       potential(ionic) =   -9.427975

SPLIT: Orbitals with angular momentum L= 1

SPLIT: Basis orbitals for state 2p

SPLIT: PAO cut-off radius determined from an
SPLIT: energy shift=  0.002000 Ry

   izeta = 1
                 lambda =    1.000000
                     rc =    5.924108
                 energy =   -0.519262
                kinetic =    3.672940
    potential(screened) =   -4.192202
       potential(ionic) =   -9.518354

   izeta = 2
                 rmatch =    2.531849
              splitnorm =    0.280000
                 energy =   -0.104258
                kinetic =    6.807538
    potential(screened) =   -6.911796
       potential(ionic) =  -13.149920

POLgen: Perturbative polarization orbital with L=  2

POLgen: Polarization orbital for state 2p

   izeta = 1
                     rc =    5.924108
                 energy =    1.427508
                kinetic =    2.872379
    potential(screened) =   -1.444871
       potential(ionic) =   -5.563644
atom: Total number of Sankey-type orbitals: 13

atm_pop: Valence configuration (for local Pseudopot. screening):
 2s( 2.00)                                                            
 2p( 3.00)                                                            
Vna: chval, zval:    5.00000   5.00000

Vna:  Cut-off radius for the neutral-atom potential:   5.924108

atom: _________________________________________________________________________

<basis_specs>
===============================================================================
Si                   Z=  14    Mass=  28.090        Charge= 0.17977+309
Lmxo=1 Lmxkb= 3    BasisType=split      Semic=F
L=0  Nsemic=0  Cnfigmx=3
          i=1  nzeta=2  polorb=0  (3s)
            splnorm:   0.28000    
               vcte:    0.0000    
               rinn:    0.0000    
               qcoe:    0.0000    
               qyuk:    0.0000    
               qwid:   0.10000E-01
                rcs:    0.0000      0.0000    
            lambdas:    1.0000      1.0000    
L=1  Nsemic=0  Cnfigmx=3
          i=1  nzeta=2  polorb=1  (3p)
            splnorm:   0.28000    
               vcte:    0.0000    
               rinn:    0.0000    
               qcoe:    0.0000    
               qyuk:    0.0000    
               qwid:   0.10000E-01
                rcs:    0.0000      0.0000    
            lambdas:    1.0000      1.0000    
-------------------------------------------------------------------------------
L=0  Nkbl=1  erefs: 0.17977+309
L=1  Nkbl=1  erefs: 0.17977+309
L=2  Nkbl=1  erefs: 0.17977+309
L=3  Nkbl=1  erefs: 0.17977+309
===============================================================================
</basis_specs>

atom: Called for Si                    (Z =  14)

read_vps: Pseudopotential generation method:
read_vps: ATM4.2.7  Troullier-Martins                       
Valence charge for ps generation:    4.00000

xc_check: Exchange-correlation functional:
xc_check: GGA Perdew, Burke & Ernzerhof 1996
V l=0 = -2*Zval/r beyond r=  2.7826
V l=1 = -2*Zval/r beyond r=  2.7826
V l=2 = -2*Zval/r beyond r=  2.9253
V l=3 = -2*Zval/r beyond r=  2.7826
All V_l potentials equal beyond r=  2.8530
This should be close to max(r_c) in ps generation
All pots = -2*Zval/r beyond r=  2.9253

VLOCAL1: 99.0% of the norm of Vloc inside      5.333 Ry
VLOCAL1: 99.9% of the norm of Vloc inside     12.154 Ry
atom: Maximum radius for 4*pi*r*r*local-pseudopot. charge    3.39869
atom: Maximum radius for r*vlocal+2*Zval:    2.96205
GHOST: No ghost state for L =  0
GHOST: No ghost state for L =  1
GHOST: No ghost state for L =  2
GHOST: No ghost state for L =  3

KBgen: Kleinman-Bylander projectors: 
   l= 0   rc=  3.075247   el= -0.794092   Ekb=  5.879390   kbcos=  0.167461
   l= 1   rc=  3.153101   el= -0.300068   Ekb=  2.642817   kbcos=  0.058301
   l= 2   rc=  3.273594   el=  0.001958   Ekb= -1.185135   kbcos= -0.104411
   l= 3   rc=  3.232927   el=  0.003046   Ekb= -0.497174   kbcos= -0.015889

KBgen: Total number of Kleinman-Bylander projectors:   16
atom: -------------------------------------------------------------------------

atom: SANKEY-TYPE ORBITALS:
atom: Selected multiple-zeta basis: split     

SPLIT: Orbitals with angular momentum L= 0

SPLIT: Basis orbitals for state 3s

SPLIT: PAO cut-off radius determined from an
SPLIT: energy shift=  0.002000 Ry

   izeta = 1
                 lambda =    1.000000
                     rc =    6.429618
                 energy =   -0.792283
                kinetic =    0.525293
    potential(screened) =   -1.317576
       potential(ionic) =   -3.744923

   izeta = 2
                 rmatch =    3.998416
              splitnorm =    0.280000
                 energy =   -0.583081
                kinetic =    1.069570
    potential(screened) =   -1.652651
       potential(ionic) =   -4.235185

SPLIT: Orbitals with angular momentum L= 1

SPLIT: Basis orbitals for state 3p

SPLIT: PAO cut-off radius determined from an
SPLIT: energy shift=  0.002000 Ry

   izeta = 1
                 lambda =    1.000000
                     rc =    8.464845
                 energy =   -0.298236
                kinetic =    0.785360
    potential(screened) =   -1.083596
       potential(ionic) =   -3.273779

   izeta = 2
                 rmatch =    4.587816
              splitnorm =    0.280000
                 energy =   -0.131871
                kinetic =    1.403687
    potential(screened) =   -1.535557
       potential(ionic) =   -4.015310

POLgen: Perturbative polarization orbital with L=  2

POLgen: Polarization orbital for state 3p

   izeta = 1
                     rc =    8.464845
                 energy =    0.321949
                kinetic =    1.055677
    potential(screened) =   -0.733728
       potential(ionic) =   -2.672950
atom: Total number of Sankey-type orbitals: 13

atm_pop: Valence configuration (for local Pseudopot. screening):
 3s( 2.00)                                                            
 3p( 2.00)                                                            
Vna: chval, zval:    4.00000   4.00000

Vna:  Cut-off radius for the neutral-atom potential:   8.464845

atom: _________________________________________________________________________

<basis_specs>
===============================================================================
O                    Z=   8    Mass=  16.000        Charge= 0.17977+309
Lmxo=1 Lmxkb= 3    BasisType=split      Semic=F
L=0  Nsemic=0  Cnfigmx=2
          i=1  nzeta=2  polorb=0  (2s)
            splnorm:   0.28000    
               vcte:    0.0000    
               rinn:    0.0000    
               qcoe:    0.0000    
               qyuk:    0.0000    
               qwid:   0.10000E-01
                rcs:    0.0000      0.0000    
            lambdas:    1.0000      1.0000    
L=1  Nsemic=0  Cnfigmx=2
          i=1  nzeta=2  polorb=1  (2p)
            splnorm:   0.28000    
               vcte:    0.0000    
               rinn:    0.0000    
               qcoe:    0.0000    
               qyuk:    0.0000    
               qwid:   0.10000E-01
                rcs:    0.0000      0.0000    
            lambdas:    1.0000      1.0000    
-------------------------------------------------------------------------------
L=0  Nkbl=1  erefs: 0.17977+309
L=1  Nkbl=1  erefs: 0.17977+309
L=2  Nkbl=1  erefs: 0.17977+309
L=3  Nkbl=1  erefs: 0.17977+309
===============================================================================
</basis_specs>

atom: Called for O                     (Z =   8)

read_vps: Pseudopotential generation method:
read_vps: ATM4.2.7  Troullier-Martins                       
Valence charge for ps generation:    6.00000

xc_check: Exchange-correlation functional:
xc_check: GGA Perdew, Burke & Ernzerhof 1996
V l=0 = -2*Zval/r beyond r=  1.1000
V l=1 = -2*Zval/r beyond r=  1.1000
V l=2 = -2*Zval/r beyond r=  2.2154
V l=3 = -2*Zval/r beyond r=  1.1000
All V_l potentials equal beyond r=  2.2154
This should be close to max(r_c) in ps generation
All pots = -2*Zval/r beyond r=  2.2154

VLOCAL1: 99.0% of the norm of Vloc inside      8.845 Ry
VLOCAL1: 99.9% of the norm of Vloc inside     20.157 Ry
atom: Maximum radius for 4*pi*r*r*local-pseudopot. charge    2.67231
atom: Maximum radius for r*vlocal+2*Zval:    2.32897
GHOST: No ghost state for L =  0
GHOST: No ghost state for L =  1
GHOST: No ghost state for L =  2
GHOST: No ghost state for L =  3

KBgen: Kleinman-Bylander projectors: 
   l= 0   rc=  2.243238   el= -1.759686   Ekb=**********   kbcos= -0.171774
   l= 1   rc=  2.328968   el= -0.663873   Ekb=-14.506792   kbcos= -0.519897
   l= 2   rc=  2.573941   el=  0.002031   Ekb= -1.137373   kbcos= -0.019581
   l= 3   rc=  2.606321   el=  0.003153   Ekb= -1.013546   kbcos= -0.003122

KBgen: Total number of Kleinman-Bylander projectors:   16
atom: -------------------------------------------------------------------------

atom: SANKEY-TYPE ORBITALS:
atom: Selected multiple-zeta basis: split     

SPLIT: Orbitals with angular momentum L= 0

SPLIT: Basis orbitals for state 2s

SPLIT: PAO cut-off radius determined from an
SPLIT: energy shift=  0.002000 Ry

   izeta = 1
                 lambda =    1.000000
                     rc =    4.243912
                 energy =   -1.758270
                kinetic =    3.286084
    potential(screened) =   -5.044353
       potential(ionic) =  -12.921184

   izeta = 2
                 rmatch =    2.187845
              splitnorm =    0.280000
                 energy =   -0.885018
                kinetic =    8.134434
    potential(screened) =   -9.019452
       potential(ionic) =  -17.710645

SPLIT: Orbitals with angular momentum L= 1

SPLIT: Basis orbitals for state 2p

SPLIT: PAO cut-off radius determined from an
SPLIT: energy shift=  0.002000 Ry

   izeta = 1
                 lambda =    1.000000
                     rc =    5.314825
                 energy =   -0.661986
                kinetic =    4.917472
    potential(screened) =   -5.579458
       potential(ionic) =  -13.236259

   izeta = 2
                 rmatch =    2.160663
              splitnorm =    0.280000
                 energy =   -0.068760
                kinetic =    9.183374
    potential(screened) =   -9.252135
       potential(ionic) =  -18.274251

POLgen: Perturbative polarization orbital with L=  2

POLgen: Polarization orbital for state 2p

   izeta = 1
                     rc =    5.314825
                 energy =    1.970580
                kinetic =    3.886128
    potential(screened) =   -1.915547
       potential(ionic) =   -7.749584
atom: Total number of Sankey-type orbitals: 13

atm_pop: Valence configuration (for local Pseudopot. screening):
 2s( 2.00)                                                            
 2p( 4.00)                                                            
Vna: chval, zval:    6.00000   6.00000

Vna:  Cut-off radius for the neutral-atom potential:   5.314825

atom: _________________________________________________________________________

prinput: Basis input ----------------------------------------------------------

PAO.BasisType split     

%block ChemicalSpeciesLabel
    1    1 H                       # Species index, atomic number, species label
    2    7 N                       # Species index, atomic number, species label
    3   14 Si                      # Species index, atomic number, species label
    4    8 O                       # Species index, atomic number, species label
%endblock ChemicalSpeciesLabel

%block PAO.Basis                 # Define Basis set
H                     1                    # Species label, number of l-shells
 n=1   0   2 P   1                   # n, l, Nzeta, Polarization, NzetaPol
   6.518      2.141   
   1.000      1.000   
N                     2                    # Species label, number of l-shells
 n=2   0   2                         # n, l, Nzeta 
   4.730      2.532   
   1.000      1.000   
 n=2   1   2 P   1                   # n, l, Nzeta, Polarization, NzetaPol
   5.924      2.532   
   1.000      1.000   
Si                    2                    # Species label, number of l-shells
 n=3   0   2                         # n, l, Nzeta 
   6.430      3.998   
   1.000      1.000   
 n=3   1   2 P   1                   # n, l, Nzeta, Polarization, NzetaPol
   8.465      4.588   
   1.000      1.000   
O                     2                    # Species label, number of l-shells
 n=2   0   2                         # n, l, Nzeta 
   4.244      2.188   
   1.000      1.000   
 n=2   1   2 P   1                   # n, l, Nzeta, Polarization, NzetaPol
   5.315      2.161   
   1.000      1.000   
%endblock PAO.Basis

prinput: ----------------------------------------------------------------------

Dumping basis to NetCDF file H.ion.nc
Dumping basis to NetCDF file N.ion.nc
Dumping basis to NetCDF file Si.ion.nc
Dumping basis to NetCDF file O.ion.nc
coor:   Atomic-coordinates input format  =     Cartesian coordinates
coor:                                          (in Angstroms)

siesta: Atomic coordinates (Bohr) and species
siesta:      1.99267   6.74182  -0.00000  1        1
siesta:      0.65760   5.24887  -0.00000  2        2
siesta:     -2.61217   6.08293   0.00000  3        3
siesta:     -2.90655   8.89860   0.00000  1        4
siesta:     -5.49083   3.13702  -0.00000  3        5
siesta:     -8.29365   3.59590  -0.00000  1        6
siesta:     -3.22620  -0.47855  -0.00000  3        7
siesta:     -4.67378  -3.37497  -0.00000  2        8
siesta:     -3.55837  -5.18384   0.00000  1        9
siesta:     -6.66106  -3.52702  -0.00000  1       10
siesta:      0.01695  -0.37429   0.00000  2       11
siesta:      2.04845   2.13969  -0.00000  3       12
siesta:      5.08840   2.10414  -0.00000  4       13
siesta:     10.61355 -14.07759   0.00000  1       14
siesta:      8.65886 -13.66658   0.00000  2       15
siesta:      6.22979 -16.04876   0.00000  3       16
siesta:      7.18318 -18.71532  -0.00000  1       17
siesta:      3.13570 -15.14356   0.00000  2       18
siesta:      3.17659 -11.72506  -0.00000  3       19
siesta:      1.03072  -8.10005   0.00000  3       20
siesta:     -1.95457  -7.45403   0.00000  4       21
siesta:      3.27352  -5.43711   0.00000  2       22
siesta:      2.28576  -3.64645  -0.00000  1       23
siesta:      6.63017  -5.24735   0.00000  3       24
siesta:      7.81751  -2.22872   0.00000  2       25
siesta:      6.69523  -0.49602   0.00000  1       26
siesta:      9.79567  -1.98858  -0.00000  1       27
siesta:      8.75489  -7.70105  -0.00000  2       28
siesta:      7.16982 -10.55666   0.00000  3       29

siesta: System type = molecule  

initatomlists: Number of atoms, orbitals, and projectors:     29   297   394

siesta: ******************** Simulation parameters ****************************
siesta:
siesta: The following are some of the parameters of the simulation.
siesta: A complete list of the parameters used, including default values,
siesta: can be found in file out.fdf
siesta:
redata: Spin configuration                          = spin-orbit
redata: Number of spin components                   = 8
redata: Time-Reversal Symmetry                      = F
redata: Spin spiral                                 = F
############################################################
This spin-orbit implementation uses a local approximation.
From 4.2 and onwards the full non-local approximation is implemented
You are strongly advised to use >=4.2 versions!
############################################################
redata: Long output                                 =   F
redata: Number of Atomic Species                    =        4
redata: Charge density info will appear in .RHO file
redata: Write Mulliken Pop.                         = NO
redata: Matel table size (NRTAB)                    =     1024
redata: Mesh Cutoff                                 =   340.0000 Ry
redata: Net charge of the system                    =     0.0000 |e|
redata: Min. number of SCF Iter                     =        1
redata: Max. number of SCF Iter                     =      200
redata: SCF mix quantity                            = Hamiltonian
redata: Mix DM or H after convergence               =   F
redata: Recompute H after scf cycle                 =   F
redata: Mix DM in first SCF step                    =   T
redata: Write Pulay info on disk                    =   F
redata: New DM Occupancy tolerance                  = 0.000000000001
redata: No kicks to SCF
redata: DM Mixing Weight for Kicks                  =     0.5000
redata: Require Harris convergence for SCF          =   F
redata: Harris energy tolerance for SCF             =     0.000100 eV
redata: Require DM convergence for SCF              =   T
redata: DM tolerance for SCF                        =     0.000008
redata: Require EDM convergence for SCF             =   F
redata: EDM tolerance for SCF                       =     0.001000 eV
redata: Require H convergence for SCF               =   T
redata: Hamiltonian tolerance for SCF               =     0.000001 eV
redata: Require (free) Energy convergence for SCF   =   F
redata: (free) Energy tolerance for SCF             =     0.000100 eV
redata: Using Saved Data (generic)                  =   F
redata: Use continuation files for DM               =   T
redata: Neglect nonoverlap interactions             =   F
redata: Method of Calculation                       = Diagonalization
redata: Electronic Temperature                      =   299.9978 K
redata: Fix the spin of the system                  =   F
redata: Dynamics option                             = Verlet MD run
redata: Initial MD time step                        =        1
redata:   Final MD time step                        =        1
redata: Length of MD time step                      =     0.5000 fs
redata: Initial Temperature of MD run               =     0.0000 K
redata: Perform a MD quench                         =   F
mix.SCF: Pulay mixing                            = Pulay
mix.SCF:    Variant                              = stable
mix.SCF:    History steps                        = 6
mix.SCF:    Linear mixing weight                 =     0.250000
mix.SCF:    Mixing weight                        =     0.250000
mix.SCF:    SVD condition                        = 0.1000E-07
mix.SCF:    Restart steps                        = 24
mix.SCF:    Restart save steps                   = 3
mix.SCF: Spin-component mixing                   all
redata: Save all siesta data in one NC              =   F
redata: ***********************************************************************

%block SCF.Mixers
  Pulay
%endblock SCF.Mixers

%block SCF.Mixer.Pulay
  # Mixing method
  method pulay
  variant stable

  # Mixing options
  weight 0.2500
  weight.linear 0.2500
  history 6
  restart 24
  restart.save 3
%endblock SCF.Mixer.Pulay

Size of DM history Fstack: 3
Total number of electrons:    98.000000
Total ionic charge:    98.000000

* ProcessorY, Blocksize:    2  24


* Orbital distribution balance (max,min):    48    24


Time-reversal symmetry not used.

siesta: k-grid: Number of k-points =     1
siesta: k-grid: Cutoff (effective) =     5.000 Ang
siesta: k-grid: Supercell and displacements
siesta: k-grid:    1   0   0      0.000
siesta: k-grid:    0   1   0      0.000
siesta: k-grid:    0   0   1      0.000

diag: Algorithm                                     = ELPA-1stage
diag: Parallel over k                               =   F
diag: Use parallel 2D distribution                  =   T
diag: Parallel block-size                           = 24
diag: Parallel distribution                         =     2 x     4
diag: Used triangular part                          = Lower
diag: Absolute tolerance                            =  0.100E-15
diag: Orthogonalization factor                      =  0.100E-05
diag: Memory factor                                 =  1.0000


ts: **************************************************************
ts: Save H and S matrices                           =    F
ts: Save DM and EDM matrices                        =    F
ts: Only save the overlap matrix S                  =    F
ts: **************************************************************

************************ Begin: TS CHECKS AND WARNINGS ************************
************************ End: TS CHECKS AND WARNINGS **************************


                     ====================================
                        Begin MD step =      1
                     ====================================

outcoor: Atomic coordinates (Ang):                          
    1.05447479    3.56761663    0.00000000   1       1  H
    0.34798806    2.77758045    0.00000000   2       2  N
   -1.38229885    3.21894436    0.00000000   3       3  Si
   -1.53807853    4.70893662    0.00000000   1       4  H
   -2.90562047    1.66003684    0.00000000   3       5  Si
   -4.38880810    1.90286720    0.00000000   1       6  H
   -1.70722961   -0.25323932    0.00000000   3       7  Si
   -2.47325507   -1.78595606    0.00000000   2       8  N
   -1.88300852   -2.74316909    0.00000000   1       9  H
   -3.52487739   -1.86641629    0.00000000   1      10  H
    0.00897045   -0.19806501    0.00000000   2      11  N
    1.08399307    1.13227383    0.00000000   3      12  Si
    2.69266639    1.11346357    0.00000000   4      13  O
    5.61644830   -7.44953905    0.00000000   1      14  H
    4.58206954   -7.23203760    0.00000000   2      15  N
    3.29666389   -8.49263600    0.00000000   3      16  Si
    3.80117524   -9.90371886    0.00000000   1      17  H
    1.65934232   -8.01362137    0.00000000   2      18  N
    1.68097912   -6.20463398    0.00000000   3      19  Si
    0.54543521   -4.28636135    0.00000000   3      20  Si
   -1.03431493   -3.94450034    0.00000000   4      21  O
    1.73226934   -2.87719605    0.00000000   2      22  N
    1.20957366   -1.92961761    0.00000000   1      23  H
    3.50853448   -2.77677601    0.00000000   3      24  Si
    4.13684451   -1.17938608    0.00000000   2      25  N
    3.54296161   -0.26248101    0.00000000   1      26  H
    5.18364407   -1.05231197    0.00000000   1      27  H
    4.63288658   -4.07521596    0.00000000   2      28  N
    3.79410501   -5.58634043    0.00000000   3      29  Si

outcell: Unit cell vectors (Ang):
       30.000000    0.000000    0.000000
        0.000000   45.000000    0.000000
        0.000000    0.000000   10.000000

outcell: Cell vector modules (Ang)   :   30.000000   45.000000   10.000000
outcell: Cell angles (23,13,12) (deg):     90.0000     90.0000     90.0000
outcell: Cell volume (Ang**3)        :  13500.0000
<dSpData1D:S at geom step 1
  <sparsity:sparsity for geom step 1
    nrows_g=297 nrows=48 sparsity=.1350 nnzs=11905, refcount: 8>
  <dData1D:(new from dSpData1D) n=11905, refcount: 1>
refcount: 1>
new_DM -- step:     1
Initializing Density Matrix...

Attempting to read DM from file... Failed...
DM filled with atomic data:
<dSpData2D:DM initialized from atoms
  <sparsity:sparsity for geom step 1
    nrows_g=297 nrows=48 sparsity=.1350 nnzs=11905, refcount: 9>
  <dData2D:DM n=11905 m=8, refcount: 1>
refcount: 1>
     spin moment: S , {S} =   56.00000   0.00000   0.00000  56.00000
No. of atoms with KB's overlaping orbs in proc 0. Max # of overlaps:      27     214

Initializing spin-orbit part of the Hamiltonian
  Adding spin-orbit effects for H 
  Adding spin-orbit effects for N 
  Adding spin-orbit effects for Si
  Adding spin-orbit effects for O 


New grid distribution:   1
           1       1:  180    1:  125    1:   15
           2       1:  180    1:  125   16:   30
           3       1:  180    1:  125   31:   45
           4       1:  180    1:  125   46:   60
           5       1:  180  126:  250    1:   15
           6       1:  180  126:  250   16:   30
           7       1:  180  126:  250   31:   45
           8       1:  180  126:  250   46:   60

InitMesh: MESH =   360 x   500 x   120 =    21600000
InitMesh: (bp) =   180 x   250 x    60 =     2700000
InitMesh: Mesh cutoff (required, used) =   340.000   341.206 Ry
ExtMesh (bp) on 0 =   288 x   225 x   123 =     7970400
New grid distribution:   2
           1      25:  180   18:  219    1:   60
           2      25:  180    1:   17    1:   60
           3       1:   24  195:  219    1:   60
           4       1:   23  236:  250    1:   60
           5       1:   24    1:  194    1:   60
           6      24:  180  220:  237    1:   60
           7      24:  180  238:  250    1:   60
           8       1:   23  220:  235    1:   60
New grid distribution:   3
           1      39:  180   20:  203    1:   60
           2      36:  180  232:  250    1:   60
           3      39:  180    1:   19    1:   60
           4       1:   35  204:  226    1:   60
           5       1:   38   31:  203    1:   60
           6      36:  180  204:  231    1:   60
           7       1:   38    1:   30    1:   60
           8       1:   35  227:  250    1:   60
Setting up quadratic distribution...
ExtMesh (bp) on 0 =   264 x   302 x   168 =    13394304
PhiOnMesh: Number of (b)points on node 0 =              1890720
PhiOnMesh: nlist on node 0 =              1845773

stepf: Fermi-Dirac step function

siesta: Program's energy decomposition (eV):
siesta: Ebs     =      -587.774457
siesta: Eions   =      3585.165840
siesta: Ena     =       381.514997
siesta: Ekin    =      3362.897464
siesta: Enl     =     -3292.813895
siesta: Eso     =        -0.003453
siesta: Edftu   =         0.000000
siesta: DEna    =       154.873541
siesta: DUscf   =        77.700165
siesta: DUext   =         0.000000
siesta: Exc     =     -1203.613259
siesta: eta*DQ  =         0.000000
siesta: Emadel  =         0.000000
siesta: Emeta   =         0.000000
siesta: Emolmec =         0.000000
siesta: Ekinion =         0.000000
siesta: Eharris =     -4028.671158
siesta: Etot    =     -4104.610280
siesta: FreeEng =     -4104.611312

        iscf     Eharris(eV)        E_KS(eV)     FreeEng(eV)     dDmax    Ef(eV) dHmax(eV)
   scf:    1    -4028.671158    -4104.610280    -4104.611312  0.955699 -4.906663 19.963508
     spin moment: S , {S} =    2.00574   0.00000  -0.00000   2.00574
timer: Routine,Calls,Time,% = IterSCF        1      19.123  26.25
   scf:    2    -4149.137301    -4138.258810    -4138.260199  0.471620 -4.122568 11.533310
     spin moment: S , {S} =    1.99277  -0.00000  -0.00000   1.99277
   scf:    3    -4109.147792    -4135.221546    -4135.243031  0.438166 -4.266472 12.317808
     spin moment: S , {S} =    2.00163  -0.00000  -0.00000   2.00163
   scf:    4    -4151.638816    -4146.552894    -4146.552894  0.306150 -3.805129  5.910447
     spin moment: S , {S} =    0.00009   0.00000   0.00000   0.00009
   scf:    5    -4147.761730    -4147.251709    -4147.251709  0.039482 -3.572282  4.380255
     spin moment: S , {S} =    0.00006   0.00000  -0.00000   0.00006
   scf:    6    -4148.021199    -4147.638835    -4147.638835  0.024812 -3.553936  2.197790
     spin moment: S , {S} =    0.00003  -0.00000  -0.00000   0.00003
   scf:    7    -4147.999738    -4147.819430    -4147.819430  0.021189 -3.481520  0.892760
     spin moment: S , {S} =    0.00001   0.00000  -0.00000   0.00001
   scf:    8    -4147.941264    -4147.878946    -4147.878946  0.012614 -3.661800  0.482438
     spin moment: S , {S} =    0.00000   0.00000   0.00000   0.00000
   scf:    9    -4147.918691    -4147.898283    -4147.898283  0.007181 -3.648342  0.321065
     spin moment: S , {S} =    0.00000   0.00000  -0.00000   0.00000
   scf:   10    -4147.945630    -4147.918586    -4147.918586  0.016363 -3.670952  0.144810
     spin moment: S , {S} =    0.00000   0.00000   0.00000  -0.00000
   scf:   11    -4147.922044    -4147.920223    -4147.920223  0.004841 -3.662983  0.052997
     spin moment: S , {S} =    0.00000   0.00000   0.00000   0.00000
   scf:   12    -4147.921186    -4147.920698    -4147.920698  0.002266 -3.657878  0.031842
     spin moment: S , {S} =    0.00000   0.00000   0.00000   0.00000
   scf:   13    -4147.921272    -4147.920969    -4147.920969  0.001888 -3.657058  0.026225
     spin moment: S , {S} =    0.00000   0.00000   0.00000   0.00000
   scf:   14    -4147.921522    -4147.921217    -4147.921217  0.002497 -3.655605  0.017807
     spin moment: S , {S} =    0.00000   0.00000   0.00000   0.00000
   scf:   15    -4147.921578    -4147.921367    -4147.921367  0.002591 -3.655823  0.009976
     spin moment: S , {S} =    0.00000   0.00000   0.00000   0.00000
   scf:   16    -4147.921472    -4147.921408    -4147.921408  0.001551 -3.655835  0.004968
     spin moment: S , {S} =    0.00000   0.00000   0.00000   0.00000
   scf:   17    -4147.921427    -4147.921416    -4147.921416  0.000649 -3.656102  0.002732
     spin moment: S , {S} =    0.00000   0.00000   0.00000   0.00000
   scf:   18    -4147.921421    -4147.921418    -4147.921418  0.000312 -3.656192  0.001229
     spin moment: S , {S} =    0.00000   0.00000   0.00000  -0.00000
   scf:   19    -4147.921420    -4147.921419    -4147.921419  0.000150 -3.656207  0.000674
     spin moment: S , {S} =    0.00000   0.00000   0.00000  -0.00000
   scf:   20    -4147.921420    -4147.921419    -4147.921419  0.000057 -3.656161  0.000444
     spin moment: S , {S} =    0.00000   0.00000   0.00000  -0.00000
   scf:   21    -4147.921420    -4147.921419    -4147.921419  0.000083 -3.656117  0.000250
     spin moment: S , {S} =    0.00000   0.00000   0.00000  -0.00000
   scf:   22    -4147.921419    -4147.921419    -4147.921419  0.000021 -3.656089  0.000094
     spin moment: S , {S} =    0.00000   0.00000   0.00000  -0.00000
   scf:   23    -4147.921419    -4147.921419    -4147.921419  0.000008 -3.656086  0.000046
     spin moment: S , {S} =    0.00000   0.00000   0.00000  -0.00000
   scf:   24    -4147.921419    -4147.921419    -4147.921419  0.000007 -3.656082  0.000017
     spin moment: S , {S} =    0.00000   0.00000   0.00000  -0.00000
mix: Pulay -- resetting history
   scf:   25    -4147.921419    -4147.921419    -4147.921419  0.000001 -3.656082  0.000009
     spin moment: S , {S} =    0.00000   0.00000   0.00000  -0.00000
   scf:   26    -4147.921419    -4147.921419    -4147.921419  0.000000 -3.656082  0.000007
     spin moment: S , {S} =    0.00000   0.00000   0.00000  -0.00000
   scf:   27    -4147.921419    -4147.921419    -4147.921419  0.000001 -3.656082  0.000005
     spin moment: S , {S} =    0.00000   0.00000   0.00000   0.00000
   scf:   28    -4147.921419    -4147.921419    -4147.921419  0.000000 -3.656082  0.000003
     spin moment: S , {S} =    0.00000   0.00000   0.00000   0.00000
   scf:   29    -4147.921419    -4147.921419    -4147.921419  0.000000 -3.656082  0.000001
     spin moment: S , {S} =    0.00000   0.00000   0.00000   0.00000
   scf:   30    -4147.921419    -4147.921419    -4147.921419  0.000000 -3.656082  0.000001
     spin moment: S , {S} =    0.00000   0.00000   0.00000   0.00000

SCF Convergence by DM+H criterion
max |DM_out - DM_in|         :     0.0000001482
max |H_out - H_in|      (eV) :     0.0000005053
SCF cycle converged after 30 iterations

Using DM_out to compute the final energy and forces
No. of atoms with KB's overlaping orbs in proc 0. Max # of overlaps:      27     214

siesta: E_KS(eV) =            -4147.9214

siesta: E_KS - E_eggbox =     -4147.9214
     spin moment: S , {S} =    0.00000   0.00000   0.00000   0.00000

siesta: Atomic forces (eV/Ang):
     1    0.042886    0.023065   -0.000000
     2    0.063977   -0.013096   -0.000000
     3   -0.009045   -0.007557   -0.000000
     4    0.002894    0.096978    0.000000
     5    0.010754    0.014932    0.000000
     6   -0.007570    0.001264    0.000000
     7   -0.040217   -0.047074    0.000000
     8   -0.132460    0.239225   -0.000000
     9    0.096705   -0.103541    0.000000
    10    0.060401   -0.028575   -0.000000
    11    0.088129   -0.029663    0.000000
    12   -0.026866    0.014144   -0.000000
    13   -3.058218   -2.796302   -0.000000
    14   -0.020338    0.001170   -0.000000
    15   -0.005402    0.003465    0.000000
    16   -0.013789   -0.007743   -0.000000
    17   -0.009441    0.041209    0.000000
    18   -0.037565    0.005164   -0.000000
    19   -0.013863   -0.008086    0.000000
    20    0.071269   -0.017914   -0.000000
    21    0.784878   -4.012385    0.000000
    22   -0.026796   -0.061166   -0.000000
    23   -0.013245   -0.070803   -0.000000
    24    0.019912    0.018506    0.000000
    25    0.056505   -0.113651   -0.000000
    26    0.016208    0.041568    0.000000
    27   -0.081449   -0.104076   -0.000000
    28    0.002511   -0.027550    0.000000
    29    0.004252    0.006609   -0.000000
----------------------------------------
   Tot   -2.174982   -6.941884    0.000000
----------------------------------------
   Max    4.012385
   Res    0.625814    sqrt( Sum f_i^2 / 3N )
----------------------------------------
   Max    4.012385    constrained

Stress tensor Voigt[x,y,z,yz,xz,xy] (kbar):        0.21       -0.12       -0.03        0.00       -0.00        0.08
(Free)E + p*V (eV/cell)    -4148.0978
Target enthalpy (eV/cell)    -4147.9214

siesta: Stress tensor (static) (eV/Ang**3):
         0.000134    0.000051    0.000000
         0.000051   -0.000074    0.000000
        -0.000000    0.000000   -0.000021

siesta: Pressure (static):         -0.02093263  kBar

siesta: Stress tensor (total) (eV/Ang**3):
         0.000134    0.000051    0.000000
         0.000051   -0.000074    0.000000
        -0.000000    0.000000   -0.000021

siesta: Pressure (total):         -0.02093263  kBar

siesta: Temp_ion =       0.000 K

siesta: Eigenvalues (eV):
ik =     1
  -22.7289  -22.7289  -22.4042  -22.4042  -21.3460  -21.3460  -21.0884  -21.0884  -20.7993  -20.7993
  -20.5477  -20.5477  -20.1065  -20.1065  -19.5310  -19.5310  -19.3516  -19.3516  -19.2121  -19.2121
  -14.6920  -14.6920  -13.6788  -13.6788  -13.1442  -13.1442  -12.9348  -12.9348  -12.8884  -12.8884
  -12.5045  -12.5045  -12.4558  -12.4558  -11.9902  -11.9902  -11.7240  -11.7240  -11.5669  -11.5669
  -10.8959  -10.8959  -10.7165  -10.7165  -10.4787  -10.4787  -10.2349  -10.2349  -10.0834  -10.0834
   -9.6120   -9.6120   -8.9903   -8.9903   -8.8657   -8.8657   -8.6862   -8.6862   -8.5794   -8.5794
   -8.3474   -8.3474   -8.2861   -8.2861   -8.2590   -8.2590   -7.8325   -7.8325   -7.7486   -7.7486
   -7.4820   -7.4820   -7.2307   -7.2307   -7.1821   -7.1821   -7.0125   -7.0125   -6.8313   -6.8313
   -6.6238   -6.6238   -6.4798   -6.4798   -6.3065   -6.3065   -6.2974   -6.2974   -6.1545   -6.1545
   -5.9501   -5.9501   -5.8105   -5.8105   -5.4658   -5.4658   -4.1794   -4.1794   -3.1328   -3.1328
   -2.2433   -2.2433   -2.2187   -2.2187   -2.0721   -2.0721   -1.7952   -1.7952   -1.7676   -1.7676
   -1.7105   -1.7105   -1.5454   -1.5454   -1.5104   -1.5104   -1.1383   -1.1383   -1.0347   -1.0347
   -0.8405   -0.8405   -0.4152   -0.4152   -0.3783   -0.3783   -0.1919   -0.1919    0.5295    0.5295
    0.5853    0.5853    0.6724    0.6724    0.7618    0.7618    1.1194    1.1194    1.2430    1.2430
    1.4951    1.4951    1.5232    1.5232    1.5783    1.5783    1.7086    1.7086    2.1376    2.1376
    2.2524    2.2524    2.7573    2.7573    2.8276    2.8276    2.8892    2.8892    2.9817    2.9817
    3.0787    3.0787    3.2470    3.2470    3.4085    3.4085    3.5510    3.5510    3.6793    3.6793
    3.9450    3.9450    4.1154    4.1154    4.2117    4.2117    4.2995    4.2995    4.5143    4.5143
    4.6537    4.6537    4.7595    4.7595    4.8804    4.8804    5.1669    5.1669    5.3130    5.3130
    5.4517    5.4517    5.4783    5.4783    5.8252    5.8252    5.9515    5.9515    6.0215    6.0215
    6.0777    6.0777    6.5017    6.5017    6.5426    6.5426    6.6601    6.6601    6.7331    6.7331
    6.9015    6.9015    7.0847    7.0847    7.1405    7.1405    7.2775    7.2775    7.3453    7.3453
    7.4624    7.4624    7.8337    7.8337    7.8544    7.8544    8.1556    8.1556    8.1748    8.1748
    8.3023    8.3023    8.6514    8.6514    8.6665    8.6665    8.7954    8.7954    8.8861    8.8861
    8.9580    8.9580    8.9707    8.9707    9.2266    9.2266    9.2988    9.2988    9.5293    9.5293
    9.7253    9.7253   10.0070   10.0070   10.1191   10.1191   10.1950   10.1950   10.3008   10.3008
   10.4566   10.4566   10.7929   10.7929   10.9734   10.9734   11.3540   11.3540   11.4024   11.4024
   11.4694   11.4694   11.7795   11.7795   12.4765   12.4765   12.5356   12.5356   12.5653   12.5653
   12.6117   12.6117   12.7073   12.7073   12.9477   12.9477   13.2173   13.2173   13.4777   13.4777
   13.6920   13.6920   13.8485   13.8485   14.0779   14.0779   14.1351   14.1351   14.2563   14.2563
   14.3641   14.3641   14.6624   14.6624   15.0823   15.0823   15.1664   15.1664   15.1829   15.1829
   15.5711   15.5711   16.4126   16.4126   16.7886   16.7886   16.8422   16.8422   16.9481   16.9481
   17.3680   17.3680   17.7516   17.7516   18.2834   18.2834   18.7374   18.7374   19.1520   19.1520
   19.3921   19.3921   20.2733   20.2733   20.3590   20.3590   20.5750   20.5750   20.8577   20.8577
   21.3999   21.3999   22.2023   22.2023   22.4047   22.4047   22.8040   22.8040   23.7056   23.7056
   23.8137   23.8137   24.1659   24.1659   24.2472   24.2472   24.9103   24.9103   25.3923   25.3923
   26.0371   26.0371   26.2916   26.2916   26.8465   26.8465   27.8354   27.8354   28.9452   28.9452
   29.6742   29.6742   29.8977   29.8977   30.2252   30.2252   30.4936   30.4936   30.8057   30.8057
   31.0304   31.0304   31.1278   31.1278   31.4901   31.4901   31.7656   31.7656   31.8683   31.8683
   32.9857   32.9857   33.5161   33.5161   34.0516   34.0516   34.0593   34.0593   34.1870   34.1870
   35.3671   35.3671   35.4810   35.4810   35.9649   35.9649   35.9932   35.9932   36.4406   36.4406
   37.1872   37.1872   37.2672   37.2672   37.3766   37.3766   37.5390   37.5390   38.7571   38.7571
   39.0029   39.0029   39.2231   39.2231   39.8268   39.8268   40.0287   40.0287   40.4320   40.4320
   40.7709   40.7709   40.8594   40.8594   41.6733   41.6733   41.7074   41.7074   41.9805   41.9805
   42.3343   42.3343   42.8853   42.8853   43.1392   43.1392   43.5574   43.5574   44.1766   44.1766
   44.2330   44.2330   44.4664   44.4664   44.6196   44.6196   44.8762   44.8762   45.1920   45.1920
   45.4537   45.4537   45.6623   45.6623   46.3908   46.3908   46.4871   46.4871   46.8606   46.8606
   47.1208   47.1208   47.9978   47.9978   48.6063   48.6063   49.3101   49.3101   50.1038   50.1038
   50.2395   50.2395   50.4136   50.4136   50.5604   50.5604   50.8292   50.8292   51.5177   51.5177
   51.5329   51.5329   51.9644   51.9644   52.6494   52.6494   53.1050   53.1050   54.2869   54.2869
   54.4739   54.4739   54.6146   54.6146   55.5062   55.5062   55.8910   55.8910   56.3130   56.3130
   56.4250   56.4250   56.9410   56.9410   58.4216   58.4216   58.5832   58.5832   59.3020   59.3020
   60.2496   60.2496   60.4395   60.4395   61.3009   61.3009   61.4616   61.4616   62.1103   62.1103
   62.8661   62.8661   62.8763   62.8763   63.2217   63.2217   64.1353   64.1353   66.2509   66.2509
   67.1261   67.1261   67.9494   67.9494   69.6332   69.6332   69.9898   69.9898   70.7293   70.7293
   70.8199   70.8199   72.0301   72.0301   72.7832   72.7832   75.5798   75.5798   87.9344   87.9344
   90.5418   90.5418   90.8572   90.8572   94.5740   94.5740   95.6727   95.6727   97.6710   97.6710
  101.2388  101.2388  101.7946  101.7946  102.4299  102.4299  104.5024  104.5024  106.0149  106.0149
  115.7036  115.7036  118.2460  118.2460  125.2954  125.2954  128.4997  128.4997  138.8546  138.8546
  145.5368  145.5368  147.2884  147.2884
siesta: Fermi energy =      -3.656082 eV

siesta: Program's energy decomposition (eV):
siesta: Ebs     =     -1122.636590
siesta: Eions   =      3585.165840
siesta: Ena     =       381.514997
siesta: Ekin    =      2910.747237
siesta: Enl     =     -2794.317688
siesta: Eso     =        -0.004320
siesta: Edftu   =         0.000000
siesta: DEna    =        48.050741
siesta: DUscf   =        13.664065
siesta: DUext   =         0.000000
siesta: Exc     =     -1122.410612
siesta: eta*DQ  =         0.000000
siesta: Emadel  =         0.000000
siesta: Emeta   =         0.000000
siesta: Emolmec =         0.000000
siesta: Ekinion =         0.000000
siesta: Eharris =     -4147.921419
siesta: Etot    =     -4147.921419
siesta: FreeEng =     -4147.921419

siesta: Final energy (eV):
siesta:  Band Struct. =   -1122.636590
siesta:       Kinetic =    2910.747237
siesta:       Hartree =   16069.467489
siesta:       Edftu   =       0.000000
siesta:       Eso     =      -0.004320
siesta:    Ext. field =       0.000000
siesta:   Exch.-corr. =   -1122.410612
siesta:  Ion-electron =  -34715.083211
siesta:       Ion-ion =   12709.361998
siesta:       Ekinion =       0.000000
siesta:         Total =   -4147.921419
siesta:         Fermi =      -3.656082

siesta: Atomic forces (eV/Ang):
siesta:      1    0.042886    0.023065   -0.000000
siesta:      2    0.063977   -0.013096   -0.000000
siesta:      3   -0.009045   -0.007557   -0.000000
siesta:      4    0.002894    0.096978    0.000000
siesta:      5    0.010754    0.014932    0.000000
siesta:      6   -0.007570    0.001264    0.000000
siesta:      7   -0.040217   -0.047074    0.000000
siesta:      8   -0.132460    0.239225   -0.000000
siesta:      9    0.096705   -0.103541    0.000000
siesta:     10    0.060401   -0.028575   -0.000000
siesta:     11    0.088129   -0.029663    0.000000
siesta:     12   -0.026866    0.014144   -0.000000
siesta:     13   -3.058218   -2.796302   -0.000000
siesta:     14   -0.020338    0.001170   -0.000000
siesta:     15   -0.005402    0.003465    0.000000
siesta:     16   -0.013789   -0.007743   -0.000000
siesta:     17   -0.009441    0.041209    0.000000
siesta:     18   -0.037565    0.005164   -0.000000
siesta:     19   -0.013863   -0.008086    0.000000
siesta:     20    0.071269   -0.017914   -0.000000
siesta:     21    0.784878   -4.012385    0.000000
siesta:     22   -0.026796   -0.061166   -0.000000
siesta:     23   -0.013245   -0.070803   -0.000000
siesta:     24    0.019912    0.018506    0.000000
siesta:     25    0.056505   -0.113651   -0.000000
siesta:     26    0.016208    0.041568    0.000000
siesta:     27   -0.081449   -0.104076   -0.000000
siesta:     28    0.002511   -0.027550    0.000000
siesta:     29    0.004252    0.006609   -0.000000
siesta: ----------------------------------------
siesta:    Tot   -2.174982   -6.941884    0.000000

siesta: Stress tensor (static) (eV/Ang**3):
siesta:     0.000134    0.000051    0.000000
siesta:     0.000051   -0.000074    0.000000
siesta:    -0.000000    0.000000   -0.000021

siesta: Cell volume =      13500.000000 Ang**3

siesta: Pressure (static):
siesta:                Solid            Molecule  Units
siesta:          -0.00000014          0.00000208  Ry/Bohr**3
siesta:          -0.00001306          0.00019116  eV/Ang**3
siesta:          -0.02093263          0.30627325  kBar
(Free)E+ p_basis*V_orbitals  =       -4128.071002
(Free)Eharris+ p_basis*V_orbitals  =       -4128.071002
     spin moment: S , {S} =    0.00000   0.00000   0.00000   0.00000

siesta: Electric dipole (a.u.)  =   -0.033880    1.434252   -0.000000
siesta: Electric dipole (Debye) =   -0.086114    3.645508   -0.000000

cite: Please see "GC.bib" for an exhaustive BiBTeX file.
cite: Please clearly indicate Siesta version in published work: v4.1.5-1-g384057250
cite: This calculation has made use of the following articles
cite: which are encouraged to be cited in a published work.
        Primary SIESTA paper
          DOI: www.doi.org/10.1088/0953-8984/14/11/302
        Spin-orbit coupling (on-site approximation)
          DOI: www.doi.org/10.1088/0953-8984/19/19/489001


WARNING: alloc-realloc-dealloc name mismatch
         Name: atomlist isa
         Size:              -116. Bytes
         Node:     0
         Subsequent mismatches will not be reported
>> End of run:   1-FEB-2024  21:29:44
Job completed
