Siesta Version  : v4.1.5-1-g384057250
Architecture    : gcc
Compiler version: GNU Fortran (Debian 10.2.1-6) 10.2.1 20210110
Compiler flags  : mpifort -O2 -fPIC -ftree-vectorize -fallow-argument-mismatch
PP flags        : -DFC_HAVE_ABORT -DMPI -DSIESTA__FLOOK -DSIESTA__METIS -DSIESTA__MUMPS -DCDF -DNCDF -DNCDF_4 -DNCDF_PARALLEL -DSIESTA__MRRR -DSIESTA__ELPA
Libraries       : libncdf.a libfdict.a  -lflookall -ldl -lnetcdff -lnetcdf -lhdf5_hl -lhdf5 -lhdf5_fortran -lz -lscalapack-openmpi -lopenblas -lmetis -lzmumps -lcmumps -ldmumps -lmumps_common -lpord -lsmumps -lesmumps -lscotch -lscotcherr -fopenmp -lelpa
PARALLEL version
NetCDF support
NetCDF-4 support
NetCDF-4 MPI-IO support
METIS ordering support
Lua support

* Running on 6 nodes in parallel
>> Start of run:  16-OCT-2023  18:14:49

                           ***********************       
                           *  WELCOME TO SIESTA  *       
                           ***********************       

reinit: Reading from standard input
reinit: Dumped input in INPUT_TMP.45110
************************** Dump of input data file ****************************
# mpirun -np 4 siesta-4.1.5 < GC.fdf > GC.out &
SystemLabel      GC
NumberOfAtoms    29
NumberOfSpecies  4
%block ChemicalSpeciesLabel
    1    1  H
    2    7  N
    3   14  Si
    4    8  O
%endblock ChemicalSpeciesLabel
############################################
# This overrides Defaults.fdf configuration
############################################
MD.TypeOfRun                CG # CG, Verlet
MD.Steps                    0
MaxSCFIterations            600
AtomicCoordinatesFormat NotScaledCartesianAng
%block AtomicCoordinatesAndAtomicSpecies
    1.0988054413663304 3.501639316679507 -0.0  1  1  H
    0.3923187113663304 2.711603136679507 -0.0  2  2  N
    -1.3379681986336696 3.152967046679507 0.0  3  3  Si
    -1.4937478786336695 4.642959306679507 0.0  1  4  H
    -2.86128981863367 1.5940595266795068 -0.0  3  5  Si
    -4.34447744863367 1.836889886679507 -0.0  1  6  H
    -1.6628989586336695 -0.3192166333204932 -0.0  3  7  Si
    -2.42892441863367 -1.8519333733204932 -0.0  2  8  N
    -1.8386778686336696 -2.809146403320493 0.0  1  9  H
    -3.4805467386336697 -1.9323936033204931 -0.0  1  10  H
    0.05330110136633039 -0.26404232332049327 0.0  2  11  N
    1.1283237213663304 1.0662965166795069 -0.0  3  12  Si
    2.73699704136633 1.047486256679507 -0.0  4  13  O
    5.6164483 -7.44953905 0.0  1  14  H
    4.58206954 -7.2320376 0.0  2  15  N
    3.29666389 -8.492636 0.0  3  16  Si
    3.80117524 -9.90371886 -0.0  1  17  H
    1.65934232 -8.01362137 0.0  2  18  N
    1.68097912 -6.20463398 -0.0  3  19  Si
    0.54543521 -4.28636135 0.0  3  20  Si
    -1.03431493 -3.94450034 0.0  4  21  O
    1.73226934 -2.87719605 0.0  2  22  N
    1.20957366 -1.92961761 -0.0  1  23  H
    3.50853448 -2.77677601 0.0  3  24  Si
    4.13684451 -1.17938608 0.0  2  25  N
    3.54296161 -0.26248101 0.0  1  26  H
    5.18364407 -1.05231197 -0.0  1  27  H
    4.63288658 -4.07521596 -0.0  2  28  N
    3.79410501 -5.58634043 0.0  3  29  Si
%endblock AtomicCoordinatesAndAtomicSpecies
%include ../../../../Defaults.fdf
************************** End of input data file *****************************

reinit: -----------------------------------------------------------------------
reinit: System Name: 
reinit: -----------------------------------------------------------------------
reinit: System Label: GC
reinit: -----------------------------------------------------------------------

initatom: Reading input for the pseudopotentials and atomic orbitals ----------
Species number:   1 Atomic number:    1 Label: H
Species number:   2 Atomic number:    7 Label: N
Species number:   3 Atomic number:   14 Label: Si
Species number:   4 Atomic number:    8 Label: O

Ground state valence configuration:   1s01
Reading pseudopotential information in formatted form from H.psf

Pseudopotential generated from a relativistic atomic calculation

Valence configuration for pseudopotential generation:
1s( 1.00) rc: 0.01
2p( 0.00) rc: 0.60
3d( 0.00) rc: 1.99
4f( 0.00) rc: 2.49
Ground state valence configuration:   2s02  2p03
Reading pseudopotential information in formatted form from N.psf

Pseudopotential generated from a relativistic atomic calculation

Valence configuration for pseudopotential generation:
2s( 2.00) rc: 0.94
2p( 3.00) rc: 0.59
3d( 0.00) rc: 3.46
4f( 0.00) rc: 2.47
Ground state valence configuration:   3s02  3p02
Reading pseudopotential information in formatted form from Si.psf

Pseudopotential generated from a relativistic atomic calculation

Valence configuration for pseudopotential generation:
3s( 2.00) rc: 1.67
3p( 2.00) rc: 2.04
3d( 0.00) rc: 2.89
4f( 0.00) rc: 2.49
Ground state valence configuration:   2s02  2p04
Reading pseudopotential information in formatted form from O.psf

Pseudopotential generated from a relativistic atomic calculation

Valence configuration for pseudopotential generation:
2s( 2.00) rc: 0.45
2p( 4.00) rc: 0.92
3d( 0.00) rc: 2.24
4f( 0.00) rc: 0.25
For H, standard SIESTA heuristics set lmxkb to 2
 (one more than the basis l, including polarization orbitals).
Use PS.lmax or PS.KBprojectors blocks to override.
For N, standard SIESTA heuristics set lmxkb to 3
 (one more than the basis l, including polarization orbitals).
Use PS.lmax or PS.KBprojectors blocks to override.
For Si, standard SIESTA heuristics set lmxkb to 3
 (one more than the basis l, including polarization orbitals).
Use PS.lmax or PS.KBprojectors blocks to override.
For O, standard SIESTA heuristics set lmxkb to 3
 (one more than the basis l, including polarization orbitals).
Use PS.lmax or PS.KBprojectors blocks to override.

<basis_specs>
===============================================================================
H                    Z=   1    Mass=  1.0100        Charge= 0.17977+309
Lmxo=0 Lmxkb= 2    BasisType=split      Semic=F
L=0  Nsemic=0  Cnfigmx=1
          i=1  nzeta=2  polorb=1  (1s)
            splnorm:   0.62000    
               vcte:    0.0000    
               rinn:    0.0000    
               qcoe:    0.0000    
               qyuk:    0.0000    
               qwid:   0.10000E-01
                rcs:    0.0000      0.0000    
            lambdas:    1.0000      1.0000    
-------------------------------------------------------------------------------
L=0  Nkbl=1  erefs: 0.17977+309
L=1  Nkbl=1  erefs: 0.17977+309
L=2  Nkbl=1  erefs: 0.17977+309
===============================================================================
</basis_specs>

atom: Called for H                     (Z =   1)

read_vps: Pseudopotential generation method:
read_vps: ATM4.2.7  Troullier-Martins                       
Valence charge for ps generation:    1.00000

xc_check: Exchange-correlation functional:
xc_check: GGA Perdew, Burke & Ernzerhof 1996
V l=0 = -2*Zval/r beyond r=  0.0098
V l=1 = -2*Zval/r beyond r=  0.5817
V l=2 = -2*Zval/r beyond r=  1.9372
All V_l potentials equal beyond r=  1.9372
This should be close to max(r_c) in ps generation
All pots = -2*Zval/r beyond r=  1.9372

VLOCAL1: 99.0% of the norm of Vloc inside     11.567 Ry
VLOCAL1: 99.9% of the norm of Vloc inside     26.362 Ry
atom: Maximum radius for 4*pi*r*r*local-pseudopot. charge    2.25106
atom: Maximum radius for r*vlocal+2*Zval:    1.91306
GHOST: No ghost state for L =  0
GHOST: No ghost state for L =  1
GHOST: No ghost state for L =  2

KBgen: Kleinman-Bylander projectors: 
   l= 0   rc=  2.036604   el= -0.477180   Ekb= -6.081590   kbcos= -0.277285
   l= 1   rc=  2.195416   el=  0.001076   Ekb= -0.926943   kbcos= -0.034643
   l= 2   rc=  2.251056   el=  0.002010   Ekb= -0.130941   kbcos= -0.009788

KBgen: Total number of Kleinman-Bylander projectors:    9
atom: -------------------------------------------------------------------------

atom: SANKEY-TYPE ORBITALS:
atom: Selected multiple-zeta basis: split     

SPLIT: Orbitals with angular momentum L= 0

SPLIT: Basis orbitals for state 1s

SPLIT: PAO cut-off radius determined from an
SPLIT: energy shift=  0.002000 Ry

   izeta = 1
                 lambda =    1.000000
                     rc =    6.518340
                 energy =   -0.475305
                kinetic =    0.912139
    potential(screened) =   -1.387444
       potential(ionic) =   -1.907295

   izeta = 2
                 rmatch =    2.141150
              splitnorm =    0.620000
                 energy =    0.566467
                kinetic =    3.772856
    potential(screened) =   -3.206389
       potential(ionic) =   -3.759093

POLgen: Perturbative polarization orbital with L=  1

POLgen: Polarization orbital for state 1s

   izeta = 1
                     rc =    6.518340
                 energy =    0.533861
                kinetic =    1.121086
    potential(screened) =   -0.587225
       potential(ionic) =   -1.053027
atom: Total number of Sankey-type orbitals:  5

atm_pop: Valence configuration (for local Pseudopot. screening):
 1s( 1.00)                                                            
Vna: chval, zval:    1.00000   1.00000

Vna:  Cut-off radius for the neutral-atom potential:   6.518340

atom: _________________________________________________________________________

<basis_specs>
===============================================================================
N                    Z=   7    Mass=  14.010        Charge= 0.17977+309
Lmxo=1 Lmxkb= 3    BasisType=split      Semic=F
L=0  Nsemic=0  Cnfigmx=2
          i=1  nzeta=2  polorb=0  (2s)
            splnorm:   0.28000    
               vcte:    0.0000    
               rinn:    0.0000    
               qcoe:    0.0000    
               qyuk:    0.0000    
               qwid:   0.10000E-01
                rcs:    0.0000      0.0000    
            lambdas:    1.0000      1.0000    
L=1  Nsemic=0  Cnfigmx=2
          i=1  nzeta=2  polorb=1  (2p)
            splnorm:   0.28000    
               vcte:    0.0000    
               rinn:    0.0000    
               qcoe:    0.0000    
               qyuk:    0.0000    
               qwid:   0.10000E-01
                rcs:    0.0000      0.0000    
            lambdas:    1.0000      1.0000    
-------------------------------------------------------------------------------
L=0  Nkbl=1  erefs: 0.17977+309
L=1  Nkbl=1  erefs: 0.17977+309
L=2  Nkbl=1  erefs: 0.17977+309
L=3  Nkbl=1  erefs: 0.17977+309
===============================================================================
</basis_specs>

atom: Called for N                     (Z =   7)

read_vps: Pseudopotential generation method:
read_vps: ATM4.2.7  Troullier-Martins                       
Valence charge for ps generation:    5.00000

xc_check: Exchange-correlation functional:
xc_check: GGA Perdew, Burke & Ernzerhof 1996
V l=0 = -2*Zval/r beyond r=  1.2889
V l=1 = -2*Zval/r beyond r=  1.2889
V l=2 = -2*Zval/r beyond r=  3.4178
V l=3 = -2*Zval/r beyond r=  2.4084
All V_l potentials equal beyond r=  3.3753
This should be close to max(r_c) in ps generation
All pots = -2*Zval/r beyond r=  3.4178

VLOCAL1: 99.0% of the norm of Vloc inside      3.810 Ry
VLOCAL1: 99.9% of the norm of Vloc inside      8.683 Ry
atom: Maximum radius for 4*pi*r*r*local-pseudopot. charge    4.02088
atom: Maximum radius for r*vlocal+2*Zval:    3.54838
GHOST: No ghost state for L =  0
GHOST: No ghost state for L =  1
GHOST: No ghost state for L =  2
GHOST: No ghost state for L =  3

KBgen: Kleinman-Bylander projectors: 
   l= 0   rc=  3.417763   el= -1.365098   Ekb= -4.433130   kbcos= -0.707855
   l= 1   rc=  3.375302   el= -0.521201   Ekb=-13.264039   kbcos= -0.535594
   l= 2   rc=  3.872880   el=  0.001991   Ekb= -0.641094   kbcos= -0.062456
   l= 3   rc=  3.970931   el=  0.003093   Ekb= -0.474517   kbcos= -0.018236

KBgen: Total number of Kleinman-Bylander projectors:   16
atom: -------------------------------------------------------------------------

atom: SANKEY-TYPE ORBITALS:
atom: Selected multiple-zeta basis: split     

SPLIT: Orbitals with angular momentum L= 0

SPLIT: Basis orbitals for state 2s

SPLIT: PAO cut-off radius determined from an
SPLIT: energy shift=  0.002000 Ry

   izeta = 1
                 lambda =    1.000000
                     rc =    4.730425
                 energy =   -1.363399
                kinetic =    1.245246
    potential(screened) =   -2.608645
       potential(ionic) =   -8.121105

   izeta = 2
                 rmatch =    2.531849
              splitnorm =    0.280000
                 energy =   -0.959908
                kinetic =    2.409435
    potential(screened) =   -3.369343
       potential(ionic) =   -9.427975

SPLIT: Orbitals with angular momentum L= 1

SPLIT: Basis orbitals for state 2p

SPLIT: PAO cut-off radius determined from an
SPLIT: energy shift=  0.002000 Ry

   izeta = 1
                 lambda =    1.000000
                     rc =    5.924108
                 energy =   -0.519262
                kinetic =    3.672940
    potential(screened) =   -4.192202
       potential(ionic) =   -9.518354

   izeta = 2
                 rmatch =    2.531849
              splitnorm =    0.280000
                 energy =   -0.104258
                kinetic =    6.807538
    potential(screened) =   -6.911796
       potential(ionic) =  -13.149920

POLgen: Perturbative polarization orbital with L=  2

POLgen: Polarization orbital for state 2p

   izeta = 1
                     rc =    5.924108
                 energy =    1.427508
                kinetic =    2.872379
    potential(screened) =   -1.444871
       potential(ionic) =   -5.563644
atom: Total number of Sankey-type orbitals: 13

atm_pop: Valence configuration (for local Pseudopot. screening):
 2s( 2.00)                                                            
 2p( 3.00)                                                            
Vna: chval, zval:    5.00000   5.00000

Vna:  Cut-off radius for the neutral-atom potential:   5.924108

atom: _________________________________________________________________________

<basis_specs>
===============================================================================
Si                   Z=  14    Mass=  28.090        Charge= 0.17977+309
Lmxo=1 Lmxkb= 3    BasisType=split      Semic=F
L=0  Nsemic=0  Cnfigmx=3
          i=1  nzeta=2  polorb=0  (3s)
            splnorm:   0.28000    
               vcte:    0.0000    
               rinn:    0.0000    
               qcoe:    0.0000    
               qyuk:    0.0000    
               qwid:   0.10000E-01
                rcs:    0.0000      0.0000    
            lambdas:    1.0000      1.0000    
L=1  Nsemic=0  Cnfigmx=3
          i=1  nzeta=2  polorb=1  (3p)
            splnorm:   0.28000    
               vcte:    0.0000    
               rinn:    0.0000    
               qcoe:    0.0000    
               qyuk:    0.0000    
               qwid:   0.10000E-01
                rcs:    0.0000      0.0000    
            lambdas:    1.0000      1.0000    
-------------------------------------------------------------------------------
L=0  Nkbl=1  erefs: 0.17977+309
L=1  Nkbl=1  erefs: 0.17977+309
L=2  Nkbl=1  erefs: 0.17977+309
L=3  Nkbl=1  erefs: 0.17977+309
===============================================================================
</basis_specs>

atom: Called for Si                    (Z =  14)

read_vps: Pseudopotential generation method:
read_vps: ATM4.2.7  Troullier-Martins                       
Valence charge for ps generation:    4.00000

xc_check: Exchange-correlation functional:
xc_check: GGA Perdew, Burke & Ernzerhof 1996
V l=0 = -2*Zval/r beyond r=  2.7826
V l=1 = -2*Zval/r beyond r=  2.7826
V l=2 = -2*Zval/r beyond r=  2.9253
V l=3 = -2*Zval/r beyond r=  2.7826
All V_l potentials equal beyond r=  2.8530
This should be close to max(r_c) in ps generation
All pots = -2*Zval/r beyond r=  2.9253

VLOCAL1: 99.0% of the norm of Vloc inside      5.333 Ry
VLOCAL1: 99.9% of the norm of Vloc inside     12.154 Ry
atom: Maximum radius for 4*pi*r*r*local-pseudopot. charge    3.39869
atom: Maximum radius for r*vlocal+2*Zval:    2.96205
GHOST: No ghost state for L =  0
GHOST: No ghost state for L =  1
GHOST: No ghost state for L =  2
GHOST: No ghost state for L =  3

KBgen: Kleinman-Bylander projectors: 
   l= 0   rc=  3.075247   el= -0.794092   Ekb=  5.879390   kbcos=  0.167461
   l= 1   rc=  3.153101   el= -0.300068   Ekb=  2.642817   kbcos=  0.058301
   l= 2   rc=  3.273594   el=  0.001958   Ekb= -1.185135   kbcos= -0.104411
   l= 3   rc=  3.232927   el=  0.003046   Ekb= -0.497174   kbcos= -0.015889

KBgen: Total number of Kleinman-Bylander projectors:   16
atom: -------------------------------------------------------------------------

atom: SANKEY-TYPE ORBITALS:
atom: Selected multiple-zeta basis: split     

SPLIT: Orbitals with angular momentum L= 0

SPLIT: Basis orbitals for state 3s

SPLIT: PAO cut-off radius determined from an
SPLIT: energy shift=  0.002000 Ry

   izeta = 1
                 lambda =    1.000000
                     rc =    6.429618
                 energy =   -0.792283
                kinetic =    0.525293
    potential(screened) =   -1.317576
       potential(ionic) =   -3.744923

   izeta = 2
                 rmatch =    3.998416
              splitnorm =    0.280000
                 energy =   -0.583081
                kinetic =    1.069570
    potential(screened) =   -1.652651
       potential(ionic) =   -4.235185

SPLIT: Orbitals with angular momentum L= 1

SPLIT: Basis orbitals for state 3p

SPLIT: PAO cut-off radius determined from an
SPLIT: energy shift=  0.002000 Ry

   izeta = 1
                 lambda =    1.000000
                     rc =    8.464845
                 energy =   -0.298236
                kinetic =    0.785360
    potential(screened) =   -1.083596
       potential(ionic) =   -3.273779

   izeta = 2
                 rmatch =    4.587816
              splitnorm =    0.280000
                 energy =   -0.131871
                kinetic =    1.403687
    potential(screened) =   -1.535557
       potential(ionic) =   -4.015310

POLgen: Perturbative polarization orbital with L=  2

POLgen: Polarization orbital for state 3p

   izeta = 1
                     rc =    8.464845
                 energy =    0.321949
                kinetic =    1.055677
    potential(screened) =   -0.733728
       potential(ionic) =   -2.672950
atom: Total number of Sankey-type orbitals: 13

atm_pop: Valence configuration (for local Pseudopot. screening):
 3s( 2.00)                                                            
 3p( 2.00)                                                            
Vna: chval, zval:    4.00000   4.00000

Vna:  Cut-off radius for the neutral-atom potential:   8.464845

atom: _________________________________________________________________________

<basis_specs>
===============================================================================
O                    Z=   8    Mass=  16.000        Charge= 0.17977+309
Lmxo=1 Lmxkb= 3    BasisType=split      Semic=F
L=0  Nsemic=0  Cnfigmx=2
          i=1  nzeta=2  polorb=0  (2s)
            splnorm:   0.28000    
               vcte:    0.0000    
               rinn:    0.0000    
               qcoe:    0.0000    
               qyuk:    0.0000    
               qwid:   0.10000E-01
                rcs:    0.0000      0.0000    
            lambdas:    1.0000      1.0000    
L=1  Nsemic=0  Cnfigmx=2
          i=1  nzeta=2  polorb=1  (2p)
            splnorm:   0.28000    
               vcte:    0.0000    
               rinn:    0.0000    
               qcoe:    0.0000    
               qyuk:    0.0000    
               qwid:   0.10000E-01
                rcs:    0.0000      0.0000    
            lambdas:    1.0000      1.0000    
-------------------------------------------------------------------------------
L=0  Nkbl=1  erefs: 0.17977+309
L=1  Nkbl=1  erefs: 0.17977+309
L=2  Nkbl=1  erefs: 0.17977+309
L=3  Nkbl=1  erefs: 0.17977+309
===============================================================================
</basis_specs>

atom: Called for O                     (Z =   8)

read_vps: Pseudopotential generation method:
read_vps: ATM4.2.7  Troullier-Martins                       
Valence charge for ps generation:    6.00000

xc_check: Exchange-correlation functional:
xc_check: GGA Perdew, Burke & Ernzerhof 1996
V l=0 = -2*Zval/r beyond r=  1.1000
V l=1 = -2*Zval/r beyond r=  1.1000
V l=2 = -2*Zval/r beyond r=  2.2154
V l=3 = -2*Zval/r beyond r=  1.1000
All V_l potentials equal beyond r=  2.2154
This should be close to max(r_c) in ps generation
All pots = -2*Zval/r beyond r=  2.2154

VLOCAL1: 99.0% of the norm of Vloc inside      8.845 Ry
VLOCAL1: 99.9% of the norm of Vloc inside     20.157 Ry
atom: Maximum radius for 4*pi*r*r*local-pseudopot. charge    2.67231
atom: Maximum radius for r*vlocal+2*Zval:    2.32897
GHOST: No ghost state for L =  0
GHOST: No ghost state for L =  1
GHOST: No ghost state for L =  2
GHOST: No ghost state for L =  3

KBgen: Kleinman-Bylander projectors: 
   l= 0   rc=  2.243238   el= -1.759686   Ekb=**********   kbcos= -0.171774
   l= 1   rc=  2.328968   el= -0.663873   Ekb=-14.506792   kbcos= -0.519897
   l= 2   rc=  2.573941   el=  0.002031   Ekb= -1.137373   kbcos= -0.019581
   l= 3   rc=  2.606321   el=  0.003153   Ekb= -1.013546   kbcos= -0.003122

KBgen: Total number of Kleinman-Bylander projectors:   16
atom: -------------------------------------------------------------------------

atom: SANKEY-TYPE ORBITALS:
atom: Selected multiple-zeta basis: split     

SPLIT: Orbitals with angular momentum L= 0

SPLIT: Basis orbitals for state 2s

SPLIT: PAO cut-off radius determined from an
SPLIT: energy shift=  0.002000 Ry

   izeta = 1
                 lambda =    1.000000
                     rc =    4.243912
                 energy =   -1.758270
                kinetic =    3.286084
    potential(screened) =   -5.044353
       potential(ionic) =  -12.921184

   izeta = 2
                 rmatch =    2.187845
              splitnorm =    0.280000
                 energy =   -0.885018
                kinetic =    8.134434
    potential(screened) =   -9.019452
       potential(ionic) =  -17.710645

SPLIT: Orbitals with angular momentum L= 1

SPLIT: Basis orbitals for state 2p

SPLIT: PAO cut-off radius determined from an
SPLIT: energy shift=  0.002000 Ry

   izeta = 1
                 lambda =    1.000000
                     rc =    5.314825
                 energy =   -0.661986
                kinetic =    4.917472
    potential(screened) =   -5.579458
       potential(ionic) =  -13.236259

   izeta = 2
                 rmatch =    2.160663
              splitnorm =    0.280000
                 energy =   -0.068760
                kinetic =    9.183374
    potential(screened) =   -9.252135
       potential(ionic) =  -18.274251

POLgen: Perturbative polarization orbital with L=  2

POLgen: Polarization orbital for state 2p

   izeta = 1
                     rc =    5.314825
                 energy =    1.970580
                kinetic =    3.886128
    potential(screened) =   -1.915547
       potential(ionic) =   -7.749584
atom: Total number of Sankey-type orbitals: 13

atm_pop: Valence configuration (for local Pseudopot. screening):
 2s( 2.00)                                                            
 2p( 4.00)                                                            
Vna: chval, zval:    6.00000   6.00000

Vna:  Cut-off radius for the neutral-atom potential:   5.314825

atom: _________________________________________________________________________

prinput: Basis input ----------------------------------------------------------

PAO.BasisType split     

%block ChemicalSpeciesLabel
    1    1 H                       # Species index, atomic number, species label
    2    7 N                       # Species index, atomic number, species label
    3   14 Si                      # Species index, atomic number, species label
    4    8 O                       # Species index, atomic number, species label
%endblock ChemicalSpeciesLabel

%block PAO.Basis                 # Define Basis set
H                     1                    # Species label, number of l-shells
 n=1   0   2 P   1                   # n, l, Nzeta, Polarization, NzetaPol
   6.518      2.141   
   1.000      1.000   
N                     2                    # Species label, number of l-shells
 n=2   0   2                         # n, l, Nzeta 
   4.730      2.532   
   1.000      1.000   
 n=2   1   2 P   1                   # n, l, Nzeta, Polarization, NzetaPol
   5.924      2.532   
   1.000      1.000   
Si                    2                    # Species label, number of l-shells
 n=3   0   2                         # n, l, Nzeta 
   6.430      3.998   
   1.000      1.000   
 n=3   1   2 P   1                   # n, l, Nzeta, Polarization, NzetaPol
   8.465      4.588   
   1.000      1.000   
O                     2                    # Species label, number of l-shells
 n=2   0   2                         # n, l, Nzeta 
   4.244      2.188   
   1.000      1.000   
 n=2   1   2 P   1                   # n, l, Nzeta, Polarization, NzetaPol
   5.315      2.161   
   1.000      1.000   
%endblock PAO.Basis

prinput: ----------------------------------------------------------------------

Dumping basis to NetCDF file H.ion.nc
Dumping basis to NetCDF file N.ion.nc
Dumping basis to NetCDF file Si.ion.nc
Dumping basis to NetCDF file O.ion.nc
coor:   Atomic-coordinates input format  =     Cartesian coordinates
coor:                                          (in Angstroms)

siesta: Atomic coordinates (Bohr) and species
siesta:      2.07644   6.61714  -0.00000  1        1
siesta:      0.74138   5.12419  -0.00000  2        2
siesta:     -2.52839   5.95825   0.00000  3        3
siesta:     -2.82278   8.77392   0.00000  1        4
siesta:     -5.40706   3.01234  -0.00000  3        5
siesta:     -8.20988   3.47122  -0.00000  1        6
siesta:     -3.14242  -0.60323  -0.00000  3        7
siesta:     -4.59000  -3.49965  -0.00000  2        8
siesta:     -3.47460  -5.30852   0.00000  1        9
siesta:     -6.57728  -3.65170  -0.00000  1       10
siesta:      0.10072  -0.49897   0.00000  2       11
siesta:      2.13222   2.01501  -0.00000  3       12
siesta:      5.17218   1.97946  -0.00000  4       13
siesta:     10.61355 -14.07759   0.00000  1       14
siesta:      8.65886 -13.66658   0.00000  2       15
siesta:      6.22979 -16.04876   0.00000  3       16
siesta:      7.18318 -18.71532  -0.00000  1       17
siesta:      3.13570 -15.14356   0.00000  2       18
siesta:      3.17659 -11.72506  -0.00000  3       19
siesta:      1.03072  -8.10005   0.00000  3       20
siesta:     -1.95457  -7.45403   0.00000  4       21
siesta:      3.27352  -5.43711   0.00000  2       22
siesta:      2.28576  -3.64645  -0.00000  1       23
siesta:      6.63017  -5.24735   0.00000  3       24
siesta:      7.81751  -2.22872   0.00000  2       25
siesta:      6.69523  -0.49602   0.00000  1       26
siesta:      9.79567  -1.98858  -0.00000  1       27
siesta:      8.75489  -7.70105  -0.00000  2       28
siesta:      7.16982 -10.55666   0.00000  3       29

siesta: Automatic unit cell vectors (Ang):
siesta:   18.545601    0.000000    0.000000
siesta:    0.000000   23.589929    0.000000
siesta:    0.000000    0.000000    9.854683

siesta: System type = molecule  

initatomlists: Number of atoms, orbitals, and projectors:     29   297   394

siesta: ******************** Simulation parameters ****************************
siesta:
siesta: The following are some of the parameters of the simulation.
siesta: A complete list of the parameters used, including default values,
siesta: can be found in file out.fdf
siesta:
redata: Spin configuration                          = spin-orbit
redata: Number of spin components                   = 8
redata: Time-Reversal Symmetry                      = F
redata: Spin spiral                                 = F
############################################################
This spin-orbit implementation uses a local approximation.
From 4.2 and onwards the full non-local approximation is implemented
You are strongly advised to use >=4.2 versions!
############################################################
redata: Long output                                 =   F
redata: Number of Atomic Species                    =        4
redata: Charge density info will appear in .RHO file
redata: Write Mulliken Pop.                         = NO
redata: Matel table size (NRTAB)                    =     1024
redata: Mesh Cutoff                                 =   340.0000 Ry
redata: Net charge of the system                    =     0.0000 |e|
redata: Min. number of SCF Iter                     =        1
redata: Max. number of SCF Iter                     =      600
redata: SCF convergence failure will abort job
redata: SCF mix quantity                            = Hamiltonian
redata: Mix DM or H after convergence               =   F
redata: Recompute H after scf cycle                 =   F
redata: Mix DM in first SCF step                    =   T
redata: Write Pulay info on disk                    =   F
redata: New DM Occupancy tolerance                  = 0.000000000001
redata: No kicks to SCF
redata: DM Mixing Weight for Kicks                  =     0.5000
redata: Require Harris convergence for SCF          =   F
redata: Harris energy tolerance for SCF             =     0.000100 eV
redata: Require DM convergence for SCF              =   T
redata: DM tolerance for SCF                        =     0.000008
redata: Require EDM convergence for SCF             =   F
redata: EDM tolerance for SCF                       =     0.001000 eV
redata: Require H convergence for SCF               =   T
redata: Hamiltonian tolerance for SCF               =     0.000001 eV
redata: Require (free) Energy convergence for SCF   =   F
redata: (free) Energy tolerance for SCF             =     0.000100 eV
redata: Using Saved Data (generic)                  =   F
redata: Use continuation files for DM               =   T
redata: Neglect nonoverlap interactions             =   F
redata: Method of Calculation                       = Diagonalization
redata: Electronic Temperature                      =   299.9978 K
redata: Fix the spin of the system                  =   F
redata: Dynamics option                             = Single-point calculation
mix.SCF: Pulay mixing                            = Pulay
mix.SCF:    Variant                              = stable
mix.SCF:    History steps                        = 6
mix.SCF:    Linear mixing weight                 =     0.250000
mix.SCF:    Mixing weight                        =     0.250000
mix.SCF:    SVD condition                        = 0.1000E-07
mix.SCF:    Restart steps                        = 24
mix.SCF:    Restart save steps                   = 3
mix.SCF: Spin-component mixing                   all
redata: Save all siesta data in one NC              =   F
redata: ***********************************************************************

%block SCF.Mixers
  Pulay
%endblock SCF.Mixers

%block SCF.Mixer.Pulay
  # Mixing method
  method pulay
  variant stable

  # Mixing options
  weight 0.2500
  weight.linear 0.2500
  history 6
  restart 24
  restart.save 3
%endblock SCF.Mixer.Pulay

DM_history_depth set to one: no extrapolation allowed by default for geometry relaxation
Size of DM history Fstack: 1
Total number of electrons:    98.000000
Total ionic charge:    98.000000

* ProcessorY, Blocksize:    2  24


* Orbital distribution balance (max,min):    57    48


Time-reversal symmetry not used.

siesta: k-grid: Number of k-points =     1
siesta: k-grid: Cutoff (effective) =     4.927 Ang
siesta: k-grid: Supercell and displacements
siesta: k-grid:    1   0   0      0.000
siesta: k-grid:    0   1   0      0.000
siesta: k-grid:    0   0   1      0.000

diag: Algorithm                                     = ELPA-1stage
diag: Parallel over k                               =   F
diag: Use parallel 2D distribution                  =   T
diag: Parallel block-size                           = 24
diag: Parallel distribution                         =     2 x     3
diag: Used triangular part                          = Lower
diag: Absolute tolerance                            =  0.100E-15
diag: Orthogonalization factor                      =  0.100E-05
diag: Memory factor                                 =  1.0000


ts: **************************************************************
ts: Save H and S matrices                           =    F
ts: Save DM and EDM matrices                        =    F
ts: Only save the overlap matrix S                  =    F
ts: **************************************************************

************************ Begin: TS CHECKS AND WARNINGS ************************
************************ End: TS CHECKS AND WARNINGS **************************


                     ====================================
                        Single-point calculation
                     ====================================

outcoor: Atomic coordinates (Ang):                          
    1.09880544    3.50163932    0.00000000   1       1  H
    0.39231871    2.71160314    0.00000000   2       2  N
   -1.33796820    3.15296705    0.00000000   3       3  Si
   -1.49374788    4.64295931    0.00000000   1       4  H
   -2.86128982    1.59405953    0.00000000   3       5  Si
   -4.34447745    1.83688989    0.00000000   1       6  H
   -1.66289896   -0.31921663    0.00000000   3       7  Si
   -2.42892442   -1.85193337    0.00000000   2       8  N
   -1.83867787   -2.80914640    0.00000000   1       9  H
   -3.48054674   -1.93239360    0.00000000   1      10  H
    0.05330110   -0.26404232    0.00000000   2      11  N
    1.12832372    1.06629652    0.00000000   3      12  Si
    2.73699704    1.04748626    0.00000000   4      13  O
    5.61644830   -7.44953905    0.00000000   1      14  H
    4.58206954   -7.23203760    0.00000000   2      15  N
    3.29666389   -8.49263600    0.00000000   3      16  Si
    3.80117524   -9.90371886    0.00000000   1      17  H
    1.65934232   -8.01362137    0.00000000   2      18  N
    1.68097912   -6.20463398    0.00000000   3      19  Si
    0.54543521   -4.28636135    0.00000000   3      20  Si
   -1.03431493   -3.94450034    0.00000000   4      21  O
    1.73226934   -2.87719605    0.00000000   2      22  N
    1.20957366   -1.92961761    0.00000000   1      23  H
    3.50853448   -2.77677601    0.00000000   3      24  Si
    4.13684451   -1.17938608    0.00000000   2      25  N
    3.54296161   -0.26248101    0.00000000   1      26  H
    5.18364407   -1.05231197    0.00000000   1      27  H
    4.63288658   -4.07521596    0.00000000   2      28  N
    3.79410501   -5.58634043    0.00000000   3      29  Si

outcell: Unit cell vectors (Ang):
       18.545601    0.000000    0.000000
        0.000000   23.589929    0.000000
        0.000000    0.000000    9.854683

outcell: Cell vector modules (Ang)   :   18.545601   23.589929    9.854683
outcell: Cell angles (23,13,12) (deg):     90.0000     90.0000     90.0000
outcell: Cell volume (Ang**3)        :   4311.3196
<dSpData1D:S at geom step 0
  <sparsity:sparsity for geom step 0
    nrows_g=297 nrows=57 sparsity=.1418 nnzs=12505, refcount: 8>
  <dData1D:(new from dSpData1D) n=12505, refcount: 1>
refcount: 1>
new_DM -- step:     1
Initializing Density Matrix...

Attempting to read DM from file... Failed...
DM filled with atomic data:
<dSpData2D:DM initialized from atoms
  <sparsity:sparsity for geom step 0
    nrows_g=297 nrows=57 sparsity=.1418 nnzs=12505, refcount: 9>
  <dData2D:DM n=12505 m=8, refcount: 1>
refcount: 1>
     spin moment: S , {S} =   56.00000   0.00000   0.00000  56.00000
No. of atoms with KB's overlaping orbs in proc 0. Max # of overlaps:      28     214

Initializing spin-orbit part of the Hamiltonian
  Adding spin-orbit effects for H 
  Adding spin-orbit effects for N 
  Adding spin-orbit effects for Si
  Adding spin-orbit effects for O 


New grid distribution:   1
           1       1:  108    1:   68    1:   20
           2       1:  108    1:   68   21:   40
           3       1:  108    1:   68   41:   60
           4       1:  108   69:  135    1:   20
           5       1:  108   69:  135   21:   40
           6       1:  108   69:  135   41:   60

InitMesh: MESH =   216 x   270 x   120 =     6998400
InitMesh: (bp) =   108 x   135 x    60 =      874800
InitMesh: Mesh cutoff (required, used) =   340.000   362.056 Ry
ExtMesh (bp) on 0 =   216 x   172 x   132 =     4904064
New grid distribution:   2
           1      16:  108   25:  104    1:   60
           2      16:  108  122:  135    1:   60
           3       1:   15  105:  135    1:   60
           4      16:  108  105:  121    1:   60
           5      16:  108    1:   24    1:   60
           6       1:   15    1:  104    1:   60
New grid distribution:   3
           1      21:  108   22:   88    1:   60
           2      21:  108    1:   21    1:   60
           3       1:   23   89:  135    1:   60
           4      24:  108  116:  135    1:   60
           5      24:  108   89:  115    1:   60
           6       1:   20    1:   88    1:   60
Setting up quadratic distribution...
ExtMesh (bp) on 0 =   201 x   184 x   172 =     6361248
PhiOnMesh: Number of (b)points on node 0 =               446400
PhiOnMesh: nlist on node 0 =              2167606

stepf: Fermi-Dirac step function

siesta: Program's energy decomposition (eV):
siesta: Ebs     =      -615.035138
siesta: Eions   =      3585.165840
siesta: Ena     =       381.650013
siesta: Ekin    =      3365.771760
siesta: Enl     =     -3295.542534
siesta: Eso     =        -0.003457
siesta: Edftu   =         0.000000
siesta: DEna    =       155.244205
siesta: DUscf   =        77.813822
siesta: DUext   =         0.000000
siesta: Exc     =     -1204.474644
siesta: eta*DQ  =         0.000000
siesta: Emadel  =         0.000000
siesta: Emeta   =         0.000000
siesta: Emolmec =         0.000000
siesta: Ekinion =         0.000000
siesta: Eharris =     -4027.793366
siesta: Etot    =     -4104.706676
siesta: FreeEng =     -4104.707717

        iscf     Eharris(eV)        E_KS(eV)     FreeEng(eV)     dDmax    Ef(eV) dHmax(eV)
   scf:    1    -4027.793366    -4104.706676    -4104.707717  0.955088 -4.907271 19.555607
     spin moment: S , {S} =    2.00577   0.00000  -0.00000   2.00577
timer: Routine,Calls,Time,% = IterSCF        1       5.774  22.28
   scf:    2    -4150.776979    -4138.805562    -4138.808276  0.470245 -4.187400 10.830177
     spin moment: S , {S} =    1.98407  -0.00000   0.00000   1.98407
   scf:    3    -4112.654986    -4136.130562    -4136.145146  0.432906 -4.271172 11.258379
     spin moment: S , {S} =    2.00012   0.00000   0.00000   2.00012
   scf:    4    -4151.469712    -4146.685814    -4146.685815  0.328820 -3.884302  5.821166
     spin moment: S , {S} =    0.00009  -0.00000  -0.00000   0.00009
   scf:    5    -4147.828469    -4147.353040    -4147.353040  0.036942 -3.690945  4.419027
     spin moment: S , {S} =    0.00006  -0.00000  -0.00000   0.00006
   scf:    6    -4148.162400    -4147.760836    -4147.760836  0.025996 -3.591379  2.172028
     spin moment: S , {S} =    0.00003   0.00000  -0.00000   0.00003
   scf:    7    -4148.131042    -4147.946906    -4147.946906  0.021701 -3.676331  0.811430
     spin moment: S , {S} =    0.00001  -0.00000  -0.00000   0.00001
   scf:    8    -4148.059975    -4148.002180    -4148.002180  0.012102 -3.770346  0.434570
     spin moment: S , {S} =    0.00000   0.00000   0.00000   0.00000
   scf:    9    -4148.042292    -4148.021644    -4148.021644  0.007229 -3.753462  0.278743
     spin moment: S , {S} =    0.00000   0.00000   0.00000   0.00000
   scf:   10    -4148.065316    -4148.040673    -4148.040673  0.014929 -3.789439  0.128664
     spin moment: S , {S} =    0.00000  -0.00000  -0.00000  -0.00000
   scf:   11    -4148.044916    -4148.042645    -4148.042645  0.005176 -3.783192  0.054514
     spin moment: S , {S} =    0.00000   0.00000  -0.00000   0.00000
   scf:   12    -4148.043799    -4148.043204    -4148.043204  0.002428 -3.779045  0.034802
     spin moment: S , {S} =    0.00000  -0.00000   0.00000   0.00000
   scf:   13    -4148.043989    -4148.043571    -4148.043571  0.002246 -3.778362  0.028013
     spin moment: S , {S} =    0.00000  -0.00000   0.00000   0.00000
   scf:   14    -4148.044296    -4148.043890    -4148.043890  0.002971 -3.775997  0.017328
     spin moment: S , {S} =    0.00000  -0.00000   0.00000   0.00000
   scf:   15    -4148.044272    -4148.044044    -4148.044044  0.002752 -3.777509  0.008674
     spin moment: S , {S} =    0.00000  -0.00000  -0.00000   0.00000
   scf:   16    -4148.044123    -4148.044075    -4148.044075  0.001338 -3.777826  0.004526
     spin moment: S , {S} =    0.00000  -0.00000  -0.00000   0.00000
   scf:   17    -4148.044090    -4148.044081    -4148.044081  0.000527 -3.778042  0.002592
     spin moment: S , {S} =    0.00000  -0.00000  -0.00000  -0.00000
   scf:   18    -4148.044087    -4148.044084    -4148.044084  0.000293 -3.778117  0.001387
     spin moment: S , {S} =    0.00000  -0.00000  -0.00000  -0.00000
   scf:   19    -4148.044086    -4148.044085    -4148.044085  0.000162 -3.778095  0.000733
     spin moment: S , {S} =    0.00000  -0.00000  -0.00000  -0.00000
   scf:   20    -4148.044086    -4148.044085    -4148.044085  0.000084 -3.778023  0.000405
     spin moment: S , {S} =    0.00000  -0.00000  -0.00000  -0.00000
   scf:   21    -4148.044086    -4148.044085    -4148.044085  0.000104 -3.777962  0.000192
     spin moment: S , {S} =    0.00000  -0.00000  -0.00000  -0.00000
   scf:   22    -4148.044085    -4148.044085    -4148.044085  0.000011 -3.777944  0.000086
     spin moment: S , {S} =    0.00000  -0.00000  -0.00000  -0.00000
   scf:   23    -4148.044085    -4148.044085    -4148.044085  0.000006 -3.777942  0.000046
     spin moment: S , {S} =    0.00000  -0.00000  -0.00000  -0.00000
   scf:   24    -4148.044085    -4148.044085    -4148.044085  0.000005 -3.777939  0.000023
     spin moment: S , {S} =    0.00000  -0.00000  -0.00000  -0.00000
mix: Pulay -- resetting history
   scf:   25    -4148.044085    -4148.044085    -4148.044085  0.000003 -3.777937  0.000013
     spin moment: S , {S} =    0.00000  -0.00000  -0.00000  -0.00000
   scf:   26    -4148.044085    -4148.044085    -4148.044085  0.000001 -3.777936  0.000009
     spin moment: S , {S} =    0.00000  -0.00000  -0.00000   0.00000
   scf:   27    -4148.044085    -4148.044085    -4148.044085  0.000001 -3.777936  0.000004
     spin moment: S , {S} =    0.00000  -0.00000  -0.00000   0.00000
   scf:   28    -4148.044085    -4148.044085    -4148.044085  0.000000 -3.777936  0.000002
     spin moment: S , {S} =    0.00000  -0.00000  -0.00000   0.00000
   scf:   29    -4148.044085    -4148.044085    -4148.044085  0.000000 -3.777936  0.000002
     spin moment: S , {S} =    0.00000  -0.00000  -0.00000   0.00000
   scf:   30    -4148.044085    -4148.044085    -4148.044085  0.000000 -3.777936  0.000001
     spin moment: S , {S} =    0.00000  -0.00000  -0.00000   0.00000
   scf:   31    -4148.044085    -4148.044085    -4148.044085  0.000000 -3.777936  0.000001
     spin moment: S , {S} =    0.00000  -0.00000  -0.00000   0.00000

SCF Convergence by DM+H criterion
max |DM_out - DM_in|         :     0.0000001053
max |H_out - H_in|      (eV) :     0.0000007888
SCF cycle converged after 31 iterations

Using DM_out to compute the final energy and forces
No. of atoms with KB's overlaping orbs in proc 0. Max # of overlaps:      28     214

siesta: E_KS(eV) =            -4148.0441

siesta: E_KS - E_eggbox =     -4148.0441
     spin moment: S , {S} =    0.00000  -0.00000  -0.00000   0.00000

siesta: Atomic forces (eV/Ang):
     1    0.116992   -0.044333    0.000000
     2    0.110634   -0.041569   -0.000000
     3   -0.060761    0.010745   -0.000000
     4    0.038200    0.099232    0.000000
     5    0.035353    0.031660   -0.000000
     6    0.009378    0.026890    0.000000
     7   -0.196362   -0.098142   -0.000000
     8   -0.399509    0.729148    0.000000
     9    0.210201   -0.194519   -0.000000
    10   -0.012928    0.083511   -0.000000
    11    0.156382    0.047318    0.000000
    12   -0.157084    0.077308   -0.000000
    13    1.038940    0.482882   -0.000000
    14   -0.012710    0.065567   -0.000000
    15   -0.021597    0.004591    0.000000
    16   -0.004815    0.006121    0.000000
    17   -0.083908    0.061817   -0.000000
    18   -0.005721    0.003931   -0.000000
    19   -0.038998   -0.004207   -0.000000
    20    0.217328   -0.020588   -0.000000
    21    1.448583    1.470016    0.000000
    22    0.022161   -0.195525   -0.000000
    23   -0.150431    0.069833   -0.000000
    24    0.066228    0.096938    0.000000
    25    0.235468   -0.466519   -0.000000
    26   -0.131085    0.160672    0.000000
    27   -0.079858   -0.075865    0.000000
    28   -0.003470   -0.092493   -0.000000
    29    0.041891    0.049781    0.000000
----------------------------------------
   Tot    2.388501    2.344199   -0.000000
----------------------------------------
   Max    1.470016
   Res    0.283488    sqrt( Sum f_i^2 / 3N )
----------------------------------------
   Max    1.470016    constrained

Stress tensor Voigt[x,y,z,yz,xz,xy] (kbar):        0.01       -1.24       -0.12       -0.00       -0.00        0.81
(Free)E + p*V (eV/cell)    -4146.8379
Target enthalpy (eV/cell)    -4148.0441

siesta: Eigenvalues (eV):
ik =     1
  -22.9837  -22.9837  -22.7120  -22.7120  -21.4710  -21.4710  -21.2450  -21.2450  -20.8937  -20.8937
  -20.5794  -20.5794  -20.1929  -20.1929  -19.6498  -19.6498  -19.4754  -19.4754  -19.3758  -19.3758
  -14.7797  -14.7797  -13.8442  -13.8442  -13.2504  -13.2504  -13.0971  -13.0971  -13.0297  -13.0297
  -12.6898  -12.6898  -12.5609  -12.5609  -12.0862  -12.0862  -11.8871  -11.8871  -11.7281  -11.7281
  -11.0206  -11.0206  -10.8261  -10.8261  -10.6218  -10.6218  -10.3457  -10.3457  -10.1811  -10.1811
   -9.7248   -9.7248   -9.1474   -9.1474   -8.9854   -8.9854   -8.8517   -8.8517   -8.7115   -8.7115
   -8.4625   -8.4625   -8.4090   -8.4090   -8.4065   -8.4065   -7.9759   -7.9759   -7.8801   -7.8801
   -7.5867   -7.5867   -7.3880   -7.3880   -7.3732   -7.3732   -7.1764   -7.1764   -6.9630   -6.9630
   -6.7790   -6.7790   -6.6563   -6.6563   -6.4747   -6.4747   -6.4484   -6.4484   -6.2624   -6.2624
   -6.0357   -6.0357   -5.9621   -5.9621   -5.5480   -5.5480   -4.3408   -4.3408   -3.2147   -3.2147
   -2.3914   -2.3914   -2.3425   -2.3425   -2.2164   -2.2164   -1.9168   -1.9168   -1.8757   -1.8757
   -1.8644   -1.8644   -1.6555   -1.6555   -1.6175   -1.6175   -1.2453   -1.2453   -1.1555   -1.1555
   -0.9979   -0.9979   -0.5486   -0.5486   -0.5005   -0.5005   -0.3512   -0.3512    0.4269    0.4269
    0.4324    0.4324    0.5492    0.5492    0.6550    0.6550    0.9846    0.9846    1.1223    1.1223
    1.4150    1.4150    1.4270    1.4270    1.4723    1.4723    1.5590    1.5590    2.0044    2.0044
    2.1795    2.1795    2.6087    2.6087    2.6804    2.6804    2.7685    2.7685    2.8708    2.8708
    2.9865    2.9865    3.1964    3.1964    3.3565    3.3565    3.3970    3.3970    3.5675    3.5675
    3.8214    3.8214    4.0124    4.0124    4.0825    4.0825    4.1845    4.1845    4.4316    4.4316
    4.5366    4.5366    4.6841    4.6841    4.7441    4.7441    5.0677    5.0677    5.2340    5.2340
    5.2964    5.2964    5.3836    5.3836    5.6836    5.6836    5.8815    5.8815    5.8852    5.8852
    5.9378    5.9378    6.3877    6.3877    6.4067    6.4067    6.5569    6.5569    6.6368    6.6368
    6.8246    6.8246    7.0265    7.0265    7.0947    7.0947    7.2110    7.2110    7.2162    7.2162
    7.4162    7.4162    7.7059    7.7059    7.7346    7.7346    8.0580    8.0580    8.0788    8.0788
    8.2388    8.2388    8.5516    8.5516    8.6676    8.6676    8.7147    8.7147    8.7584    8.7584
    8.8168    8.8168    9.0769    9.0769    9.0962    9.0962    9.2852    9.2852    9.4045    9.4045
    9.6934    9.6934    9.9131    9.9131    9.9937    9.9937   10.1221   10.1221   10.2628   10.2628
   10.3901   10.3901   10.7288   10.7288   10.8821   10.8821   11.2468   11.2468   11.2829   11.2829
   11.3696   11.3696   11.7287   11.7287   12.3956   12.3956   12.4362   12.4362   12.4766   12.4766
   12.4906   12.4906   12.6167   12.6167   12.9785   12.9785   13.1517   13.1517   13.4195   13.4195
   13.6058   13.6058   13.7895   13.7895   14.0926   14.0926   14.1168   14.1168   14.2133   14.2133
   14.2957   14.2957   14.6256   14.6256   14.9595   14.9595   15.0951   15.0951   15.1461   15.1461
   15.4967   15.4967   16.3944   16.3944   16.7204   16.7204   16.7961   16.7961   16.8512   16.8512
   17.2698   17.2698   17.6887   17.6887   18.3213   18.3213   18.5605   18.5605   19.0565   19.0565
   19.3273   19.3273   20.2208   20.2208   20.2875   20.2875   20.4985   20.4985   20.7807   20.7807
   21.3236   21.3236   22.0819   22.0819   22.3102   22.3102   22.7279   22.7279   23.6336   23.6336
   23.7321   23.7321   24.1026   24.1026   24.1505   24.1505   24.8651   24.8651   25.2853   25.2853
   26.0384   26.0384   26.2530   26.2530   26.8425   26.8425   27.7569   27.7569   28.8269   28.8269
   29.5805   29.5805   29.8178   29.8178   30.1251   30.1251   30.3699   30.3699   30.7290   30.7290
   30.9167   30.9167   30.9563   30.9563   31.3989   31.3989   31.6914   31.6914   31.7726   31.7726
   33.2088   33.2088   33.5267   33.5267   33.9078   33.9078   33.9625   33.9625   34.5964   34.5964
   35.2524   35.2524   35.3501   35.3501   35.9229   35.9229   36.1228   36.1228   36.3872   36.3872
   37.0470   37.0470   37.4078   37.4078   37.4240   37.4240   37.6631   37.6631   38.7337   38.7337
   39.0153   39.0153   39.2031   39.2031   39.8023   39.8023   40.0182   40.0182   40.3577   40.3577
   40.6818   40.6818   40.7897   40.7897   41.6414   41.6414   41.7530   41.7530   42.0882   42.0882
   42.3350   42.3350   42.9757   42.9757   43.2429   43.2429   43.4375   43.4375   44.1043   44.1043
   44.2868   44.2868   44.4917   44.4917   44.5453   44.5453   45.1085   45.1085   45.1152   45.1152
   45.4103   45.4103   45.7671   45.7671   46.5350   46.5350   46.7198   46.7198   47.0333   47.0333
   47.3463   47.3463   47.8757   47.8757   49.1766   49.1766   49.8685   49.8685   50.1420   50.1420
   50.2685   50.2685   50.4874   50.4874   50.5542   50.5542   50.8130   50.8130   51.4764   51.4764
   51.9533   51.9533   52.2128   52.2128   52.7302   52.7302   53.5688   53.5688   54.2061   54.2061
   54.4573   54.4573   54.7332   54.7332   55.6399   55.6399   55.7809   55.7809   56.3686   56.3686
   56.4867   56.4867   57.0342   57.0342   58.3276   58.3276   58.6368   58.6368   59.7403   59.7403
   60.3073   60.3073   60.3300   60.3300   61.3242   61.3242   61.6954   61.6954   62.4369   62.4369
   62.8075   62.8075   63.2132   63.2132   63.3024   63.3024   64.7833   64.7833   66.2245   66.2245
   67.1633   67.1633   67.9798   67.9798   70.5655   70.5655   70.7417   70.7417   71.2205   71.2205
   71.9892   71.9892   72.5692   72.5692   74.4489   74.4489   75.7848   75.7848   88.8030   88.8030
   91.0924   91.0924   91.3065   91.3065   94.6086   94.6086   97.0170   97.0170   98.2003   98.2003
  102.1309  102.1309  102.7927  102.7927  103.4594  103.4594  104.7793  104.7793  106.7960  106.7960
  116.2130  116.2130  118.7384  118.7384  125.2979  125.2979  128.6251  128.6251  139.3781  139.3781
  145.8095  145.8095  147.7379  147.7379
siesta: Fermi energy =      -3.777936 eV

siesta: Program's energy decomposition (eV):
siesta: Ebs     =     -1136.152735
siesta: Eions   =      3585.165840
siesta: Ena     =       381.650013
siesta: Ekin    =      2913.563914
siesta: Enl     =     -2796.625857
siesta: Eso     =        -0.004329
siesta: Edftu   =         0.000000
siesta: DEna    =        48.156704
siesta: DUscf   =        13.675038
siesta: DUext   =         0.000000
siesta: Exc     =     -1123.293728
siesta: eta*DQ  =         0.000000
siesta: Emadel  =         0.000000
siesta: Emeta   =         0.000000
siesta: Emolmec =         0.000000
siesta: Ekinion =         0.000000
siesta: Eharris =     -4148.044085
siesta: Etot    =     -4148.044085
siesta: FreeEng =     -4148.044085

siesta: Final energy (eV):
siesta:  Band Struct. =   -1136.152735
siesta:       Kinetic =    2913.563914
siesta:       Hartree =    9077.007741
siesta:       Edftu   =       0.000000
siesta:       Eso     =      -0.004329
siesta:    Ext. field =       0.000000
siesta:   Exch.-corr. =   -1123.293728
siesta:  Ion-electron =  -20745.312662
siesta:       Ion-ion =    5729.994979
siesta:       Ekinion =       0.000000
siesta:         Total =   -4148.044085
siesta:         Fermi =      -3.777936

siesta: Atomic forces (eV/Ang):
siesta:      1    0.116992   -0.044333    0.000000
siesta:      2    0.110634   -0.041569   -0.000000
siesta:      3   -0.060761    0.010745   -0.000000
siesta:      4    0.038200    0.099232    0.000000
siesta:      5    0.035353    0.031660   -0.000000
siesta:      6    0.009378    0.026890    0.000000
siesta:      7   -0.196362   -0.098142   -0.000000
siesta:      8   -0.399509    0.729148    0.000000
siesta:      9    0.210201   -0.194519   -0.000000
siesta:     10   -0.012928    0.083511   -0.000000
siesta:     11    0.156382    0.047318    0.000000
siesta:     12   -0.157084    0.077308   -0.000000
siesta:     13    1.038940    0.482882   -0.000000
siesta:     14   -0.012710    0.065567   -0.000000
siesta:     15   -0.021597    0.004591    0.000000
siesta:     16   -0.004815    0.006121    0.000000
siesta:     17   -0.083908    0.061817   -0.000000
siesta:     18   -0.005721    0.003931   -0.000000
siesta:     19   -0.038998   -0.004207   -0.000000
siesta:     20    0.217328   -0.020588   -0.000000
siesta:     21    1.448583    1.470016    0.000000
siesta:     22    0.022161   -0.195525   -0.000000
siesta:     23   -0.150431    0.069833   -0.000000
siesta:     24    0.066228    0.096938    0.000000
siesta:     25    0.235468   -0.466519   -0.000000
siesta:     26   -0.131085    0.160672    0.000000
siesta:     27   -0.079858   -0.075865    0.000000
siesta:     28   -0.003470   -0.092493   -0.000000
siesta:     29    0.041891    0.049781    0.000000
siesta: ----------------------------------------
siesta:    Tot    2.388501    2.344199   -0.000000

siesta: Stress tensor (static) (eV/Ang**3):
siesta:     0.000009    0.000506    0.000000
siesta:     0.000506   -0.000772    0.000000
siesta:    -0.000000   -0.000000   -0.000076

siesta: Cell volume =       4311.319569 Ang**3

siesta: Pressure (static):
siesta:                Solid            Molecule  Units
siesta:           0.00000305          0.00000451  Ry/Bohr**3
siesta:           0.00027977          0.00041433  eV/Ang**3
siesta:           0.44825340          0.66384298  kBar
(Free)E+ p_basis*V_orbitals  =       -4128.193668
(Free)Eharris+ p_basis*V_orbitals  =       -4128.193668
     spin moment: S , {S} =    0.00000  -0.00000  -0.00000   0.00000

siesta: Electric dipole (a.u.)  =   -0.067083    1.532572   -0.000000
siesta: Electric dipole (Debye) =   -0.170509    3.895411   -0.000000

cite: Please see "GC.bib" for an exhaustive BiBTeX file.
cite: Please clearly indicate Siesta version in published work: v4.1.5-1-g384057250
cite: This calculation has made use of the following articles
cite: which are encouraged to be cited in a published work.
        Primary SIESTA paper
          DOI: www.doi.org/10.1088/0953-8984/14/11/302
        Spin-orbit coupling (on-site approximation)
          DOI: www.doi.org/10.1088/0953-8984/19/19/489001


WARNING: alloc-realloc-dealloc name mismatch
         Name: atomlist isa
         Size:              -116. Bytes
         Node:     0
         Subsequent mismatches will not be reported
>> End of run:  16-OCT-2023  18:16:51
Job completed
