Siesta Version  : v4.1.5-1-g384057250
Architecture    : gcc
Compiler version: GNU Fortran (Debian 10.2.1-6) 10.2.1 20210110
Compiler flags  : mpifort -O2 -fPIC -ftree-vectorize -fallow-argument-mismatch
PP flags        : -DFC_HAVE_ABORT -DMPI -DSIESTA__FLOOK -DSIESTA__METIS -DSIESTA__MUMPS -DCDF -DNCDF -DNCDF_4 -DNCDF_PARALLEL -DSIESTA__MRRR -DSIESTA__ELPA
Libraries       : libncdf.a libfdict.a  -lflookall -ldl -lnetcdff -lnetcdf -lhdf5_hl -lhdf5 -lhdf5_fortran -lz -lscalapack-openmpi -lopenblas -lmetis -lzmumps -lcmumps -ldmumps -lmumps_common -lpord -lsmumps -lesmumps -lscotch -lscotcherr -fopenmp -lelpa
PARALLEL version
NetCDF support
NetCDF-4 support
NetCDF-4 MPI-IO support
METIS ordering support
Lua support

* Running on 6 nodes in parallel
>> Start of run:  22-MAY-2023  10:30:42

                           ***********************       
                           *  WELCOME TO SIESTA  *       
                           ***********************       

reinit: Reading from standard input
reinit: Dumped input in INPUT_TMP.45056
************************** Dump of input data file ****************************
SystemLabel      AT
NumberOfAtoms    30
NumberOfSpecies  4
%block ChemicalSpeciesLabel
    1    1  H
    2    7  N
    3   14  Si
    4    8  O
%endblock ChemicalSpeciesLabel
# Single point calculation
MD.TypeOfRun                CG
MD.Steps                    0
SCF.MustConverge            F # In case it does not. There can be 2 very close atoms
AtomicCoordinatesFormat NotScaledCartesianAng
%block AtomicCoordinatesAndAtomicSpecies
2.582377650    -5.776830440   0.000000000       1
1.654759240    -5.269361980   0.000000000       2
0.063128840    -6.101704590   0.000000000       3
0.119223240    -7.596849500   0.000000000       1
-1.376892050   -5.182603740   0.000000000       2
-0.824371900   -3.460866440   0.000000000       3
-1.170571480   -1.270002100   0.000000000       3
-2.706933680   -0.417515780   0.000000000       2
-2.754569660   0.634858620    0.000000000       1
-3.637675640   -0.909967860   0.000000000       1
0.218091790    -0.234193970   0.000000000       2
1.872004100    -0.697162300   0.000000000       3
2.828001130    0.461464770    0.000000000       1
2.648150080    -2.255024470   0.000000000       2
1.391921380    -3.454727220   0.000000000       3
1.842855213    8.067619480    0.000000000       2
0.515483693    9.277823780    0.000000000       3
1.155484963    10.639142020   0.000000000       1
-1.570262247   8.607292430    0.000000000       3
-3.599824847   9.737408620    0.000000000       3
-3.445589077   10.897638830   0.940305280       1
-4.585759567   8.715488000    0.512613700       1
-4.016039807   10.213634470   -1.366678340      1
-1.503766827   6.333315810    0.000000000       3
-2.542815557   5.140256310    0.000000000       4
0.153224753    5.699340620    0.000000000       2
0.135207383    4.636895790    0.000000000       1
1.776827823    6.296410830    0.000000000       3
2.971843993    5.281985630    0.000000000       4
2.842892583    8.413126580    0.000000000       1
%endblock AtomicCoordinatesAndAtomicSpecies
%include ../../../Defaults.fdf
************************** End of input data file *****************************

reinit: -----------------------------------------------------------------------
reinit: System Name: 
reinit: -----------------------------------------------------------------------
reinit: System Label: AT
reinit: -----------------------------------------------------------------------

initatom: Reading input for the pseudopotentials and atomic orbitals ----------
Species number:   1 Atomic number:    1 Label: H
Species number:   2 Atomic number:    7 Label: N
Species number:   3 Atomic number:   14 Label: Si
Species number:   4 Atomic number:    8 Label: O

Ground state valence configuration:   1s01
Reading pseudopotential information in formatted form from H.psf

Pseudopotential generated from a relativistic atomic calculation

Valence configuration for pseudopotential generation:
1s( 1.00) rc: 0.01
2p( 0.00) rc: 0.60
3d( 0.00) rc: 1.99
4f( 0.00) rc: 2.49
Ground state valence configuration:   2s02  2p03
Reading pseudopotential information in formatted form from N.psf

Pseudopotential generated from a relativistic atomic calculation

Valence configuration for pseudopotential generation:
2s( 2.00) rc: 0.94
2p( 3.00) rc: 0.59
3d( 0.00) rc: 3.46
4f( 0.00) rc: 2.47
Ground state valence configuration:   3s02  3p02
Reading pseudopotential information in formatted form from Si.psf

Pseudopotential generated from a relativistic atomic calculation

Valence configuration for pseudopotential generation:
3s( 2.00) rc: 1.67
3p( 2.00) rc: 2.04
3d( 0.00) rc: 2.89
4f( 0.00) rc: 2.49
Ground state valence configuration:   2s02  2p04
Reading pseudopotential information in formatted form from O.psf

Pseudopotential generated from a relativistic atomic calculation

Valence configuration for pseudopotential generation:
2s( 2.00) rc: 0.45
2p( 4.00) rc: 0.92
3d( 0.00) rc: 2.24
4f( 0.00) rc: 0.25
For H, standard SIESTA heuristics set lmxkb to 2
 (one more than the basis l, including polarization orbitals).
Use PS.lmax or PS.KBprojectors blocks to override.
For N, standard SIESTA heuristics set lmxkb to 3
 (one more than the basis l, including polarization orbitals).
Use PS.lmax or PS.KBprojectors blocks to override.
For Si, standard SIESTA heuristics set lmxkb to 3
 (one more than the basis l, including polarization orbitals).
Use PS.lmax or PS.KBprojectors blocks to override.
For O, standard SIESTA heuristics set lmxkb to 3
 (one more than the basis l, including polarization orbitals).
Use PS.lmax or PS.KBprojectors blocks to override.

<basis_specs>
===============================================================================
H                    Z=   1    Mass=  1.0100        Charge= 0.17977+309
Lmxo=0 Lmxkb= 2    BasisType=split      Semic=F
L=0  Nsemic=0  Cnfigmx=1
          i=1  nzeta=2  polorb=1  (1s)
            splnorm:   0.62000    
               vcte:    0.0000    
               rinn:    0.0000    
               qcoe:    0.0000    
               qyuk:    0.0000    
               qwid:   0.10000E-01
                rcs:    0.0000      0.0000    
            lambdas:    1.0000      1.0000    
-------------------------------------------------------------------------------
L=0  Nkbl=1  erefs: 0.17977+309
L=1  Nkbl=1  erefs: 0.17977+309
L=2  Nkbl=1  erefs: 0.17977+309
===============================================================================
</basis_specs>

atom: Called for H                     (Z =   1)

read_vps: Pseudopotential generation method:
read_vps: ATM4.2.7  Troullier-Martins                       
Valence charge for ps generation:    1.00000

xc_check: Exchange-correlation functional:
xc_check: GGA Perdew, Burke & Ernzerhof 1996
V l=0 = -2*Zval/r beyond r=  0.0098
V l=1 = -2*Zval/r beyond r=  0.5817
V l=2 = -2*Zval/r beyond r=  1.9372
All V_l potentials equal beyond r=  1.9372
This should be close to max(r_c) in ps generation
All pots = -2*Zval/r beyond r=  1.9372

VLOCAL1: 99.0% of the norm of Vloc inside     11.567 Ry
VLOCAL1: 99.9% of the norm of Vloc inside     26.362 Ry
atom: Maximum radius for 4*pi*r*r*local-pseudopot. charge    2.25106
atom: Maximum radius for r*vlocal+2*Zval:    1.91306
GHOST: No ghost state for L =  0
GHOST: No ghost state for L =  1
GHOST: No ghost state for L =  2

KBgen: Kleinman-Bylander projectors: 
   l= 0   rc=  2.036604   el= -0.477180   Ekb= -6.081590   kbcos= -0.277285
   l= 1   rc=  2.195416   el=  0.001076   Ekb= -0.926943   kbcos= -0.034643
   l= 2   rc=  2.251056   el=  0.002010   Ekb= -0.130941   kbcos= -0.009788

KBgen: Total number of Kleinman-Bylander projectors:    9
atom: -------------------------------------------------------------------------

atom: SANKEY-TYPE ORBITALS:
atom: Selected multiple-zeta basis: split     

SPLIT: Orbitals with angular momentum L= 0

SPLIT: Basis orbitals for state 1s

SPLIT: PAO cut-off radius determined from an
SPLIT: energy shift=  0.002000 Ry

   izeta = 1
                 lambda =    1.000000
                     rc =    6.518340
                 energy =   -0.475305
                kinetic =    0.912139
    potential(screened) =   -1.387444
       potential(ionic) =   -1.907295

   izeta = 2
                 rmatch =    2.141150
              splitnorm =    0.620000
                 energy =    0.566467
                kinetic =    3.772856
    potential(screened) =   -3.206389
       potential(ionic) =   -3.759093

POLgen: Perturbative polarization orbital with L=  1

POLgen: Polarization orbital for state 1s

   izeta = 1
                     rc =    6.518340
                 energy =    0.533861
                kinetic =    1.121086
    potential(screened) =   -0.587225
       potential(ionic) =   -1.053027
atom: Total number of Sankey-type orbitals:  5

atm_pop: Valence configuration (for local Pseudopot. screening):
 1s( 1.00)                                                            
Vna: chval, zval:    1.00000   1.00000

Vna:  Cut-off radius for the neutral-atom potential:   6.518340

atom: _________________________________________________________________________

<basis_specs>
===============================================================================
N                    Z=   7    Mass=  14.010        Charge= 0.17977+309
Lmxo=1 Lmxkb= 3    BasisType=split      Semic=F
L=0  Nsemic=0  Cnfigmx=2
          i=1  nzeta=2  polorb=0  (2s)
            splnorm:   0.28000    
               vcte:    0.0000    
               rinn:    0.0000    
               qcoe:    0.0000    
               qyuk:    0.0000    
               qwid:   0.10000E-01
                rcs:    0.0000      0.0000    
            lambdas:    1.0000      1.0000    
L=1  Nsemic=0  Cnfigmx=2
          i=1  nzeta=2  polorb=1  (2p)
            splnorm:   0.28000    
               vcte:    0.0000    
               rinn:    0.0000    
               qcoe:    0.0000    
               qyuk:    0.0000    
               qwid:   0.10000E-01
                rcs:    0.0000      0.0000    
            lambdas:    1.0000      1.0000    
-------------------------------------------------------------------------------
L=0  Nkbl=1  erefs: 0.17977+309
L=1  Nkbl=1  erefs: 0.17977+309
L=2  Nkbl=1  erefs: 0.17977+309
L=3  Nkbl=1  erefs: 0.17977+309
===============================================================================
</basis_specs>

atom: Called for N                     (Z =   7)

read_vps: Pseudopotential generation method:
read_vps: ATM4.2.7  Troullier-Martins                       
Valence charge for ps generation:    5.00000

xc_check: Exchange-correlation functional:
xc_check: GGA Perdew, Burke & Ernzerhof 1996
V l=0 = -2*Zval/r beyond r=  1.2889
V l=1 = -2*Zval/r beyond r=  1.2889
V l=2 = -2*Zval/r beyond r=  3.4178
V l=3 = -2*Zval/r beyond r=  2.4084
All V_l potentials equal beyond r=  3.3753
This should be close to max(r_c) in ps generation
All pots = -2*Zval/r beyond r=  3.4178

VLOCAL1: 99.0% of the norm of Vloc inside      3.810 Ry
VLOCAL1: 99.9% of the norm of Vloc inside      8.683 Ry
atom: Maximum radius for 4*pi*r*r*local-pseudopot. charge    4.02088
atom: Maximum radius for r*vlocal+2*Zval:    3.54838
GHOST: No ghost state for L =  0
GHOST: No ghost state for L =  1
GHOST: No ghost state for L =  2
GHOST: No ghost state for L =  3

KBgen: Kleinman-Bylander projectors: 
   l= 0   rc=  3.417763   el= -1.365098   Ekb= -4.433130   kbcos= -0.707855
   l= 1   rc=  3.375302   el= -0.521201   Ekb=-13.264039   kbcos= -0.535594
   l= 2   rc=  3.872880   el=  0.001991   Ekb= -0.641094   kbcos= -0.062456
   l= 3   rc=  3.970931   el=  0.003093   Ekb= -0.474517   kbcos= -0.018236

KBgen: Total number of Kleinman-Bylander projectors:   16
atom: -------------------------------------------------------------------------

atom: SANKEY-TYPE ORBITALS:
atom: Selected multiple-zeta basis: split     

SPLIT: Orbitals with angular momentum L= 0

SPLIT: Basis orbitals for state 2s

SPLIT: PAO cut-off radius determined from an
SPLIT: energy shift=  0.002000 Ry

   izeta = 1
                 lambda =    1.000000
                     rc =    4.730425
                 energy =   -1.363399
                kinetic =    1.245246
    potential(screened) =   -2.608645
       potential(ionic) =   -8.121105

   izeta = 2
                 rmatch =    2.531849
              splitnorm =    0.280000
                 energy =   -0.959908
                kinetic =    2.409435
    potential(screened) =   -3.369343
       potential(ionic) =   -9.427975

SPLIT: Orbitals with angular momentum L= 1

SPLIT: Basis orbitals for state 2p

SPLIT: PAO cut-off radius determined from an
SPLIT: energy shift=  0.002000 Ry

   izeta = 1
                 lambda =    1.000000
                     rc =    5.924108
                 energy =   -0.519262
                kinetic =    3.672940
    potential(screened) =   -4.192202
       potential(ionic) =   -9.518354

   izeta = 2
                 rmatch =    2.531849
              splitnorm =    0.280000
                 energy =   -0.104258
                kinetic =    6.807538
    potential(screened) =   -6.911796
       potential(ionic) =  -13.149920

POLgen: Perturbative polarization orbital with L=  2

POLgen: Polarization orbital for state 2p

   izeta = 1
                     rc =    5.924108
                 energy =    1.427508
                kinetic =    2.872379
    potential(screened) =   -1.444871
       potential(ionic) =   -5.563644
atom: Total number of Sankey-type orbitals: 13

atm_pop: Valence configuration (for local Pseudopot. screening):
 2s( 2.00)                                                            
 2p( 3.00)                                                            
Vna: chval, zval:    5.00000   5.00000

Vna:  Cut-off radius for the neutral-atom potential:   5.924108

atom: _________________________________________________________________________

<basis_specs>
===============================================================================
Si                   Z=  14    Mass=  28.090        Charge= 0.17977+309
Lmxo=1 Lmxkb= 3    BasisType=split      Semic=F
L=0  Nsemic=0  Cnfigmx=3
          i=1  nzeta=2  polorb=0  (3s)
            splnorm:   0.28000    
               vcte:    0.0000    
               rinn:    0.0000    
               qcoe:    0.0000    
               qyuk:    0.0000    
               qwid:   0.10000E-01
                rcs:    0.0000      0.0000    
            lambdas:    1.0000      1.0000    
L=1  Nsemic=0  Cnfigmx=3
          i=1  nzeta=2  polorb=1  (3p)
            splnorm:   0.28000    
               vcte:    0.0000    
               rinn:    0.0000    
               qcoe:    0.0000    
               qyuk:    0.0000    
               qwid:   0.10000E-01
                rcs:    0.0000      0.0000    
            lambdas:    1.0000      1.0000    
-------------------------------------------------------------------------------
L=0  Nkbl=1  erefs: 0.17977+309
L=1  Nkbl=1  erefs: 0.17977+309
L=2  Nkbl=1  erefs: 0.17977+309
L=3  Nkbl=1  erefs: 0.17977+309
===============================================================================
</basis_specs>

atom: Called for Si                    (Z =  14)

read_vps: Pseudopotential generation method:
read_vps: ATM4.2.7  Troullier-Martins                       
Valence charge for ps generation:    4.00000

xc_check: Exchange-correlation functional:
xc_check: GGA Perdew, Burke & Ernzerhof 1996
V l=0 = -2*Zval/r beyond r=  2.7826
V l=1 = -2*Zval/r beyond r=  2.7826
V l=2 = -2*Zval/r beyond r=  2.9253
V l=3 = -2*Zval/r beyond r=  2.7826
All V_l potentials equal beyond r=  2.8530
This should be close to max(r_c) in ps generation
All pots = -2*Zval/r beyond r=  2.9253

VLOCAL1: 99.0% of the norm of Vloc inside      5.333 Ry
VLOCAL1: 99.9% of the norm of Vloc inside     12.154 Ry
atom: Maximum radius for 4*pi*r*r*local-pseudopot. charge    3.39869
atom: Maximum radius for r*vlocal+2*Zval:    2.96205
GHOST: No ghost state for L =  0
GHOST: No ghost state for L =  1
GHOST: No ghost state for L =  2
GHOST: No ghost state for L =  3

KBgen: Kleinman-Bylander projectors: 
   l= 0   rc=  3.075247   el= -0.794092   Ekb=  5.879390   kbcos=  0.167461
   l= 1   rc=  3.153101   el= -0.300068   Ekb=  2.642817   kbcos=  0.058301
   l= 2   rc=  3.273594   el=  0.001958   Ekb= -1.185135   kbcos= -0.104411
   l= 3   rc=  3.232927   el=  0.003046   Ekb= -0.497174   kbcos= -0.015889

KBgen: Total number of Kleinman-Bylander projectors:   16
atom: -------------------------------------------------------------------------

atom: SANKEY-TYPE ORBITALS:
atom: Selected multiple-zeta basis: split     

SPLIT: Orbitals with angular momentum L= 0

SPLIT: Basis orbitals for state 3s

SPLIT: PAO cut-off radius determined from an
SPLIT: energy shift=  0.002000 Ry

   izeta = 1
                 lambda =    1.000000
                     rc =    6.429618
                 energy =   -0.792283
                kinetic =    0.525293
    potential(screened) =   -1.317576
       potential(ionic) =   -3.744923

   izeta = 2
                 rmatch =    3.998416
              splitnorm =    0.280000
                 energy =   -0.583081
                kinetic =    1.069570
    potential(screened) =   -1.652651
       potential(ionic) =   -4.235185

SPLIT: Orbitals with angular momentum L= 1

SPLIT: Basis orbitals for state 3p

SPLIT: PAO cut-off radius determined from an
SPLIT: energy shift=  0.002000 Ry

   izeta = 1
                 lambda =    1.000000
                     rc =    8.464845
                 energy =   -0.298236
                kinetic =    0.785360
    potential(screened) =   -1.083596
       potential(ionic) =   -3.273779

   izeta = 2
                 rmatch =    4.587816
              splitnorm =    0.280000
                 energy =   -0.131871
                kinetic =    1.403687
    potential(screened) =   -1.535557
       potential(ionic) =   -4.015310

POLgen: Perturbative polarization orbital with L=  2

POLgen: Polarization orbital for state 3p

   izeta = 1
                     rc =    8.464845
                 energy =    0.321949
                kinetic =    1.055677
    potential(screened) =   -0.733728
       potential(ionic) =   -2.672950
atom: Total number of Sankey-type orbitals: 13

atm_pop: Valence configuration (for local Pseudopot. screening):
 3s( 2.00)                                                            
 3p( 2.00)                                                            
Vna: chval, zval:    4.00000   4.00000

Vna:  Cut-off radius for the neutral-atom potential:   8.464845

atom: _________________________________________________________________________

<basis_specs>
===============================================================================
O                    Z=   8    Mass=  16.000        Charge= 0.17977+309
Lmxo=1 Lmxkb= 3    BasisType=split      Semic=F
L=0  Nsemic=0  Cnfigmx=2
          i=1  nzeta=2  polorb=0  (2s)
            splnorm:   0.28000    
               vcte:    0.0000    
               rinn:    0.0000    
               qcoe:    0.0000    
               qyuk:    0.0000    
               qwid:   0.10000E-01
                rcs:    0.0000      0.0000    
            lambdas:    1.0000      1.0000    
L=1  Nsemic=0  Cnfigmx=2
          i=1  nzeta=2  polorb=1  (2p)
            splnorm:   0.28000    
               vcte:    0.0000    
               rinn:    0.0000    
               qcoe:    0.0000    
               qyuk:    0.0000    
               qwid:   0.10000E-01
                rcs:    0.0000      0.0000    
            lambdas:    1.0000      1.0000    
-------------------------------------------------------------------------------
L=0  Nkbl=1  erefs: 0.17977+309
L=1  Nkbl=1  erefs: 0.17977+309
L=2  Nkbl=1  erefs: 0.17977+309
L=3  Nkbl=1  erefs: 0.17977+309
===============================================================================
</basis_specs>

atom: Called for O                     (Z =   8)

read_vps: Pseudopotential generation method:
read_vps: ATM4.2.7  Troullier-Martins                       
Valence charge for ps generation:    6.00000

xc_check: Exchange-correlation functional:
xc_check: GGA Perdew, Burke & Ernzerhof 1996
V l=0 = -2*Zval/r beyond r=  1.1000
V l=1 = -2*Zval/r beyond r=  1.1000
V l=2 = -2*Zval/r beyond r=  2.2154
V l=3 = -2*Zval/r beyond r=  1.1000
All V_l potentials equal beyond r=  2.2154
This should be close to max(r_c) in ps generation
All pots = -2*Zval/r beyond r=  2.2154

VLOCAL1: 99.0% of the norm of Vloc inside      8.845 Ry
VLOCAL1: 99.9% of the norm of Vloc inside     20.157 Ry
atom: Maximum radius for 4*pi*r*r*local-pseudopot. charge    2.67231
atom: Maximum radius for r*vlocal+2*Zval:    2.32897
GHOST: No ghost state for L =  0
GHOST: No ghost state for L =  1
GHOST: No ghost state for L =  2
GHOST: No ghost state for L =  3

KBgen: Kleinman-Bylander projectors: 
   l= 0   rc=  2.243238   el= -1.759686   Ekb=**********   kbcos= -0.171774
   l= 1   rc=  2.328968   el= -0.663873   Ekb=-14.506792   kbcos= -0.519897
   l= 2   rc=  2.573941   el=  0.002031   Ekb= -1.137373   kbcos= -0.019581
   l= 3   rc=  2.606321   el=  0.003153   Ekb= -1.013546   kbcos= -0.003122

KBgen: Total number of Kleinman-Bylander projectors:   16
atom: -------------------------------------------------------------------------

atom: SANKEY-TYPE ORBITALS:
atom: Selected multiple-zeta basis: split     

SPLIT: Orbitals with angular momentum L= 0

SPLIT: Basis orbitals for state 2s

SPLIT: PAO cut-off radius determined from an
SPLIT: energy shift=  0.002000 Ry

   izeta = 1
                 lambda =    1.000000
                     rc =    4.243912
                 energy =   -1.758270
                kinetic =    3.286084
    potential(screened) =   -5.044353
       potential(ionic) =  -12.921184

   izeta = 2
                 rmatch =    2.187845
              splitnorm =    0.280000
                 energy =   -0.885018
                kinetic =    8.134434
    potential(screened) =   -9.019452
       potential(ionic) =  -17.710645

SPLIT: Orbitals with angular momentum L= 1

SPLIT: Basis orbitals for state 2p

SPLIT: PAO cut-off radius determined from an
SPLIT: energy shift=  0.002000 Ry

   izeta = 1
                 lambda =    1.000000
                     rc =    5.314825
                 energy =   -0.661986
                kinetic =    4.917472
    potential(screened) =   -5.579458
       potential(ionic) =  -13.236259

   izeta = 2
                 rmatch =    2.160663
              splitnorm =    0.280000
                 energy =   -0.068760
                kinetic =    9.183374
    potential(screened) =   -9.252135
       potential(ionic) =  -18.274251

POLgen: Perturbative polarization orbital with L=  2

POLgen: Polarization orbital for state 2p

   izeta = 1
                     rc =    5.314825
                 energy =    1.970580
                kinetic =    3.886128
    potential(screened) =   -1.915547
       potential(ionic) =   -7.749584
atom: Total number of Sankey-type orbitals: 13

atm_pop: Valence configuration (for local Pseudopot. screening):
 2s( 2.00)                                                            
 2p( 4.00)                                                            
Vna: chval, zval:    6.00000   6.00000

Vna:  Cut-off radius for the neutral-atom potential:   5.314825

atom: _________________________________________________________________________

prinput: Basis input ----------------------------------------------------------

PAO.BasisType split     

%block ChemicalSpeciesLabel
    1    1 H                       # Species index, atomic number, species label
    2    7 N                       # Species index, atomic number, species label
    3   14 Si                      # Species index, atomic number, species label
    4    8 O                       # Species index, atomic number, species label
%endblock ChemicalSpeciesLabel

%block PAO.Basis                 # Define Basis set
H                     1                    # Species label, number of l-shells
 n=1   0   2 P   1                   # n, l, Nzeta, Polarization, NzetaPol
   6.518      2.141   
   1.000      1.000   
N                     2                    # Species label, number of l-shells
 n=2   0   2                         # n, l, Nzeta 
   4.730      2.532   
   1.000      1.000   
 n=2   1   2 P   1                   # n, l, Nzeta, Polarization, NzetaPol
   5.924      2.532   
   1.000      1.000   
Si                    2                    # Species label, number of l-shells
 n=3   0   2                         # n, l, Nzeta 
   6.430      3.998   
   1.000      1.000   
 n=3   1   2 P   1                   # n, l, Nzeta, Polarization, NzetaPol
   8.465      4.588   
   1.000      1.000   
O                     2                    # Species label, number of l-shells
 n=2   0   2                         # n, l, Nzeta 
   4.244      2.188   
   1.000      1.000   
 n=2   1   2 P   1                   # n, l, Nzeta, Polarization, NzetaPol
   5.315      2.161   
   1.000      1.000   
%endblock PAO.Basis

prinput: ----------------------------------------------------------------------

Dumping basis to NetCDF file H.ion.nc
Dumping basis to NetCDF file N.ion.nc
Dumping basis to NetCDF file Si.ion.nc
Dumping basis to NetCDF file O.ion.nc
coor:   Atomic-coordinates input format  =     Cartesian coordinates
coor:                                          (in Angstroms)

siesta: Atomic coordinates (Bohr) and species
siesta:      4.87999 -10.91663   0.00000  1        1
siesta:      3.12704  -9.95765   0.00000  2        2
siesta:      0.11930 -11.53056   0.00000  3        3
siesta:      0.22530 -14.35597   0.00000  1        4
siesta:     -2.60195  -9.79371   0.00000  2        5
siesta:     -1.55784  -6.54009   0.00000  3        6
siesta:     -2.21206  -2.39996   0.00000  3        7
siesta:     -5.11537  -0.78899   0.00000  2        8
siesta:     -5.20538   1.19971   0.00000  1        9
siesta:     -6.87421  -1.71959   0.00000  1       10
siesta:      0.41213  -0.44256   0.00000  2       11
siesta:      3.53758  -1.31745   0.00000  3       12
siesta:      5.34415   0.87204   0.00000  1       13
siesta:      5.00428  -4.26138   0.00000  2       14
siesta:      2.63035  -6.52849   0.00000  3       15
siesta:      3.48249  15.24560   0.00000  2       16
siesta:      0.97412  17.53255   0.00000  3       17
siesta:      2.18355  20.10507   0.00000  1       18
siesta:     -2.96737  16.26543   0.00000  3       19
siesta:     -6.80269  18.40104   0.00000  3       20
siesta:     -6.51122  20.59356   1.77692  1       21
siesta:     -8.66583  16.46989   0.96870  1       22
siesta:     -7.58922  19.30098  -2.58265  1       23
siesta:     -2.84171  11.96824   0.00000  3       24
siesta:     -4.80523   9.71368   0.00000  4       25
siesta:      0.28955  10.77020   0.00000  2       26
siesta:      0.25551   8.76247   0.00000  1       27
siesta:      3.35772  11.89850   0.00000  3       28
siesta:      5.61597   9.98151   0.00000  4       29
siesta:      5.37229  15.89851   0.00000  1       30

siesta: Automatic unit cell vectors (Ang):
siesta:   15.873695    0.000000    0.000000
siesta:    0.000000   27.932520    0.000000
siesta:    0.000000    0.000000   10.224979

siesta: System type = molecule  

initatomlists: Number of atoms, orbitals, and projectors:     30   302   403

siesta: ******************** Simulation parameters ****************************
siesta:
siesta: The following are some of the parameters of the simulation.
siesta: A complete list of the parameters used, including default values,
siesta: can be found in file out.fdf
siesta:
redata: Spin configuration                          = spin-orbit
redata: Number of spin components                   = 8
redata: Time-Reversal Symmetry                      = F
redata: Spin spiral                                 = F
############################################################
This spin-orbit implementation uses a local approximation.
From 4.2 and onwards the full non-local approximation is implemented
You are strongly advised to use >=4.2 versions!
############################################################
redata: Long output                                 =   F
redata: Number of Atomic Species                    =        4
redata: Charge density info will appear in .RHO file
redata: Write Mulliken Pop.                         = Atomic and Orbital charges
redata: Matel table size (NRTAB)                    =     1024
redata: Mesh Cutoff                                 =   340.0000 Ry
redata: Net charge of the system                    =     0.0000 |e|
redata: Min. number of SCF Iter                     =        1
redata: Max. number of SCF Iter                     =      200
redata: SCF mix quantity                            = Hamiltonian
redata: Mix DM or H after convergence               =   F
redata: Recompute H after scf cycle                 =   F
redata: Mix DM in first SCF step                    =   T
redata: Write Pulay info on disk                    =   F
redata: New DM Occupancy tolerance                  = 0.000000000001
redata: No kicks to SCF
redata: DM Mixing Weight for Kicks                  =     0.5000
redata: Require Harris convergence for SCF          =   F
redata: Harris energy tolerance for SCF             =     0.000100 eV
redata: Require DM convergence for SCF              =   T
redata: DM tolerance for SCF                        =     0.000008
redata: Require EDM convergence for SCF             =   F
redata: EDM tolerance for SCF                       =     0.001000 eV
redata: Require H convergence for SCF               =   T
redata: Hamiltonian tolerance for SCF               =     0.000001 eV
redata: Require (free) Energy convergence for SCF   =   F
redata: (free) Energy tolerance for SCF             =     0.000100 eV
redata: Using Saved Data (generic)                  =   F
redata: Use continuation files for DM               =   F
redata: Neglect nonoverlap interactions             =   F
redata: Method of Calculation                       = Diagonalization
redata: Electronic Temperature                      =   299.9978 K
redata: Fix the spin of the system                  =   F
redata: Dynamics option                             = Single-point calculation
mix.SCF: Pulay mixing                            = Pulay
mix.SCF:    Variant                              = stable
mix.SCF:    History steps                        = 6
mix.SCF:    Linear mixing weight                 =     0.250000
mix.SCF:    Mixing weight                        =     0.250000
mix.SCF:    SVD condition                        = 0.1000E-07
mix.SCF:    Restart steps                        = 24
mix.SCF:    Restart save steps                   = 3
mix.SCF: Spin-component mixing                   all
redata: Save all siesta data in one NC              =   F
redata: ***********************************************************************

%block SCF.Mixers
  Pulay
%endblock SCF.Mixers

%block SCF.Mixer.Pulay
  # Mixing method
  method pulay
  variant stable

  # Mixing options
  weight 0.2500
  weight.linear 0.2500
  history 6
  restart 24
  restart.save 3
%endblock SCF.Mixer.Pulay

DM_history_depth set to one: no extrapolation allowed by default for geometry relaxation
Size of DM history Fstack: 1
Total number of electrons:    98.000000
Total ionic charge:    98.000000

* ProcessorY, Blocksize:    2  24


* Orbital distribution balance (max,min):    62    48


Time-reversal symmetry not used.

siesta: k-grid: Number of k-points =     1
siesta: k-grid: Cutoff (effective) =     5.112 Ang
siesta: k-grid: Supercell and displacements
siesta: k-grid:    1   0   0      0.000
siesta: k-grid:    0   1   0      0.000
siesta: k-grid:    0   0   1      0.000

diag: Algorithm                                     = ELPA-1stage
diag: Parallel over k                               =   F
diag: Use parallel 2D distribution                  =   T
diag: Parallel block-size                           = 24
diag: Parallel distribution                         =     2 x     3
diag: Used triangular part                          = Lower
diag: Absolute tolerance                            =  0.100E-15
diag: Orthogonalization factor                      =  0.100E-05
diag: Memory factor                                 =  1.0000


ts: **************************************************************
ts: Save H and S matrices                           =    F
ts: Save DM and EDM matrices                        =    F
ts: Only save the overlap matrix S                  =    F
ts: **************************************************************

************************ Begin: TS CHECKS AND WARNINGS ************************
************************ End: TS CHECKS AND WARNINGS **************************


                     ====================================
                        Single-point calculation
                     ====================================

outcoor: Atomic coordinates (Ang):                          
    2.58237765   -5.77683044    0.00000000   1       1  H
    1.65475924   -5.26936198    0.00000000   2       2  N
    0.06312884   -6.10170459    0.00000000   3       3  Si
    0.11922324   -7.59684950    0.00000000   1       4  H
   -1.37689205   -5.18260374    0.00000000   2       5  N
   -0.82437190   -3.46086644    0.00000000   3       6  Si
   -1.17057148   -1.27000210    0.00000000   3       7  Si
   -2.70693368   -0.41751578    0.00000000   2       8  N
   -2.75456966    0.63485862    0.00000000   1       9  H
   -3.63767564   -0.90996786    0.00000000   1      10  H
    0.21809179   -0.23419397    0.00000000   2      11  N
    1.87200410   -0.69716230    0.00000000   3      12  Si
    2.82800113    0.46146477    0.00000000   1      13  H
    2.64815008   -2.25502447    0.00000000   2      14  N
    1.39192138   -3.45472722    0.00000000   3      15  Si
    1.84285521    8.06761948    0.00000000   2      16  N
    0.51548369    9.27782378    0.00000000   3      17  Si
    1.15548496   10.63914202    0.00000000   1      18  H
   -1.57026225    8.60729243    0.00000000   3      19  Si
   -3.59982485    9.73740862    0.00000000   3      20  Si
   -3.44558908   10.89763883    0.94030528   1      21  H
   -4.58575957    8.71548800    0.51261370   1      22  H
   -4.01603981   10.21363447   -1.36667834   1      23  H
   -1.50376683    6.33331581    0.00000000   3      24  Si
   -2.54281556    5.14025631    0.00000000   4      25  O
    0.15322475    5.69934062    0.00000000   2      26  N
    0.13520738    4.63689579    0.00000000   1      27  H
    1.77682782    6.29641083    0.00000000   3      28  Si
    2.97184399    5.28198563    0.00000000   4      29  O
    2.84289258    8.41312658    0.00000000   1      30  H

outcell: Unit cell vectors (Ang):
       15.873695    0.000000    0.000000
        0.000000   27.932520    0.000000
        0.000000    0.000000   10.224979

outcell: Cell vector modules (Ang)   :   15.873695   27.932520   10.224979
outcell: Cell angles (23,13,12) (deg):     90.0000     90.0000     90.0000
outcell: Cell volume (Ang**3)        :   4533.6771
<dSpData1D:S at geom step 0
  <sparsity:sparsity for geom step 0
    nrows_g=302 nrows=62 sparsity=.1023 nnzs=9332, refcount: 8>
  <dData1D:(new from dSpData1D) n=9332, refcount: 1>
refcount: 1>
new_DM -- step:     1
Initializing Density Matrix...
DM filled with atomic data:
<dSpData2D:DM initialized from atoms
  <sparsity:sparsity for geom step 0
    nrows_g=302 nrows=62 sparsity=.1023 nnzs=9332, refcount: 9>
  <dData2D:DM n=9332 m=8, refcount: 1>
refcount: 1>
     spin moment: S , {S} =   56.00000   0.00000   0.00000  56.00000
No. of atoms with KB's overlaping orbs in proc 0. Max # of overlaps:      24     133

Initializing spin-orbit part of the Hamiltonian
  Adding spin-orbit effects for H 
  Adding spin-orbit effects for N 
  Adding spin-orbit effects for Si
  Adding spin-orbit effects for O 


New grid distribution:   1
           1       1:   90    1:   80    1:   20
           2       1:   90    1:   80   21:   40
           3       1:   90    1:   80   41:   60
           4       1:   90   81:  160    1:   20
           5       1:   90   81:  160   21:   40
           6       1:   90   81:  160   41:   60

InitMesh: MESH =   180 x   320 x   120 =     6912000
InitMesh: (bp) =    90 x   160 x    60 =      864000
InitMesh: Mesh cutoff (required, used) =   340.000   355.378 Ry
ExtMesh (bp) on 0 =   194 x   184 x   128 =     4569088
New grid distribution:   2
           1      14:   90   41:   61    1:   60
           2       1:   11   62:  160    1:   60
           3       1:   13    1:   61    1:   60
           4      12:   90   62:  140    1:   60
           5      14:   90    1:   40    1:   60
           6      12:   90  141:  160    1:   60
New grid distribution:   3
           1       1:   19   63:  160    1:   60
           2      22:   90   38:   62    1:   60
           3       1:   21    1:   62    1:   60
           4      20:   90   63:  130    1:   60
           5      22:   90    1:   37    1:   60
           6      20:   90  131:  160    1:   60
Setting up quadratic distribution...
ExtMesh (bp) on 0 =   181 x   125 x   168 =     3801000
PhiOnMesh: Number of (b)points on node 0 =                97020
PhiOnMesh: nlist on node 0 =              1786847

stepf: Fermi-Dirac step function

siesta: Program's energy decomposition (eV):
siesta: Ebs     =      -631.456757
siesta: Eions   =      3553.971015
siesta: Ena     =       377.805285
siesta: Ekin    =      3183.933713
siesta: Enl     =     -2998.784027
siesta: Eso     =        -0.003898
siesta: Edftu   =         0.000000
siesta: DEna    =       130.483431
siesta: DUscf   =        76.873589
siesta: DUext   =         0.000000
siesta: Exc     =     -1171.519628
siesta: eta*DQ  =         0.000000
siesta: Emadel  =         0.000000
siesta: Emeta   =         0.000000
siesta: Emolmec =         0.000000
siesta: Ekinion =         0.000000
siesta: Eharris =     -3882.004795
siesta: Etot    =     -3955.182550
siesta: FreeEng =     -3955.186780

        iscf     Eharris(eV)        E_KS(eV)     FreeEng(eV)     dDmax    Ef(eV) dHmax(eV)
   scf:    1    -3882.004795    -3955.182550    -3955.186780  0.971448 -4.940962 21.563347
     spin moment: S , {S} =    2.03198   0.00003   0.00001   2.03198
timer: Routine,Calls,Time,% = IterSCF        1       5.619  21.99
   scf:    2    -3997.949613    -3989.264819    -3989.264821  0.457085 -4.363756 10.803303
     spin moment: S , {S} =    2.00011  -0.00001   0.00004   2.00011
   scf:    3    -3977.280906    -3990.928750    -3990.965478  0.415444 -4.267579  9.274354
     spin moment: S , {S} =    1.16552   0.00002   0.00001   1.16552
   scf:    4    -4000.999905    -3997.385818    -3997.385819  0.193036 -3.964085  6.172186
     spin moment: S , {S} =    0.00010   0.00001  -0.00000   0.00010
   scf:    5    -3998.727425    -3998.137483    -3998.137483  0.038113 -3.892850  3.677993
     spin moment: S , {S} =    0.00005   0.00000  -0.00000   0.00005
   scf:    6    -3998.795326    -3998.476611    -3998.476611  0.022951 -3.894300  2.013040
     spin moment: S , {S} =    0.00003   0.00000  -0.00000   0.00003
   scf:    7    -3998.856097    -3998.658821    -3998.658821  0.023577 -3.947038  0.722849
     spin moment: S , {S} =    0.00001   0.00000  -0.00000   0.00001
   scf:    8    -3998.765627    -3998.710218    -3998.710218  0.011121 -3.984946  0.410427
     spin moment: S , {S} =    0.00000   0.00000  -0.00000   0.00000
   scf:    9    -3998.752492    -3998.730391    -3998.730391  0.006830 -4.000427  0.301763
     spin moment: S , {S} =    0.00000   0.00000  -0.00000   0.00000
   scf:   10    -3998.779418    -3998.749517    -3998.749533  0.018275 -4.020982  0.160812
     spin moment: S , {S} =    0.00004   0.00000   0.00000  -0.00004
   scf:   11    -3998.752610    -3998.751080    -3998.751100  0.004232 -4.010760  0.040604
     spin moment: S , {S} =    0.00000   0.00000   0.00000  -0.00000
   scf:   12    -3998.751642    -3998.751360    -3998.751383  0.001380 -4.009355  0.024545
     spin moment: S , {S} =    0.00000   0.00000   0.00000   0.00000
   scf:   13    -3998.751696    -3998.751523    -3998.751547  0.001162 -4.007825  0.017783
     spin moment: S , {S} =    0.00000   0.00000   0.00000   0.00000
   scf:   14    -3998.751763    -3998.751636    -3998.751660  0.001254 -4.007087  0.014293
     spin moment: S , {S} =    0.00000   0.00000   0.00000   0.00000
   scf:   15    -3998.751786    -3998.751704    -3998.751729  0.001193 -4.006698  0.009814
     spin moment: S , {S} =    0.00000   0.00000   0.00000  -0.00000
   scf:   16    -3998.751783    -3998.751739    -3998.751764  0.000934 -4.006692  0.006188
     spin moment: S , {S} =    0.00000   0.00000   0.00000  -0.00000
   scf:   17    -3998.751781    -3998.751757    -3998.751781  0.000832 -4.006764  0.003845
     spin moment: S , {S} =    0.00000   0.00000   0.00000  -0.00000
   scf:   18    -3998.751767    -3998.751761    -3998.751785  0.000411 -4.006840  0.002106
     spin moment: S , {S} =    0.00000   0.00000   0.00000  -0.00000
   scf:   19    -3998.751765    -3998.751763    -3998.751787  0.000293 -4.006835  0.000949
     spin moment: S , {S} =    0.00000   0.00000   0.00000  -0.00000
   scf:   20    -3998.751763    -3998.751763    -3998.751787  0.000076 -4.006839  0.000644
     spin moment: S , {S} =    0.00000   0.00000   0.00000  -0.00000
   scf:   21    -3998.751763    -3998.751763    -3998.751787  0.000074 -4.006839  0.000278
     spin moment: S , {S} =    0.00000   0.00000   0.00000  -0.00000
   scf:   22    -3998.751763    -3998.751763    -3998.751787  0.000049 -4.006850  0.000147
     spin moment: S , {S} =    0.00000   0.00000   0.00000  -0.00000
   scf:   23    -3998.751763    -3998.751763    -3998.751787  0.000011 -4.006856  0.000107
     spin moment: S , {S} =    0.00000   0.00000   0.00000  -0.00000
   scf:   24    -3998.751763    -3998.751763    -3998.751787  0.000005 -4.006858  0.000087
     spin moment: S , {S} =    0.00000   0.00000   0.00000  -0.00000
mix: Pulay -- resetting history
   scf:   25    -3998.751763    -3998.751763    -3998.751787  0.000008 -4.006857  0.000047
     spin moment: S , {S} =    0.00000   0.00000   0.00000  -0.00000
   scf:   26    -3998.751763    -3998.751763    -3998.751787  0.000005 -4.006855  0.000020
     spin moment: S , {S} =    0.00000   0.00000   0.00000  -0.00000
   scf:   27    -3998.751763    -3998.751763    -3998.751787  0.000002 -4.006854  0.000009
     spin moment: S , {S} =    0.00000   0.00000   0.00000  -0.00000
   scf:   28    -3998.751763    -3998.751763    -3998.751787  0.000001 -4.006855  0.000006
     spin moment: S , {S} =    0.00000   0.00000   0.00000  -0.00000
   scf:   29    -3998.751763    -3998.751763    -3998.751787  0.000001 -4.006855  0.000003
     spin moment: S , {S} =    0.00000   0.00000  -0.00000   0.00000
   scf:   30    -3998.751763    -3998.751763    -3998.751787  0.000000 -4.006855  0.000002
     spin moment: S , {S} =    0.00000   0.00000  -0.00000   0.00000
   scf:   31    -3998.751763    -3998.751763    -3998.751787  0.000000 -4.006855  0.000002
     spin moment: S , {S} =    0.00000   0.00000  -0.00000   0.00000
   scf:   32    -3998.751763    -3998.751763    -3998.751787  0.000000 -4.006855  0.000001
     spin moment: S , {S} =    0.00000   0.00000  -0.00000   0.00000

SCF Convergence by DM+H criterion
max |DM_out - DM_in|         :     0.0000001114
max |H_out - H_in|      (eV) :     0.0000009034
SCF cycle converged after 32 iterations

Using DM_out to compute the final energy and forces
No. of atoms with KB's overlaping orbs in proc 0. Max # of overlaps:      24     133

siesta: E_KS(eV) =            -3998.7518

siesta: E_KS - E_eggbox =     -3998.7518
     spin moment: S , {S} =    0.00000   0.00000  -0.00000   0.00000

siesta: Atomic forces (eV/Ang):
     1   -0.060061    0.065564    0.000002
     2   -0.005882   -0.046475   -0.000002
     3   -0.003419    0.040818    0.000004
     4   -0.058144   -0.006696    0.000001
     5    0.018907   -0.047939   -0.000003
     6    0.024847    0.005043   -0.000000
     7   -0.074415    0.110997    0.000007
     8    0.056422   -0.046798   -0.000024
     9    0.035014   -0.062847    0.000035
    10    0.089728    0.073199    0.000005
    11   -0.036288   -0.032569   -0.000008
    12    0.047005    0.063558    0.000000
    13   -0.087228   -0.150064   -0.000000
    14   -0.022031   -0.012242    0.000000
    15    0.000122    0.066622   -0.000000
    16   -0.003566    0.085285    0.008015
    17   -0.007989   -0.044590   -0.039761
    18   -0.175166    0.168425    0.008238
    19    0.004549    0.030001   -0.041195
    20    0.042151   -0.053766    0.027251
    21   -0.051676    0.268047    0.049374
    22   -0.016842    0.191958    0.016314
    23    0.001667    0.032905   -0.052656
    24    0.045831   -0.118785   -0.026638
    25   -3.254605    2.043037    0.003083
    26   -0.042700    0.073020    0.006533
    27    0.020771   -0.107942    0.002791
    28   -0.001636   -0.126347   -0.000874
    29    5.341248   -0.212030   -0.001104
    30    0.005711    0.125565    0.008276
----------------------------------------
   Tot    1.832323    2.374955   -0.032337
----------------------------------------
   Max    5.341248
   Res    0.696889    sqrt( Sum f_i^2 / 3N )
----------------------------------------
   Max    5.341248    constrained

Stress tensor Voigt[x,y,z,yz,xz,xy] (kbar):       -1.68       -0.37       -0.21       -0.04        0.05        0.27
(Free)E + p*V (eV/cell)    -3996.6146
Target enthalpy (eV/cell)    -3998.7518

mulliken: Atomic and Orbital Populations:

Species: H                   

Atom      Orb        Charge      Spin       Svec
----------------------------------------------------------------
    1  1 1s         0.50879   0.00000     -0.000  -0.000  -0.000
    1  2 1s         0.18805   0.00000      0.000   0.000  -0.000
    1  3 2Ppy       0.02793   0.00000     -0.000  -0.000  -0.000
    1  4 2Ppz       0.03996   0.00000     -0.000  -0.000  -0.000
    1  5 2Ppx       0.02507   0.00000      0.000  -0.000   0.000
    1     Total     0.78981   0.00000     -0.000  -0.000  -0.000

    4  1 1s         1.02390   0.00000     -0.000   0.000  -0.000
    4  2 1s         0.09514   0.00000      0.000  -0.000   0.000
    4  3 2Ppy       0.03905   0.00000      0.000  -0.000   0.000
    4  4 2Ppz       0.01989   0.00000      0.000  -0.000   0.000
    4  5 2Ppx       0.01356   0.00000     -0.000  -0.000  -0.000
    4     Total     1.19153   0.00000     -0.000   0.000  -0.000

    9  1 1s         0.47753   0.00000      0.000  -0.000  -0.000
    9  2 1s         0.19551   0.00000      0.000  -0.000  -0.000
    9  3 2Ppy       0.02312   0.00000      0.000  -0.000   0.000
    9  4 2Ppz       0.04865   0.00000     -0.000   0.000  -0.000
    9  5 2Ppx       0.01223   0.00000     -0.000   0.000  -0.000
    9     Total     0.75704   0.00000      0.000  -0.000  -0.000

   10  1 1s         0.48197   0.00000      0.000   0.000  -0.000
   10  2 1s         0.19602   0.00000     -0.000  -0.000  -0.000
   10  3 2Ppy       0.00687   0.00000     -0.000   0.000   0.000
   10  4 2Ppz       0.05299   0.00000     -0.000   0.000   0.000
   10  5 2Ppx       0.02899   0.00000      0.000  -0.000  -0.000
   10     Total     0.76684   0.00000     -0.000   0.000  -0.000

   13  1 1s         1.01235   0.00000     -0.000  -0.000  -0.000
   13  2 1s         0.09949   0.00000      0.000   0.000  -0.000
   13  3 2Ppy       0.02489   0.00000      0.000   0.000   0.000
   13  4 2Ppz       0.01439   0.00000      0.000   0.000  -0.000
   13  5 2Ppx       0.01755   0.00000      0.000  -0.000   0.000
   13     Total     1.16866   0.00000     -0.000  -0.000  -0.000

   18  1 1s         1.04996   0.00000      0.000  -0.000  -0.000
   18  2 1s         0.08407   0.00000     -0.000   0.000   0.000
   18  3 2Ppy       0.02778   0.00000     -0.000   0.000   0.000
   18  4 2Ppz       0.01891   0.00000     -0.000  -0.000  -0.000
   18  5 2Ppx       0.01767   0.00000      0.000   0.000   0.000
   18     Total     1.19839   0.00000      0.000  -0.000  -0.000

   21  1 1s         1.06642   0.00000     -0.000  -0.000  -0.000
   21  2 1s         0.08280   0.00000      0.000   0.000   0.000
   21  3 2Ppy       0.02228   0.00000     -0.000  -0.000   0.000
   21  4 2Ppz       0.02109   0.00000      0.000   0.000   0.000
   21  5 2Ppx       0.01159   0.00000      0.000  -0.000  -0.000
   21     Total     1.20418   0.00000      0.000  -0.000  -0.000

   22  1 1s         1.05200   0.00000      0.000  -0.000  -0.000
   22  2 1s         0.08368   0.00000     -0.000   0.000   0.000
   22  3 2Ppy       0.02013   0.00000      0.000  -0.000   0.000
   22  4 2Ppz       0.01768   0.00000      0.000   0.000  -0.000
   22  5 2Ppx       0.01708   0.00000     -0.000  -0.000   0.000
   22     Total     1.19057   0.00000      0.000  -0.000  -0.000

   23  1 1s         1.06500   0.00000     -0.000   0.000  -0.000
   23  2 1s         0.08210   0.00000      0.000   0.000   0.000
   23  3 2Ppy       0.01685   0.00000     -0.000  -0.000  -0.000
   23  4 2Ppz       0.02462   0.00000      0.000  -0.000   0.000
   23  5 2Ppx       0.01349   0.00000      0.000  -0.000  -0.000
   23     Total     1.20205   0.00000     -0.000   0.000  -0.000

   27  1 1s         0.46352   0.00000     -0.000  -0.000  -0.000
   27  2 1s         0.19059   0.00000      0.000   0.000  -0.000
   27  3 2Ppy       0.02033   0.00000     -0.000   0.000  -0.000
   27  4 2Ppz       0.02547   0.00000     -0.000   0.000  -0.000
   27  5 2Ppx       0.02925   0.00000      0.000   0.000   0.000
   27     Total     0.72916   0.00000     -0.000   0.000  -0.000

   30  1 1s         0.48348   0.00000     -0.000   0.000  -0.000
   30  2 1s         0.18897   0.00000      0.000   0.000  -0.000
   30  3 2Ppy       0.02654   0.00000      0.000   0.000  -0.000
   30  4 2Ppz       0.03452   0.00000     -0.000  -0.000   0.000
   30  5 2Ppx       0.02316   0.00000      0.000  -0.000   0.000
   30     Total     0.75666   0.00000     -0.000   0.000  -0.000

----------------------------------------------------------------
Total              10.95489   0.00000     -0.000  -0.000  -0.000


Species: N                   

Atom      Orb        Charge      Spin       Svec
----------------------------------------------------------------
    2  1 2s         1.38100   0.00000     -0.000  -0.000  -0.000
    2  2 2s         0.12664   0.00000     -0.000   0.000   0.000
    2  3 2py        1.06823   0.00000      0.000   0.000  -0.000
    2  4 2pz        1.49541   0.00000      0.000  -0.000  -0.000
    2  5 2px        1.01723   0.00000      0.000   0.000  -0.000
    2  6 2py        0.19596   0.00000     -0.000  -0.000   0.000
    2  7 2pz        0.01430   0.00000     -0.000   0.000   0.000
    2  8 2px        0.21005   0.00000     -0.000  -0.000   0.000
    2  9 3Pdxy      0.00673   0.00000     -0.000   0.000   0.000
    2 10 3Pdyz      0.00606   0.00000      0.000   0.000   0.000
    2 11 3Pdz2      0.00151   0.00000     -0.000   0.000   0.000
    2 12 3Pdxz      0.00304   0.00000      0.000   0.000   0.000
    2 13 3Pdx2-y2   0.00297   0.00000      0.000  -0.000  -0.000
    2     Total     5.52912   0.00000      0.000   0.000  -0.000

    5  1 2s         1.55815   0.00000     -0.000   0.000  -0.000
    5  2 2s         0.08112   0.00000      0.000  -0.000  -0.000
    5  3 2py        0.90449   0.00000      0.000   0.000  -0.000
    5  4 2pz        1.22244   0.00000     -0.000  -0.000  -0.000
    5  5 2px        1.14189   0.00000      0.000  -0.000  -0.000
    5  6 2py        0.23014   0.00000     -0.000  -0.000   0.000
    5  7 2pz        0.05524   0.00000      0.000  -0.000   0.000
    5  8 2px        0.14630   0.00000     -0.000   0.000   0.000
    5  9 3Pdxy      0.00854   0.00000      0.000  -0.000   0.000
    5 10 3Pdyz      0.00700   0.00000     -0.000  -0.000   0.000
    5 11 3Pdz2      0.00189   0.00000     -0.000  -0.000   0.000
    5 12 3Pdxz      0.01129   0.00000     -0.000   0.000   0.000
    5 13 3Pdx2-y2   0.00920   0.00000     -0.000   0.000   0.000
    5     Total     5.37769   0.00000     -0.000  -0.000  -0.000

    8  1 2s         1.28499   0.00000      0.000   0.000  -0.000
    8  2 2s         0.17148   0.00000     -0.000  -0.000   0.000
    8  3 2py        1.06319   0.00000     -0.000  -0.000   0.000
    8  4 2pz        1.57113   0.00000     -0.000  -0.000  -0.000
    8  5 2px        1.00439   0.00000      0.000  -0.000  -0.000
    8  6 2py        0.19457   0.00000      0.000   0.000   0.000
    8  7 2pz        0.02732   0.00000     -0.000   0.000  -0.000
    8  8 2px        0.22864   0.00000     -0.000   0.000   0.000
    8  9 3Pdxy      0.00271   0.00000      0.000  -0.000  -0.000
    8 10 3Pdyz      0.00083   0.00000      0.000   0.000  -0.000
    8 11 3Pdz2      0.00272   0.00000      0.000  -0.000   0.000
    8 12 3Pdxz      0.00243   0.00000     -0.000  -0.000  -0.000
    8 13 3Pdx2-y2   0.00434   0.00000      0.000  -0.000  -0.000
    8     Total     5.55873   0.00000     -0.000  -0.000  -0.000

   11  1 2s         1.45847   0.00000     -0.000   0.000   0.000
   11  2 2s         0.11411   0.00000      0.000  -0.000  -0.000
   11  3 2py        1.22386   0.00000      0.000   0.000   0.000
   11  4 2pz        1.28809   0.00000      0.000  -0.000   0.000
   11  5 2px        0.79964   0.00000      0.000   0.000   0.000
   11  6 2py        0.11144   0.00000     -0.000  -0.000  -0.000
   11  7 2pz        0.04609   0.00000      0.000   0.000  -0.000
   11  8 2px        0.31758   0.00000     -0.000  -0.000  -0.000
   11  9 3Pdxy      0.00736   0.00000      0.000   0.000   0.000
   11 10 3Pdyz      0.00606   0.00000     -0.000   0.000   0.000
   11 11 3Pdz2      0.00055   0.00000      0.000   0.000  -0.000
   11 12 3Pdxz      0.00496   0.00000     -0.000   0.000  -0.000
   11 13 3Pdx2-y2   0.00523   0.00000      0.000  -0.000   0.000
   11     Total     5.38344   0.00000      0.000  -0.000   0.000

   14  1 2s         1.50657   0.00000      0.000  -0.000   0.000
   14  2 2s         0.10226   0.00000     -0.000   0.000   0.000
   14  3 2py        0.84416   0.00000      0.000  -0.000   0.000
   14  4 2pz        1.23727   0.00000      0.000  -0.000   0.000
   14  5 2px        1.17721   0.00000     -0.000   0.000  -0.000
   14  6 2py        0.27744   0.00000      0.000  -0.000  -0.000
   14  7 2pz        0.05438   0.00000      0.000   0.000   0.000
   14  8 2px        0.13202   0.00000      0.000  -0.000  -0.000
   14  9 3Pdxy      0.00949   0.00000      0.000  -0.000  -0.000
   14 10 3Pdyz      0.00490   0.00000      0.000   0.000  -0.000
   14 11 3Pdz2      0.00146   0.00000     -0.000   0.000  -0.000
   14 12 3Pdxz      0.01066   0.00000     -0.000  -0.000  -0.000
   14 13 3Pdx2-y2   0.00791   0.00000     -0.000  -0.000   0.000
   14     Total     5.36575   0.00000      0.000  -0.000   0.000

   16  1 2s         1.37898   0.00000     -0.000   0.000  -0.000
   16  2 2s         0.12572   0.00000      0.000  -0.000   0.000
   16  3 2py        0.99134   0.00000      0.000  -0.000  -0.000
   16  4 2pz        1.54757   0.00000      0.000   0.000  -0.000
   16  5 2px        1.08052   0.00000     -0.000  -0.000  -0.000
   16  6 2py        0.23939   0.00000     -0.000   0.000  -0.000
   16  7 2pz        0.00324   0.00000      0.000  -0.000  -0.000
   16  8 2px        0.18039   0.00000     -0.000   0.000  -0.000
   16  9 3Pdxy      0.00153   0.00000     -0.000  -0.000   0.000
   16 10 3Pdyz      0.00476   0.00000     -0.000  -0.000  -0.000
   16 11 3Pdz2      0.00088   0.00000      0.000   0.000   0.000
   16 12 3Pdxz      0.00237   0.00000      0.000   0.000  -0.000
   16 13 3Pdx2-y2   0.00610   0.00000      0.000   0.000   0.000
   16     Total     5.56280   0.00000      0.000  -0.000  -0.000

   26  1 2s         1.37325   0.00000      0.000  -0.000  -0.000
   26  2 2s         0.12530   0.00000     -0.000   0.000  -0.000
   26  3 2py        1.11317   0.00000     -0.000  -0.000  -0.000
   26  4 2pz        1.53049   0.00000      0.000  -0.000  -0.000
   26  5 2px        0.94633   0.00000     -0.000  -0.000  -0.000
   26  6 2py        0.16912   0.00000      0.000  -0.000   0.000
   26  7 2pz        0.00501   0.00000     -0.000   0.000  -0.000
   26  8 2px        0.26512   0.00000      0.000   0.000  -0.000
   26  9 3Pdxy      0.00064   0.00000     -0.000  -0.000  -0.000
   26 10 3Pdyz      0.00080   0.00000     -0.000  -0.000   0.000
   26 11 3Pdz2     -0.00127   0.00000     -0.000  -0.000   0.000
   26 12 3Pdxz      0.00469   0.00000     -0.000  -0.000  -0.000
   26 13 3Pdx2-y2   0.00218   0.00000     -0.000  -0.000   0.000
   26     Total     5.53482   0.00000      0.000  -0.000  -0.000

----------------------------------------------------------------
Total              49.26725   0.00000     -0.000  -0.000  -0.000


Species: Si                  

Atom      Orb        Charge      Spin       Svec
----------------------------------------------------------------
    3  1 3s         0.55108   0.00000     -0.000   0.000   0.000
    3  2 3s         0.38746   0.00000      0.000  -0.000  -0.000
    3  3 3py        0.08187   0.00000      0.000  -0.000   0.000
    3  4 3pz        0.53578   0.00000      0.000   0.000   0.000
    3  5 3px        0.36830   0.00000      0.000  -0.000   0.000
    3  6 3py        0.49898   0.00000     -0.000   0.000   0.000
    3  7 3pz        0.17596   0.00000     -0.000   0.000   0.000
    3  8 3px        0.23722   0.00000      0.000  -0.000   0.000
    3  9 3Pdxy      0.10815   0.00000     -0.000   0.000   0.000
    3 10 3Pdyz      0.05207   0.00000     -0.000  -0.000   0.000
    3 11 3Pdz2      0.01014   0.00000      0.000  -0.000   0.000
    3 12 3Pdxz      0.13297   0.00000      0.000   0.000   0.000
    3 13 3Pdx2-y2   0.32440   0.00000      0.000   0.000   0.000
    3     Total     3.46439   0.00000      0.000   0.000   0.000

    6  1 3s         0.66191   0.00000      0.000  -0.000   0.000
    6  2 3s         0.37038   0.00000     -0.000   0.000   0.000
    6  3 3py        0.13106   0.00000     -0.000  -0.000   0.000
    6  4 3pz        0.69491   0.00000      0.000  -0.000   0.000
    6  5 3px        0.49065   0.00000      0.000  -0.000   0.000
    6  6 3py        0.46528   0.00000      0.000   0.000   0.000
    6  7 3pz        0.24291   0.00000     -0.000  -0.000   0.000
    6  8 3px        0.24555   0.00000     -0.000  -0.000   0.000
    6  9 3Pdxy      0.18500   0.00000      0.000  -0.000   0.000
    6 10 3Pdyz      0.14719   0.00000      0.000  -0.000  -0.000
    6 11 3Pdz2      0.01170   0.00000     -0.000   0.000   0.000
    6 12 3Pdxz      0.03653   0.00000      0.000   0.000   0.000
    6 13 3Pdx2-y2   0.18872   0.00000      0.000   0.000   0.000
    6     Total     3.87179   0.00000      0.000  -0.000   0.000

    7  1 3s         0.62630   0.00000      0.000   0.000   0.000
    7  2 3s         0.36980   0.00000      0.000  -0.000  -0.000
    7  3 3py        0.37273   0.00000     -0.000   0.000   0.000
    7  4 3pz        0.49275   0.00000      0.000   0.000  -0.000
    7  5 3px        0.08012   0.00000     -0.000  -0.000   0.000
    7  6 3py        0.30326   0.00000      0.000  -0.000   0.000
    7  7 3pz        0.20848   0.00000     -0.000  -0.000  -0.000
    7  8 3px        0.42173   0.00000      0.000   0.000   0.000
    7  9 3Pdxy      0.20446   0.00000      0.000   0.000   0.000
    7 10 3Pdyz      0.14274   0.00000      0.000  -0.000  -0.000
    7 11 3Pdz2      0.01066   0.00000     -0.000  -0.000  -0.000
    7 12 3Pdxz      0.15028   0.00000      0.000  -0.000   0.000
    7 13 3Pdx2-y2   0.24195   0.00000      0.000  -0.000  -0.000
    7     Total     3.62526   0.00000     -0.000  -0.000  -0.000

   12  1 3s         0.52799   0.00000     -0.000   0.000  -0.000
   12  2 3s         0.40196   0.00000      0.000  -0.000  -0.000
   12  3 3py        0.23070   0.00000     -0.000   0.000  -0.000
   12  4 3pz        0.43816   0.00000     -0.000   0.000  -0.000
   12  5 3px        0.29010   0.00000      0.000   0.000  -0.000
   12  6 3py        0.39442   0.00000      0.000  -0.000   0.000
   12  7 3pz        0.17047   0.00000      0.000  -0.000  -0.000
   12  8 3px        0.34397   0.00000     -0.000  -0.000   0.000
   12  9 3Pdxy      0.38706   0.00000      0.000   0.000   0.000
   12 10 3Pdyz      0.08025   0.00000      0.000  -0.000  -0.000
   12 11 3Pdz2      0.01045   0.00000     -0.000  -0.000   0.000
   12 12 3Pdxz      0.09255   0.00000      0.000   0.000  -0.000
   12 13 3Pdx2-y2   0.16490   0.00000     -0.000  -0.000   0.000
   12     Total     3.53297   0.00000     -0.000   0.000  -0.000

   15  1 3s         0.66106   0.00000     -0.000   0.000   0.000
   15  2 3s         0.36709   0.00000      0.000   0.000   0.000
   15  3 3py       -0.03270   0.00000     -0.000   0.000   0.000
   15  4 3pz        0.51045   0.00000     -0.000  -0.000   0.000
   15  5 3px        0.38870   0.00000     -0.000   0.000  -0.000
   15  6 3py        0.47444   0.00000      0.000  -0.000   0.000
   15  7 3pz        0.20030   0.00000     -0.000   0.000   0.000
   15  8 3px        0.34010   0.00000      0.000  -0.000   0.000
   15  9 3Pdxy      0.14150   0.00000      0.000   0.000   0.000
   15 10 3Pdyz      0.12584   0.00000      0.000   0.000   0.000
   15 11 3Pdz2      0.01383   0.00000      0.000  -0.000   0.000
   15 12 3Pdxz      0.12456   0.00000     -0.000   0.000   0.000
   15 13 3Pdx2-y2   0.30183   0.00000     -0.000   0.000   0.000
   15     Total     3.61701   0.00000     -0.000   0.000   0.000

   17  1 3s         0.73183   0.00000      0.000   0.000   0.000
   17  2 3s         0.35628   0.00000     -0.000   0.000   0.000
   17  3 3py        0.09608   0.00000      0.000   0.000   0.000
   17  4 3pz        0.62694   0.00000     -0.000   0.000  -0.000
   17  5 3px        0.35546   0.00000     -0.000  -0.000  -0.000
   17  6 3py        0.45292   0.00000     -0.000  -0.000   0.000
   17  7 3pz        0.15085   0.00000      0.000   0.000   0.000
   17  8 3px        0.33538   0.00000      0.000   0.000   0.000
   17  9 3Pdxy      0.15122   0.00000      0.000  -0.000   0.000
   17 10 3Pdyz      0.02343   0.00000      0.000  -0.000  -0.000
   17 11 3Pdz2      0.00919   0.00000     -0.000  -0.000  -0.000
   17 12 3Pdxz      0.12869   0.00000      0.000   0.000  -0.000
   17 13 3Pdx2-y2   0.12693   0.00000      0.000   0.000  -0.000
   17     Total     3.54519   0.00000      0.000   0.000   0.000

   19  1 3s         0.86246   0.00000      0.000   0.000   0.000
   19  2 3s         0.31296   0.00000     -0.000  -0.000  -0.000
   19  3 3py        0.44685   0.00000     -0.000  -0.000   0.000
   19  4 3pz        0.66014   0.00000      0.000  -0.000   0.000
   19  5 3px        0.35328   0.00000     -0.000  -0.000   0.000
   19  6 3py        0.32153   0.00000      0.000  -0.000   0.000
   19  7 3pz        0.26802   0.00000     -0.000  -0.000   0.000
   19  8 3px        0.35633   0.00000     -0.000   0.000  -0.000
   19  9 3Pdxy      0.09352   0.00000     -0.000   0.000   0.000
   19 10 3Pdyz      0.02940   0.00000     -0.000   0.000  -0.000
   19 11 3Pdz2      0.01455   0.00000      0.000  -0.000  -0.000
   19 12 3Pdxz      0.05651   0.00000     -0.000   0.000  -0.000
   19 13 3Pdx2-y2   0.13124   0.00000     -0.000   0.000   0.000
   19     Total     3.90677   0.00000     -0.000  -0.000   0.000

   20  1 3s         0.54051   0.00000      0.000  -0.000   0.000
   20  2 3s         0.44401   0.00000     -0.000   0.000   0.000
   20  3 3py        0.31078   0.00000     -0.000   0.000   0.000
   20  4 3pz        0.25494   0.00000      0.000   0.000   0.000
   20  5 3px        0.45522   0.00000     -0.000   0.000   0.000
   20  6 3py        0.38731   0.00000      0.000  -0.000   0.000
   20  7 3pz        0.42305   0.00000     -0.000  -0.000   0.000
   20  8 3px        0.27757   0.00000      0.000  -0.000   0.000
   20  9 3Pdxy      0.06996   0.00000      0.000  -0.000  -0.000
   20 10 3Pdyz      0.08426   0.00000     -0.000   0.000   0.000
   20 11 3Pdz2      0.05092   0.00000      0.000   0.000  -0.000
   20 12 3Pdxz      0.07241   0.00000      0.000  -0.000   0.000
   20 13 3Pdx2-y2   0.04584   0.00000      0.000   0.000   0.000
   20     Total     3.41678   0.00000      0.000   0.000   0.000

   24  1 3s         0.60606   0.00000      0.000   0.000   0.000
   24  2 3s         0.36927   0.00000     -0.000  -0.000  -0.000
   24  3 3py        0.27093   0.00000     -0.000   0.000  -0.000
   24  4 3pz        0.41022   0.00000     -0.000  -0.000  -0.000
   24  5 3px        0.16813   0.00000      0.000  -0.000   0.000
   24  6 3py        0.39797   0.00000      0.000  -0.000   0.000
   24  7 3pz        0.19286   0.00000     -0.000  -0.000  -0.000
   24  8 3px        0.36021   0.00000     -0.000   0.000  -0.000
   24  9 3Pdxy      0.14221   0.00000      0.000   0.000   0.000
   24 10 3Pdyz      0.14025   0.00000      0.000   0.000   0.000
   24 11 3Pdz2      0.01535   0.00000     -0.000   0.000  -0.000
   24 12 3Pdxz      0.12105   0.00000     -0.000  -0.000  -0.000
   24 13 3Pdx2-y2   0.34950   0.00000     -0.000  -0.000  -0.000
   24     Total     3.54403   0.00000      0.000  -0.000  -0.000

   28  1 3s         0.43341   0.00000      0.000  -0.000   0.000
   28  2 3s         0.37764   0.00000     -0.000   0.000  -0.000
   28  3 3py        0.16123   0.00000     -0.000  -0.000   0.000
   28  4 3pz        0.39993   0.00000      0.000   0.000  -0.000
   28  5 3px        0.16702   0.00000      0.000   0.000   0.000
   28  6 3py        0.36832   0.00000      0.000   0.000   0.000
   28  7 3pz        0.20459   0.00000      0.000  -0.000  -0.000
   28  8 3px        0.38535   0.00000     -0.000  -0.000  -0.000
   28  9 3Pdxy      0.14400   0.00000     -0.000  -0.000  -0.000
   28 10 3Pdyz      0.12385   0.00000     -0.000  -0.000   0.000
   28 11 3Pdz2      0.01559   0.00000      0.000   0.000  -0.000
   28 12 3Pdxz      0.15667   0.00000      0.000   0.000  -0.000
   28 13 3Pdx2-y2   0.35130   0.00000     -0.000   0.000  -0.000
   28     Total     3.28889   0.00000      0.000   0.000  -0.000

----------------------------------------------------------------
Total              85.08031   0.00000      0.000  -0.000  -0.000


Species: O                   

Atom      Orb        Charge      Spin       Svec
----------------------------------------------------------------
   25  1 2s         1.73831   0.00000     -0.000  -0.000   0.000
   25  2 2s         0.07126   0.00000      0.000   0.000  -0.000
   25  3 2py        1.46538   0.00000     -0.000  -0.000   0.000
   25  4 2pz        1.50923   0.00000      0.000   0.000   0.000
   25  5 2px        1.59003   0.00000     -0.000   0.000   0.000
   25  6 2py        0.03443   0.00000      0.000   0.000   0.000
   25  7 2pz        0.00064   0.00000     -0.000  -0.000   0.000
   25  8 2px        0.02420   0.00000     -0.000  -0.000   0.000
   25  9 3Pdxy      0.00724   0.00000      0.000  -0.000   0.000
   25 10 3Pdyz      0.00621   0.00000     -0.000  -0.000  -0.000
   25 11 3Pdz2      0.00136   0.00000     -0.000  -0.000  -0.000
   25 12 3Pdxz      0.00442   0.00000     -0.000   0.000  -0.000
   25 13 3Pdx2-y2   0.00741   0.00000     -0.000  -0.000  -0.000
   25     Total     6.46010   0.00000     -0.000   0.000   0.000

   29  1 2s         1.73917   0.00000     -0.000  -0.000   0.000
   29  2 2s         0.06914   0.00000      0.000   0.000   0.000
   29  3 2py        1.48375   0.00000     -0.000   0.000   0.000
   29  4 2pz        1.52852   0.00000     -0.000  -0.000   0.000
   29  5 2px        1.52584   0.00000      0.000   0.000   0.000
   29  6 2py        0.04241   0.00000     -0.000  -0.000  -0.000
   29  7 2pz        0.00478   0.00000      0.000   0.000   0.000
   29  8 2px        0.03738   0.00000     -0.000   0.000   0.000
   29  9 3Pdxy      0.00818   0.00000     -0.000   0.000  -0.000
   29 10 3Pdyz      0.00486   0.00000      0.000  -0.000  -0.000
   29 11 3Pdz2      0.00139   0.00000     -0.000   0.000   0.000
   29 12 3Pdxz      0.00629   0.00000     -0.000   0.000  -0.000
   29 13 3Pdx2-y2   0.00788   0.00000     -0.000   0.000   0.000
   29     Total     6.45958   0.00000     -0.000  -0.000   0.000

----------------------------------------------------------------
Total              98.00000   0.00000      0.000  -0.000   0.000


siesta: Eigenvalues (eV):
ik =     1
  -22.9215  -22.9215  -22.5358  -22.5358  -21.9763  -21.9763  -21.2570  -21.2570  -21.0747  -21.0747
  -20.8044  -20.8044  -19.4817  -19.4817  -19.2943  -19.2943  -18.6890  -18.6890  -15.3125  -15.3125
  -14.3755  -14.3755  -13.6828  -13.6828  -13.6776  -13.6776  -13.3010  -13.3010  -12.9656  -12.9656
  -12.5550  -12.5550  -12.0637  -12.0637  -12.0298  -12.0298  -11.5914  -11.5914  -11.4990  -11.4990
  -10.9838  -10.9838  -10.7620  -10.7620  -10.2608  -10.2608   -9.8333   -9.8333   -9.5750   -9.5750
   -9.3321   -9.3321   -9.1850   -9.1850   -9.1823   -9.1823   -8.8903   -8.8903   -8.7245   -8.7245
   -8.4003   -8.4003   -8.2396   -8.2396   -8.1973   -8.1973   -8.1291   -8.1291   -7.9902   -7.9902
   -7.9153   -7.9153   -7.3966   -7.3966   -7.3931   -7.3931   -7.3148   -7.3148   -6.8301   -6.8301
   -6.8097   -6.8097   -6.6442   -6.6442   -6.4420   -6.4420   -6.3647   -6.3647   -6.1806   -6.1806
   -5.9453   -5.9453   -5.8049   -5.8049   -5.6114   -5.6114   -4.2870   -4.2870   -3.7267   -3.7267
   -2.8444   -2.8444   -2.4697   -2.4697   -2.2760   -2.2760   -2.1809   -2.1809   -2.1046   -2.1046
   -1.9629   -1.9629   -1.7168   -1.7168   -1.6385   -1.6385   -1.5910   -1.5910   -1.4146   -1.4146
   -1.0928   -1.0928   -0.6818   -0.6818   -0.3949   -0.3949   -0.2935   -0.2935   -0.2291   -0.2291
   -0.2053   -0.2053   -0.0698   -0.0698    0.2649    0.2649    0.4073    0.4073    0.5153    0.5153
    0.5601    0.5601    0.7261    0.7261    1.0624    1.0624    1.2454    1.2454    1.2771    1.2771
    1.3411    1.3411    1.5402    1.5402    1.8696    1.8696    2.0374    2.0374    2.1633    2.1633
    2.5056    2.5056    2.6184    2.6184    2.7259    2.7259    2.8189    2.8189    2.9462    2.9462
    2.9759    2.9759    3.0689    3.0689    3.1135    3.1135    3.1668    3.1668    3.5645    3.5645
    3.7227    3.7227    3.9159    3.9159    4.1404    4.1404    4.2702    4.2702    4.3902    4.3902
    4.4906    4.4906    4.6329    4.6329    4.6585    4.6585    4.7451    4.7451    4.9947    4.9947
    5.0711    5.0711    5.2289    5.2289    5.4217    5.4217    5.5852    5.5852    5.8319    5.8319
    5.8779    5.8779    6.0156    6.0156    6.0786    6.0786    6.2953    6.2953    6.3824    6.3824
    6.5275    6.5275    6.6409    6.6409    6.7914    6.7914    6.9804    6.9804    7.0909    7.0909
    7.1845    7.1845    7.5173    7.5173    7.7140    7.7140    7.7362    7.7362    7.8911    7.8911
    7.9445    7.9445    8.2892    8.2892    8.3011    8.3011    8.3477    8.3477    8.5000    8.5000
    8.5453    8.5453    8.9152    8.9152    8.9307    8.9307    9.3358    9.3358    9.6203    9.6203
    9.6730    9.6730    9.8518    9.8518    9.8913    9.8913    9.9096    9.9096    9.9677    9.9677
   10.0004   10.0004   10.4095   10.4095   10.6483   10.6483   10.9209   10.9209   11.1162   11.1162
   11.3394   11.3394   11.3648   11.3648   11.5169   11.5169   11.7258   11.7258   11.8150   11.8150
   11.8818   11.8818   12.3059   12.3059   12.4277   12.4277   12.6708   12.6708   12.7585   12.7585
   12.9165   12.9165   13.0595   13.0595   13.2476   13.2476   13.2909   13.2909   13.4405   13.4405
   13.6497   13.6497   13.9154   13.9154   14.3574   14.3574   14.5446   14.5446   14.7611   14.7611
   14.7894   14.7894   15.1107   15.1107   15.5544   15.5544   16.0838   16.0838   16.3158   16.3159
   16.3868   16.3868   16.8199   16.8199   16.8830   16.8830   17.2171   17.2171   17.3283   17.3283
   17.9052   17.9052   18.0401   18.0401   18.3576   18.3576   18.5870   18.5870   18.7246   18.7246
   18.7836   18.7836   19.7746   19.7746   19.9622   19.9622   20.3227   20.3227   20.5511   20.5511
   20.9086   20.9086   21.0656   21.0656   21.2972   21.2972   21.4791   21.4791   22.2312   22.2312
   22.4555   22.4555   22.8245   22.8245   22.9723   22.9723   23.0478   23.0478   23.0661   23.0661
   24.2393   24.2393   24.6507   24.6507   25.1107   25.1107   25.6044   25.6044   25.8841   25.8841
   26.1619   26.1619   26.6083   26.6083   27.0411   27.0411   27.9419   27.9419   28.1545   28.1545
   28.4832   28.4832   28.5438   28.5438   29.8482   29.8482   29.9753   29.9753   30.5271   30.5271
   30.7849   30.7849   30.8394   30.8394   31.3093   31.3093   31.4391   31.4391   31.6989   31.6989
   31.7696   31.7696   32.3902   32.3902   32.4644   32.4644   33.4570   33.4570   33.6619   33.6619
   34.0194   34.0194   34.2644   34.2644   34.4771   34.4771   34.9454   34.9454   35.4668   35.4668
   35.8890   35.8890   36.1185   36.1185   36.3913   36.3913   37.1884   37.1884   37.5373   37.5373
   37.6974   37.6974   37.7083   37.7083   38.5030   38.5030   38.8387   38.8387   38.9570   38.9570
   39.8829   39.8829   40.4881   40.4881   40.7510   40.7510   41.4023   41.4023   41.6410   41.6410
   41.7458   41.7458   41.8682   41.8682   42.0933   42.0933   42.9006   42.9006   43.2936   43.2936
   43.8804   43.8804   44.5046   44.5046   44.7526   44.7526   44.9291   44.9291   45.2420   45.2420
   45.2592   45.2592   45.8325   45.8325   46.4677   46.4677   46.5792   46.5792   47.1605   47.1605
   47.6897   47.6897   48.0145   48.0145   48.6536   48.6536   48.8286   48.8286   49.2072   49.2072
   49.8877   49.8877   50.1700   50.1700   50.4345   50.4345   50.6211   50.6211   50.8041   50.8041
   51.9402   51.9402   52.2601   52.2601   54.0017   54.0017   54.1030   54.1030   54.8493   54.8493
   55.2194   55.2194   55.4741   55.4741   56.3192   56.3192   56.4107   56.4107   56.6141   56.6141
   56.8970   56.8970   57.6340   57.6340   58.6135   58.6135   59.0221   59.0221   59.6846   59.6846
   60.3149   60.3149   61.2492   61.2492   61.6296   61.6296   62.2241   62.2241   62.8552   62.8552
   65.6298   65.6298   66.3491   66.3491   67.1128   67.1128   67.3187   67.3187   68.1712   68.1712
   68.8762   68.8762   71.4085   71.4085   73.6638   73.6638   78.8409   78.8409   91.4563   91.4563
   92.4631   92.4631   92.9456   92.9456   95.5890   95.5890   97.7438   97.7438  100.4341  100.4341
  100.6946  100.6946  103.0047  103.0047  113.4044  113.4044  120.3774  120.3774  123.0564  123.0564
  135.6315  135.6315  140.4671  140.4671
siesta: Fermi energy =      -4.006855 eV

siesta: Program's energy decomposition (eV):
siesta: Ebs     =     -1119.428245
siesta: Eions   =      3553.971015
siesta: Ena     =       377.805285
siesta: Ekin    =      2751.332669
siesta: Enl     =     -2532.137434
siesta: Eso     =        -0.004696
siesta: Edftu   =         0.000000
siesta: DEna    =        37.134605
siesta: DUscf   =        14.127863
siesta: DUext   =         0.000000
siesta: Exc     =     -1093.039042
siesta: eta*DQ  =         0.000000
siesta: Emadel  =         0.000000
siesta: Emeta   =         0.000000
siesta: Emolmec =         0.000000
siesta: Ekinion =         0.000000
siesta: Eharris =     -3998.751763
siesta: Etot    =     -3998.751763
siesta: FreeEng =     -3998.751787

siesta: Final energy (eV):
siesta:  Band Struct. =   -1119.428245
siesta:       Kinetic =    2751.332669
siesta:       Hartree =    7086.648477
siesta:       Edftu   =       0.000000
siesta:       Eso     =      -0.004696
siesta:    Ext. field =       0.000000
siesta:   Exch.-corr. =   -1093.039042
siesta:  Ion-electron =  -16625.465663
siesta:       Ion-ion =    3881.776491
siesta:       Ekinion =       0.000000
siesta:         Total =   -3998.751763
siesta:         Fermi =      -4.006855

siesta: Atomic forces (eV/Ang):
siesta:      1   -0.060061    0.065564    0.000002
siesta:      2   -0.005882   -0.046475   -0.000002
siesta:      3   -0.003419    0.040818    0.000004
siesta:      4   -0.058144   -0.006696    0.000001
siesta:      5    0.018907   -0.047939   -0.000003
siesta:      6    0.024847    0.005043   -0.000000
siesta:      7   -0.074415    0.110997    0.000007
siesta:      8    0.056422   -0.046798   -0.000024
siesta:      9    0.035014   -0.062847    0.000035
siesta:     10    0.089728    0.073199    0.000005
siesta:     11   -0.036288   -0.032569   -0.000008
siesta:     12    0.047005    0.063558    0.000000
siesta:     13   -0.087228   -0.150064   -0.000000
siesta:     14   -0.022031   -0.012242    0.000000
siesta:     15    0.000122    0.066622   -0.000000
siesta:     16   -0.003566    0.085285    0.008015
siesta:     17   -0.007989   -0.044590   -0.039761
siesta:     18   -0.175166    0.168425    0.008238
siesta:     19    0.004549    0.030001   -0.041195
siesta:     20    0.042151   -0.053766    0.027251
siesta:     21   -0.051676    0.268047    0.049374
siesta:     22   -0.016842    0.191958    0.016314
siesta:     23    0.001667    0.032905   -0.052656
siesta:     24    0.045831   -0.118785   -0.026638
siesta:     25   -3.254605    2.043037    0.003083
siesta:     26   -0.042700    0.073020    0.006533
siesta:     27    0.020771   -0.107942    0.002791
siesta:     28   -0.001636   -0.126347   -0.000874
siesta:     29    5.341248   -0.212030   -0.001104
siesta:     30    0.005711    0.125565    0.008276
siesta: ----------------------------------------
siesta:    Tot    1.832323    2.374955   -0.032337

siesta: Stress tensor (static) (eV/Ang**3):
siesta:    -0.001051    0.000169    0.000029
siesta:     0.000169   -0.000234   -0.000027
siesta:     0.000029   -0.000027   -0.000130

siesta: Cell volume =       4533.677112 Ang**3

siesta: Pressure (static):
siesta:                Solid            Molecule  Units
siesta:           0.00000513         -0.00002094  Ry/Bohr**3
siesta:           0.00047141         -0.00192240  eV/Ang**3
siesta:           0.75529283         -3.08006535  kBar
(Free)E+ p_basis*V_orbitals  =       -3977.623702
(Free)Eharris+ p_basis*V_orbitals  =       -3977.623702
     spin moment: S , {S} =    0.00000   0.00000  -0.00000   0.00000

siesta: Electric dipole (a.u.)  =   -0.314896    2.558681   -0.012991
siesta: Electric dipole (Debye) =   -0.800385    6.503522   -0.033020

cite: Please see "AT.bib" for an exhaustive BiBTeX file.
cite: Please clearly indicate Siesta version in published work: v4.1.5-1-g384057250
cite: This calculation has made use of the following articles
cite: which are encouraged to be cited in a published work.
        Primary SIESTA paper
          DOI: www.doi.org/10.1088/0953-8984/14/11/302
        Spin-orbit coupling (on-site approximation)
          DOI: www.doi.org/10.1088/0953-8984/19/19/489001


WARNING: alloc-realloc-dealloc name mismatch
         Name: atomlist isa
         Size:              -120. Bytes
         Node:     0
         Subsequent mismatches will not be reported
>> End of run:  22-MAY-2023  10:32:43
Job completed
