Siesta Version  : v4.1.5-1-g384057250
Architecture    : gcc
Compiler version: GNU Fortran (Ubuntu 11.3.0-1ubuntu1~22.04) 11.3.0
Compiler flags  : mpifort -O2 -fPIC -ftree-vectorize -fallow-argument-mismatch
PP flags        : -DFC_HAVE_ABORT -DMPI -DSIESTA__FLOOK -DSIESTA__METIS -DSIESTA__MUMPS -DCDF -DNCDF -DNCDF_4 -DNCDF_PARALLEL -DSIESTA__MRRR -DSIESTA__ELPA
Libraries       : libncdf.a libfdict.a  -lflookall -ldl -lnetcdff -lnetcdf -lhdf5_hl -lhdf5 -lhdf5_fortran -lz -lscalapack-openmpi -lopenblas -lmetis -lzmumps -lcmumps -ldmumps -lmumps_common -lpord -lsmumps -lesmumps -lscotch -lscotcherr -fopenmp -lelpa
PARALLEL version
NetCDF support
NetCDF-4 support
NetCDF-4 MPI-IO support
METIS ordering support
Lua support

* Running on 4 nodes in parallel
>> Start of run:  28-JUN-2023  15:57:45

                           ***********************       
                           *  WELCOME TO SIESTA  *       
                           ***********************       

reinit: Reading from standard input
reinit: Dumped input in INPUT_TMP.06390
************************** Dump of input data file ****************************
SystemLabel      GC
NumberOfAtoms    29
NumberOfSpecies  4
%block ChemicalSpeciesLabel
    1    8  O
    2    7  N
    3   14  Si
    4    1  H
%endblock ChemicalSpeciesLabel
# Single point calculation
MD.TypeOfRun                CG
MD.Steps                    0
SCF.MustConverge            F # In case it does not. There can be 2 very close atoms
AtomicCoordinatesFormat NotScaledCartesianAng
%block AtomicCoordinatesAndAtomicSpecies
1.043624880    3.939228610    0.000000000       1
-3.040641290   1.071078170    0.000000000       2
2.054601450    1.213582070    0.000000000       2
0.999014100    -1.732643800   0.000000000       2
-2.132351640   -1.812968220   0.000000000       2
3.860190550    -1.112298180   0.000000000       2
-1.236183220   1.152964460    0.000000000       3
-0.532924260   -0.939006270   0.000000000       3
0.635660470    2.374516770    0.000000000       3
2.245170240    -0.549967100   0.000000000       3
-3.449816660   -0.583665030   0.000000000       3
2.963714090    1.790992630    0.000000000       4
-4.845591350   -1.123549660   0.000000000       4
4.007020910    -2.152308560   0.000000000       4
4.772194380    -0.502318160   0.000000000       4
-2.265399090   -2.864605110   0.000000000       4
7.216778281    6.456699217    0.000000000       3
9.121662251    7.663338157    0.000000000       3
8.625908111    3.690364247    0.000000000       3
10.703378401   6.159581407    0.000000000       3
7.276400951    4.739271647    0.000000000       2
5.677643221    7.210376527    0.000000000       2
10.278203371   4.420201467    0.000000000       2
9.313007051    9.155491907    0.000000000       4
12.187746381   6.378312227    0.000000000       4
5.566297941    8.259571637    0.000000000       4
4.745085511    6.585462347    0.000000000       4
8.615681281    2.082253127    0.000000000       1
11.053629251   3.693509907    0.000000000       4
%endblock AtomicCoordinatesAndAtomicSpecies
%include ../../../Defaults.fdf
************************** End of input data file *****************************

reinit: -----------------------------------------------------------------------
reinit: System Name: 
reinit: -----------------------------------------------------------------------
reinit: System Label: GC
reinit: -----------------------------------------------------------------------

initatom: Reading input for the pseudopotentials and atomic orbitals ----------
Species number:   1 Atomic number:    8 Label: O
Species number:   2 Atomic number:    7 Label: N
Species number:   3 Atomic number:   14 Label: Si
Species number:   4 Atomic number:    1 Label: H

Ground state valence configuration:   2s02  2p04
Reading pseudopotential information in formatted form from O.psf

Pseudopotential generated from a relativistic atomic calculation

Valence configuration for pseudopotential generation:
2s( 2.00) rc: 0.45
2p( 4.00) rc: 0.92
3d( 0.00) rc: 2.24
4f( 0.00) rc: 0.25
Ground state valence configuration:   2s02  2p03
Reading pseudopotential information in formatted form from N.psf

Pseudopotential generated from a relativistic atomic calculation

Valence configuration for pseudopotential generation:
2s( 2.00) rc: 0.94
2p( 3.00) rc: 0.59
3d( 0.00) rc: 3.46
4f( 0.00) rc: 2.47
Ground state valence configuration:   3s02  3p02
Reading pseudopotential information in formatted form from Si.psf

Pseudopotential generated from a relativistic atomic calculation

Valence configuration for pseudopotential generation:
3s( 2.00) rc: 1.67
3p( 2.00) rc: 2.04
3d( 0.00) rc: 2.89
4f( 0.00) rc: 2.49
Ground state valence configuration:   1s01
Reading pseudopotential information in formatted form from H.psf

Pseudopotential generated from a relativistic atomic calculation

Valence configuration for pseudopotential generation:
1s( 1.00) rc: 0.01
2p( 0.00) rc: 0.60
3d( 0.00) rc: 1.99
4f( 0.00) rc: 2.49
For O, standard SIESTA heuristics set lmxkb to 3
 (one more than the basis l, including polarization orbitals).
Use PS.lmax or PS.KBprojectors blocks to override.
For N, standard SIESTA heuristics set lmxkb to 3
 (one more than the basis l, including polarization orbitals).
Use PS.lmax or PS.KBprojectors blocks to override.
For Si, standard SIESTA heuristics set lmxkb to 3
 (one more than the basis l, including polarization orbitals).
Use PS.lmax or PS.KBprojectors blocks to override.
For H, standard SIESTA heuristics set lmxkb to 2
 (one more than the basis l, including polarization orbitals).
Use PS.lmax or PS.KBprojectors blocks to override.

<basis_specs>
===============================================================================
O                    Z=   8    Mass=  16.000        Charge= 0.17977+309
Lmxo=1 Lmxkb= 3    BasisType=split      Semic=F
L=0  Nsemic=0  Cnfigmx=2
          i=1  nzeta=2  polorb=0  (2s)
            splnorm:   0.28000    
               vcte:    0.0000    
               rinn:    0.0000    
               qcoe:    0.0000    
               qyuk:    0.0000    
               qwid:   0.10000E-01
                rcs:    0.0000      0.0000    
            lambdas:    1.0000      1.0000    
L=1  Nsemic=0  Cnfigmx=2
          i=1  nzeta=2  polorb=1  (2p)
            splnorm:   0.28000    
               vcte:    0.0000    
               rinn:    0.0000    
               qcoe:    0.0000    
               qyuk:    0.0000    
               qwid:   0.10000E-01
                rcs:    0.0000      0.0000    
            lambdas:    1.0000      1.0000    
-------------------------------------------------------------------------------
L=0  Nkbl=1  erefs: 0.17977+309
L=1  Nkbl=1  erefs: 0.17977+309
L=2  Nkbl=1  erefs: 0.17977+309
L=3  Nkbl=1  erefs: 0.17977+309
===============================================================================
</basis_specs>

atom: Called for O                     (Z =   8)

read_vps: Pseudopotential generation method:
read_vps: ATM4.2.7  Troullier-Martins                       
Valence charge for ps generation:    6.00000

xc_check: Exchange-correlation functional:
xc_check: GGA Perdew, Burke & Ernzerhof 1996
V l=0 = -2*Zval/r beyond r=  1.1000
V l=1 = -2*Zval/r beyond r=  1.1000
V l=2 = -2*Zval/r beyond r=  2.2154
V l=3 = -2*Zval/r beyond r=  1.1000
All V_l potentials equal beyond r=  2.2154
This should be close to max(r_c) in ps generation
All pots = -2*Zval/r beyond r=  2.2154

VLOCAL1: 99.0% of the norm of Vloc inside      8.845 Ry
VLOCAL1: 99.9% of the norm of Vloc inside     20.157 Ry
atom: Maximum radius for 4*pi*r*r*local-pseudopot. charge    2.67231
atom: Maximum radius for r*vlocal+2*Zval:    2.32897
GHOST: No ghost state for L =  0
GHOST: No ghost state for L =  1
GHOST: No ghost state for L =  2
GHOST: No ghost state for L =  3

KBgen: Kleinman-Bylander projectors: 
   l= 0   rc=  2.243238   el= -1.759686   Ekb=**********   kbcos= -0.171774
   l= 1   rc=  2.328968   el= -0.663873   Ekb=-14.506792   kbcos= -0.519897
   l= 2   rc=  2.573941   el=  0.002031   Ekb= -1.137373   kbcos= -0.019581
   l= 3   rc=  2.606321   el=  0.003153   Ekb= -1.013546   kbcos= -0.003122

KBgen: Total number of Kleinman-Bylander projectors:   16
atom: -------------------------------------------------------------------------

atom: SANKEY-TYPE ORBITALS:
atom: Selected multiple-zeta basis: split     

SPLIT: Orbitals with angular momentum L= 0

SPLIT: Basis orbitals for state 2s

SPLIT: PAO cut-off radius determined from an
SPLIT: energy shift=  0.002000 Ry

   izeta = 1
                 lambda =    1.000000
                     rc =    4.243912
                 energy =   -1.758270
                kinetic =    3.286084
    potential(screened) =   -5.044353
       potential(ionic) =  -12.921184

   izeta = 2
                 rmatch =    2.187845
              splitnorm =    0.280000
                 energy =   -0.885018
                kinetic =    8.134434
    potential(screened) =   -9.019452
       potential(ionic) =  -17.710645

SPLIT: Orbitals with angular momentum L= 1

SPLIT: Basis orbitals for state 2p

SPLIT: PAO cut-off radius determined from an
SPLIT: energy shift=  0.002000 Ry

   izeta = 1
                 lambda =    1.000000
                     rc =    5.314825
                 energy =   -0.661986
                kinetic =    4.917472
    potential(screened) =   -5.579458
       potential(ionic) =  -13.236259

   izeta = 2
                 rmatch =    2.160663
              splitnorm =    0.280000
                 energy =   -0.068760
                kinetic =    9.183374
    potential(screened) =   -9.252135
       potential(ionic) =  -18.274251

POLgen: Perturbative polarization orbital with L=  2

POLgen: Polarization orbital for state 2p

   izeta = 1
                     rc =    5.314825
                 energy =    1.970580
                kinetic =    3.886128
    potential(screened) =   -1.915547
       potential(ionic) =   -7.749584
atom: Total number of Sankey-type orbitals: 13

atm_pop: Valence configuration (for local Pseudopot. screening):
 2s( 2.00)                                                            
 2p( 4.00)                                                            
Vna: chval, zval:    6.00000   6.00000

Vna:  Cut-off radius for the neutral-atom potential:   5.314825

atom: _________________________________________________________________________

<basis_specs>
===============================================================================
N                    Z=   7    Mass=  14.010        Charge= 0.17977+309
Lmxo=1 Lmxkb= 3    BasisType=split      Semic=F
L=0  Nsemic=0  Cnfigmx=2
          i=1  nzeta=2  polorb=0  (2s)
            splnorm:   0.28000    
               vcte:    0.0000    
               rinn:    0.0000    
               qcoe:    0.0000    
               qyuk:    0.0000    
               qwid:   0.10000E-01
                rcs:    0.0000      0.0000    
            lambdas:    1.0000      1.0000    
L=1  Nsemic=0  Cnfigmx=2
          i=1  nzeta=2  polorb=1  (2p)
            splnorm:   0.28000    
               vcte:    0.0000    
               rinn:    0.0000    
               qcoe:    0.0000    
               qyuk:    0.0000    
               qwid:   0.10000E-01
                rcs:    0.0000      0.0000    
            lambdas:    1.0000      1.0000    
-------------------------------------------------------------------------------
L=0  Nkbl=1  erefs: 0.17977+309
L=1  Nkbl=1  erefs: 0.17977+309
L=2  Nkbl=1  erefs: 0.17977+309
L=3  Nkbl=1  erefs: 0.17977+309
===============================================================================
</basis_specs>

atom: Called for N                     (Z =   7)

read_vps: Pseudopotential generation method:
read_vps: ATM4.2.7  Troullier-Martins                       
Valence charge for ps generation:    5.00000

xc_check: Exchange-correlation functional:
xc_check: GGA Perdew, Burke & Ernzerhof 1996
V l=0 = -2*Zval/r beyond r=  1.2889
V l=1 = -2*Zval/r beyond r=  1.2889
V l=2 = -2*Zval/r beyond r=  3.4178
V l=3 = -2*Zval/r beyond r=  2.4084
All V_l potentials equal beyond r=  3.3753
This should be close to max(r_c) in ps generation
All pots = -2*Zval/r beyond r=  3.4178

VLOCAL1: 99.0% of the norm of Vloc inside      3.810 Ry
VLOCAL1: 99.9% of the norm of Vloc inside      8.683 Ry
atom: Maximum radius for 4*pi*r*r*local-pseudopot. charge    4.02088
atom: Maximum radius for r*vlocal+2*Zval:    3.54838
GHOST: No ghost state for L =  0
GHOST: No ghost state for L =  1
GHOST: No ghost state for L =  2
GHOST: No ghost state for L =  3

KBgen: Kleinman-Bylander projectors: 
   l= 0   rc=  3.417763   el= -1.365098   Ekb= -4.433130   kbcos= -0.707855
   l= 1   rc=  3.375302   el= -0.521201   Ekb=-13.264039   kbcos= -0.535594
   l= 2   rc=  3.872880   el=  0.001991   Ekb= -0.641094   kbcos= -0.062456
   l= 3   rc=  3.970931   el=  0.003093   Ekb= -0.474517   kbcos= -0.018236

KBgen: Total number of Kleinman-Bylander projectors:   16
atom: -------------------------------------------------------------------------

atom: SANKEY-TYPE ORBITALS:
atom: Selected multiple-zeta basis: split     

SPLIT: Orbitals with angular momentum L= 0

SPLIT: Basis orbitals for state 2s

SPLIT: PAO cut-off radius determined from an
SPLIT: energy shift=  0.002000 Ry

   izeta = 1
                 lambda =    1.000000
                     rc =    4.730425
                 energy =   -1.363399
                kinetic =    1.245246
    potential(screened) =   -2.608645
       potential(ionic) =   -8.121105

   izeta = 2
                 rmatch =    2.531849
              splitnorm =    0.280000
                 energy =   -0.959908
                kinetic =    2.409435
    potential(screened) =   -3.369343
       potential(ionic) =   -9.427975

SPLIT: Orbitals with angular momentum L= 1

SPLIT: Basis orbitals for state 2p

SPLIT: PAO cut-off radius determined from an
SPLIT: energy shift=  0.002000 Ry

   izeta = 1
                 lambda =    1.000000
                     rc =    5.924108
                 energy =   -0.519262
                kinetic =    3.672940
    potential(screened) =   -4.192202
       potential(ionic) =   -9.518354

   izeta = 2
                 rmatch =    2.531849
              splitnorm =    0.280000
                 energy =   -0.104258
                kinetic =    6.807538
    potential(screened) =   -6.911796
       potential(ionic) =  -13.149920

POLgen: Perturbative polarization orbital with L=  2

POLgen: Polarization orbital for state 2p

   izeta = 1
                     rc =    5.924108
                 energy =    1.427508
                kinetic =    2.872379
    potential(screened) =   -1.444871
       potential(ionic) =   -5.563644
atom: Total number of Sankey-type orbitals: 13

atm_pop: Valence configuration (for local Pseudopot. screening):
 2s( 2.00)                                                            
 2p( 3.00)                                                            
Vna: chval, zval:    5.00000   5.00000

Vna:  Cut-off radius for the neutral-atom potential:   5.924108

atom: _________________________________________________________________________

<basis_specs>
===============================================================================
Si                   Z=  14    Mass=  28.090        Charge= 0.17977+309
Lmxo=1 Lmxkb= 3    BasisType=split      Semic=F
L=0  Nsemic=0  Cnfigmx=3
          i=1  nzeta=2  polorb=0  (3s)
            splnorm:   0.28000    
               vcte:    0.0000    
               rinn:    0.0000    
               qcoe:    0.0000    
               qyuk:    0.0000    
               qwid:   0.10000E-01
                rcs:    0.0000      0.0000    
            lambdas:    1.0000      1.0000    
L=1  Nsemic=0  Cnfigmx=3
          i=1  nzeta=2  polorb=1  (3p)
            splnorm:   0.28000    
               vcte:    0.0000    
               rinn:    0.0000    
               qcoe:    0.0000    
               qyuk:    0.0000    
               qwid:   0.10000E-01
                rcs:    0.0000      0.0000    
            lambdas:    1.0000      1.0000    
-------------------------------------------------------------------------------
L=0  Nkbl=1  erefs: 0.17977+309
L=1  Nkbl=1  erefs: 0.17977+309
L=2  Nkbl=1  erefs: 0.17977+309
L=3  Nkbl=1  erefs: 0.17977+309
===============================================================================
</basis_specs>

atom: Called for Si                    (Z =  14)

read_vps: Pseudopotential generation method:
read_vps: ATM4.2.7  Troullier-Martins                       
Valence charge for ps generation:    4.00000

xc_check: Exchange-correlation functional:
xc_check: GGA Perdew, Burke & Ernzerhof 1996
V l=0 = -2*Zval/r beyond r=  2.7826
V l=1 = -2*Zval/r beyond r=  2.7826
V l=2 = -2*Zval/r beyond r=  2.9253
V l=3 = -2*Zval/r beyond r=  2.7826
All V_l potentials equal beyond r=  2.8530
This should be close to max(r_c) in ps generation
All pots = -2*Zval/r beyond r=  2.9253

VLOCAL1: 99.0% of the norm of Vloc inside      5.333 Ry
VLOCAL1: 99.9% of the norm of Vloc inside     12.154 Ry
atom: Maximum radius for 4*pi*r*r*local-pseudopot. charge    3.39869
atom: Maximum radius for r*vlocal+2*Zval:    2.96205
GHOST: No ghost state for L =  0
GHOST: No ghost state for L =  1
GHOST: No ghost state for L =  2
GHOST: No ghost state for L =  3

KBgen: Kleinman-Bylander projectors: 
   l= 0   rc=  3.075247   el= -0.794092   Ekb=  5.879390   kbcos=  0.167461
   l= 1   rc=  3.153101   el= -0.300068   Ekb=  2.642817   kbcos=  0.058301
   l= 2   rc=  3.273594   el=  0.001958   Ekb= -1.185135   kbcos= -0.104411
   l= 3   rc=  3.232927   el=  0.003046   Ekb= -0.497174   kbcos= -0.015889

KBgen: Total number of Kleinman-Bylander projectors:   16
atom: -------------------------------------------------------------------------

atom: SANKEY-TYPE ORBITALS:
atom: Selected multiple-zeta basis: split     

SPLIT: Orbitals with angular momentum L= 0

SPLIT: Basis orbitals for state 3s

SPLIT: PAO cut-off radius determined from an
SPLIT: energy shift=  0.002000 Ry

   izeta = 1
                 lambda =    1.000000
                     rc =    6.429618
                 energy =   -0.792283
                kinetic =    0.525293
    potential(screened) =   -1.317576
       potential(ionic) =   -3.744923

   izeta = 2
                 rmatch =    3.998416
              splitnorm =    0.280000
                 energy =   -0.583081
                kinetic =    1.069570
    potential(screened) =   -1.652651
       potential(ionic) =   -4.235185

SPLIT: Orbitals with angular momentum L= 1

SPLIT: Basis orbitals for state 3p

SPLIT: PAO cut-off radius determined from an
SPLIT: energy shift=  0.002000 Ry

   izeta = 1
                 lambda =    1.000000
                     rc =    8.464845
                 energy =   -0.298236
                kinetic =    0.785360
    potential(screened) =   -1.083596
       potential(ionic) =   -3.273779

   izeta = 2
                 rmatch =    4.587816
              splitnorm =    0.280000
                 energy =   -0.131871
                kinetic =    1.403687
    potential(screened) =   -1.535557
       potential(ionic) =   -4.015310

POLgen: Perturbative polarization orbital with L=  2

POLgen: Polarization orbital for state 3p

   izeta = 1
                     rc =    8.464845
                 energy =    0.321949
                kinetic =    1.055677
    potential(screened) =   -0.733728
       potential(ionic) =   -2.672950
atom: Total number of Sankey-type orbitals: 13

atm_pop: Valence configuration (for local Pseudopot. screening):
 3s( 2.00)                                                            
 3p( 2.00)                                                            
Vna: chval, zval:    4.00000   4.00000

Vna:  Cut-off radius for the neutral-atom potential:   8.464845

atom: _________________________________________________________________________

<basis_specs>
===============================================================================
H                    Z=   1    Mass=  1.0100        Charge= 0.17977+309
Lmxo=0 Lmxkb= 2    BasisType=split      Semic=F
L=0  Nsemic=0  Cnfigmx=1
          i=1  nzeta=2  polorb=1  (1s)
            splnorm:   0.62000    
               vcte:    0.0000    
               rinn:    0.0000    
               qcoe:    0.0000    
               qyuk:    0.0000    
               qwid:   0.10000E-01
                rcs:    0.0000      0.0000    
            lambdas:    1.0000      1.0000    
-------------------------------------------------------------------------------
L=0  Nkbl=1  erefs: 0.17977+309
L=1  Nkbl=1  erefs: 0.17977+309
L=2  Nkbl=1  erefs: 0.17977+309
===============================================================================
</basis_specs>

atom: Called for H                     (Z =   1)

read_vps: Pseudopotential generation method:
read_vps: ATM4.2.7  Troullier-Martins                       
Valence charge for ps generation:    1.00000

xc_check: Exchange-correlation functional:
xc_check: GGA Perdew, Burke & Ernzerhof 1996
V l=0 = -2*Zval/r beyond r=  0.0098
V l=1 = -2*Zval/r beyond r=  0.5817
V l=2 = -2*Zval/r beyond r=  1.9372
All V_l potentials equal beyond r=  1.9372
This should be close to max(r_c) in ps generation
All pots = -2*Zval/r beyond r=  1.9372

VLOCAL1: 99.0% of the norm of Vloc inside     11.567 Ry
VLOCAL1: 99.9% of the norm of Vloc inside     26.362 Ry
atom: Maximum radius for 4*pi*r*r*local-pseudopot. charge    2.25106
atom: Maximum radius for r*vlocal+2*Zval:    1.91306
GHOST: No ghost state for L =  0
GHOST: No ghost state for L =  1
GHOST: No ghost state for L =  2

KBgen: Kleinman-Bylander projectors: 
   l= 0   rc=  2.036604   el= -0.477180   Ekb= -6.081590   kbcos= -0.277285
   l= 1   rc=  2.195416   el=  0.001076   Ekb= -0.926943   kbcos= -0.034643
   l= 2   rc=  2.251056   el=  0.002010   Ekb= -0.130941   kbcos= -0.009788

KBgen: Total number of Kleinman-Bylander projectors:    9
atom: -------------------------------------------------------------------------

atom: SANKEY-TYPE ORBITALS:
atom: Selected multiple-zeta basis: split     

SPLIT: Orbitals with angular momentum L= 0

SPLIT: Basis orbitals for state 1s

SPLIT: PAO cut-off radius determined from an
SPLIT: energy shift=  0.002000 Ry

   izeta = 1
                 lambda =    1.000000
                     rc =    6.518340
                 energy =   -0.475305
                kinetic =    0.912139
    potential(screened) =   -1.387444
       potential(ionic) =   -1.907295

   izeta = 2
                 rmatch =    2.141150
              splitnorm =    0.620000
                 energy =    0.566467
                kinetic =    3.772856
    potential(screened) =   -3.206389
       potential(ionic) =   -3.759093

POLgen: Perturbative polarization orbital with L=  1

POLgen: Polarization orbital for state 1s

   izeta = 1
                     rc =    6.518340
                 energy =    0.533861
                kinetic =    1.121086
    potential(screened) =   -0.587225
       potential(ionic) =   -1.053027
atom: Total number of Sankey-type orbitals:  5

atm_pop: Valence configuration (for local Pseudopot. screening):
 1s( 1.00)                                                            
Vna: chval, zval:    1.00000   1.00000

Vna:  Cut-off radius for the neutral-atom potential:   6.518340

atom: _________________________________________________________________________

prinput: Basis input ----------------------------------------------------------

PAO.BasisType split     

%block ChemicalSpeciesLabel
    1    8 O                       # Species index, atomic number, species label
    2    7 N                       # Species index, atomic number, species label
    3   14 Si                      # Species index, atomic number, species label
    4    1 H                       # Species index, atomic number, species label
%endblock ChemicalSpeciesLabel

%block PAO.Basis                 # Define Basis set
O                     2                    # Species label, number of l-shells
 n=2   0   2                         # n, l, Nzeta 
   4.244      2.188   
   1.000      1.000   
 n=2   1   2 P   1                   # n, l, Nzeta, Polarization, NzetaPol
   5.315      2.161   
   1.000      1.000   
N                     2                    # Species label, number of l-shells
 n=2   0   2                         # n, l, Nzeta 
   4.730      2.532   
   1.000      1.000   
 n=2   1   2 P   1                   # n, l, Nzeta, Polarization, NzetaPol
   5.924      2.532   
   1.000      1.000   
Si                    2                    # Species label, number of l-shells
 n=3   0   2                         # n, l, Nzeta 
   6.430      3.998   
   1.000      1.000   
 n=3   1   2 P   1                   # n, l, Nzeta, Polarization, NzetaPol
   8.465      4.588   
   1.000      1.000   
H                     1                    # Species label, number of l-shells
 n=1   0   2 P   1                   # n, l, Nzeta, Polarization, NzetaPol
   6.518      2.141   
   1.000      1.000   
%endblock PAO.Basis

prinput: ----------------------------------------------------------------------

Dumping basis to NetCDF file O.ion.nc
Dumping basis to NetCDF file N.ion.nc
Dumping basis to NetCDF file Si.ion.nc
Dumping basis to NetCDF file H.ion.nc
coor:   Atomic-coordinates input format  =     Cartesian coordinates
coor:                                          (in Angstroms)

siesta: Atomic coordinates (Bohr) and species
siesta:      1.97217   7.44407   0.00000  1        1
siesta:     -5.74598   2.02405   0.00000  2        2
siesta:      3.88264   2.29334   0.00000  2        3
siesta:      1.88786  -3.27422   0.00000  2        4
siesta:     -4.02956  -3.42601   0.00000  2        5
siesta:      7.29471  -2.10194   0.00000  2        6
siesta:     -2.33605   2.17879   0.00000  3        7
siesta:     -1.00708  -1.77447   0.00000  3        8
siesta:      1.20122   4.48719   0.00000  3        9
siesta:      4.24276  -1.03929   0.00000  3       10
siesta:     -6.51921  -1.10297   0.00000  3       11
siesta:      5.60061   3.38449   0.00000  4       12
siesta:     -9.15684  -2.12320   0.00000  4       13
siesta:      7.57218  -4.06728   0.00000  4       14
siesta:      9.01814  -0.94924   0.00000  4       15
siesta:     -4.28099  -5.41332   0.00000  4       16
siesta:     13.63774  12.20140   0.00000  3       17
siesta:     17.23745  14.48162   0.00000  3       18
siesta:     16.30061   6.97378   0.00000  3       19
siesta:     20.22646  11.63993   0.00000  3       20
siesta:     13.75041   8.95593   0.00000  2       21
siesta:     10.72919  13.62564   0.00000  2       22
siesta:     19.42300   8.35297   0.00000  2       23
siesta:     17.59904  17.30138   0.00000  4       24
siesta:     23.03151  12.05327   0.00000  4       25
siesta:     10.51878  15.60833   0.00000  4       26
siesta:      8.96692  12.44473   0.00000  4       27
siesta:     16.28128   3.93489   0.00000  1       28
siesta:     20.88834   6.97972   0.00000  4       29

siesta: Automatic unit cell vectors (Ang):
siesta:   26.325254    0.000000    0.000000
siesta:    0.000000   20.810689    0.000000
siesta:    0.000000    0.000000    9.854683

siesta: System type = molecule  

initatomlists: Number of atoms, orbitals, and projectors:     29   297   394

siesta: ******************** Simulation parameters ****************************
siesta:
siesta: The following are some of the parameters of the simulation.
siesta: A complete list of the parameters used, including default values,
siesta: can be found in file out.fdf
siesta:
redata: Spin configuration                          = spin-orbit
redata: Number of spin components                   = 8
redata: Time-Reversal Symmetry                      = F
redata: Spin spiral                                 = F
############################################################
This spin-orbit implementation uses a local approximation.
From 4.2 and onwards the full non-local approximation is implemented
You are strongly advised to use >=4.2 versions!
############################################################
redata: Long output                                 =   F
redata: Number of Atomic Species                    =        4
redata: Charge density info will appear in .RHO file
redata: Write Mulliken Pop.                         = Atomic and Orbital charges
redata: Matel table size (NRTAB)                    =     1024
redata: Mesh Cutoff                                 =   340.0000 Ry
redata: Net charge of the system                    =     0.0000 |e|
redata: Min. number of SCF Iter                     =        1
redata: Max. number of SCF Iter                     =      200
redata: SCF mix quantity                            = Hamiltonian
redata: Mix DM or H after convergence               =   F
redata: Recompute H after scf cycle                 =   F
redata: Mix DM in first SCF step                    =   T
redata: Write Pulay info on disk                    =   F
redata: New DM Occupancy tolerance                  = 0.000000000001
redata: No kicks to SCF
redata: DM Mixing Weight for Kicks                  =     0.5000
redata: Require Harris convergence for SCF          =   F
redata: Harris energy tolerance for SCF             =     0.000100 eV
redata: Require DM convergence for SCF              =   T
redata: DM tolerance for SCF                        =     0.000008
redata: Require EDM convergence for SCF             =   F
redata: EDM tolerance for SCF                       =     0.001000 eV
redata: Require H convergence for SCF               =   T
redata: Hamiltonian tolerance for SCF               =     0.000001 eV
redata: Require (free) Energy convergence for SCF   =   F
redata: (free) Energy tolerance for SCF             =     0.000100 eV
redata: Using Saved Data (generic)                  =   F
redata: Use continuation files for DM               =   F
redata: Neglect nonoverlap interactions             =   F
redata: Method of Calculation                       = Diagonalization
redata: Electronic Temperature                      =   299.9978 K
redata: Fix the spin of the system                  =   F
redata: Dynamics option                             = Single-point calculation
mix.SCF: Pulay mixing                            = Pulay
mix.SCF:    Variant                              = stable
mix.SCF:    History steps                        = 6
mix.SCF:    Linear mixing weight                 =     0.250000
mix.SCF:    Mixing weight                        =     0.250000
mix.SCF:    SVD condition                        = 0.1000E-07
mix.SCF:    Restart steps                        = 24
mix.SCF:    Restart save steps                   = 3
mix.SCF: Spin-component mixing                   all
redata: Save all siesta data in one NC              =   F
redata: ***********************************************************************

%block SCF.Mixers
  Pulay
%endblock SCF.Mixers

%block SCF.Mixer.Pulay
  # Mixing method
  method pulay
  variant stable

  # Mixing options
  weight 0.2500
  weight.linear 0.2500
  history 6
  restart 24
  restart.save 3
%endblock SCF.Mixer.Pulay

DM_history_depth set to one: no extrapolation allowed by default for geometry relaxation
Size of DM history Fstack: 1
Total number of electrons:    98.000000
Total ionic charge:    98.000000

* ProcessorY, Blocksize:    2  24


* Orbital distribution balance (max,min):    81    72


Time-reversal symmetry not used.

siesta: k-grid: Number of k-points =     1
siesta: k-grid: Cutoff (effective) =     4.927 Ang
siesta: k-grid: Supercell and displacements
siesta: k-grid:    1   0   0      0.000
siesta: k-grid:    0   1   0      0.000
siesta: k-grid:    0   0   1      0.000

diag: Algorithm                                     = ELPA-1stage
diag: Parallel over k                               =   F
diag: Use parallel 2D distribution                  =   T
diag: Parallel block-size                           = 24
diag: Parallel distribution                         =     2 x     2
diag: Used triangular part                          = Lower
diag: Absolute tolerance                            =  0.100E-15
diag: Orthogonalization factor                      =  0.100E-05
diag: Memory factor                                 =  1.0000


ts: **************************************************************
ts: Save H and S matrices                           =    F
ts: Save DM and EDM matrices                        =    F
ts: Only save the overlap matrix S                  =    F
ts: **************************************************************

************************ Begin: TS CHECKS AND WARNINGS ************************
************************ End: TS CHECKS AND WARNINGS **************************


                     ====================================
                        Single-point calculation
                     ====================================

outcoor: Atomic coordinates (Ang):                          
    1.04362488    3.93922861    0.00000000   1       1  O
   -3.04064129    1.07107817    0.00000000   2       2  N
    2.05460145    1.21358207    0.00000000   2       3  N
    0.99901410   -1.73264380    0.00000000   2       4  N
   -2.13235164   -1.81296822    0.00000000   2       5  N
    3.86019055   -1.11229818    0.00000000   2       6  N
   -1.23618322    1.15296446    0.00000000   3       7  Si
   -0.53292426   -0.93900627    0.00000000   3       8  Si
    0.63566047    2.37451677    0.00000000   3       9  Si
    2.24517024   -0.54996710    0.00000000   3      10  Si
   -3.44981666   -0.58366503    0.00000000   3      11  Si
    2.96371409    1.79099263    0.00000000   4      12  H
   -4.84559135   -1.12354966    0.00000000   4      13  H
    4.00702091   -2.15230856    0.00000000   4      14  H
    4.77219438   -0.50231816    0.00000000   4      15  H
   -2.26539909   -2.86460511    0.00000000   4      16  H
    7.21677828    6.45669922    0.00000000   3      17  Si
    9.12166225    7.66333816    0.00000000   3      18  Si
    8.62590811    3.69036425    0.00000000   3      19  Si
   10.70337840    6.15958141    0.00000000   3      20  Si
    7.27640095    4.73927165    0.00000000   2      21  N
    5.67764322    7.21037653    0.00000000   2      22  N
   10.27820337    4.42020147    0.00000000   2      23  N
    9.31300705    9.15549191    0.00000000   4      24  H
   12.18774638    6.37831223    0.00000000   4      25  H
    5.56629794    8.25957164    0.00000000   4      26  H
    4.74508551    6.58546235    0.00000000   4      27  H
    8.61568128    2.08225313    0.00000000   1      28  O
   11.05362925    3.69350991    0.00000000   4      29  H

outcell: Unit cell vectors (Ang):
       26.325254    0.000000    0.000000
        0.000000   20.810689    0.000000
        0.000000    0.000000    9.854683

outcell: Cell vector modules (Ang)   :   26.325254   20.810689    9.854683
outcell: Cell angles (23,13,12) (deg):     90.0000     90.0000     90.0000
outcell: Cell volume (Ang**3)        :   5398.8557
<dSpData1D:S at geom step 0
  <sparsity:sparsity for geom step 0
    nrows_g=297 nrows=81 sparsity=.1505 nnzs=13274, refcount: 8>
  <dData1D:(new from dSpData1D) n=13274, refcount: 1>
refcount: 1>
new_DM -- step:     1
Initializing Density Matrix...
DM filled with atomic data:
<dSpData2D:DM initialized from atoms
  <sparsity:sparsity for geom step 0
    nrows_g=297 nrows=81 sparsity=.1505 nnzs=13274, refcount: 9>
  <dData2D:DM n=13274 m=8, refcount: 1>
refcount: 1>
     spin moment: S , {S} =   56.00000   0.00000   0.00000  56.00000
No. of atoms with KB's overlaping orbs in proc 0. Max # of overlaps:      29     142

Initializing spin-orbit part of the Hamiltonian
  Adding spin-orbit effects for O 
  Adding spin-orbit effects for N 
  Adding spin-orbit effects for Si
  Adding spin-orbit effects for H 


New grid distribution:   1
           1       1:  150    1:   60    1:   30
           2       1:  150    1:   60   31:   60
           3       1:  150   61:  120    1:   30
           4       1:  150   61:  120   31:   60

InitMesh: MESH =   300 x   240 x   120 =     8640000
InitMesh: (bp) =   150 x   120 x    60 =     1080000
InitMesh: Mesh cutoff (required, used) =   340.000   358.921 Ry
ExtMesh (bp) on 0 =   254 x   164 x   142 =     5915152
New grid distribution:   2
           1      50:  150    1:   33    1:   60
           2       1:   49    1:   34    1:   60
           3      50:  150   34:  120    1:   60
           4       1:   49   35:  120    1:   60
New grid distribution:   3
           1      53:  150    1:   37    1:   60
           2       1:   52    1:   39    1:   60
           3      53:  150   38:  120    1:   60
           4       1:   52   40:  120    1:   60
Setting up quadratic distribution...
ExtMesh (bp) on 0 =   205 x   137 x   172 =     4830620
PhiOnMesh: Number of (b)points on node 0 =               199980
PhiOnMesh: nlist on node 0 =              2511758

stepf: Fermi-Dirac step function

siesta: Program's energy decomposition (eV):
siesta: Ebs     =      -619.455591
siesta: Eions   =      3585.165840
siesta: Ena     =       382.019143
siesta: Ekin    =      3370.257578
siesta: Enl     =     -3298.773805
siesta: Eso     =        -0.003410
siesta: Edftu   =         0.000000
siesta: DEna    =       153.731946
siesta: DUscf   =        81.813626
siesta: DUext   =         0.000000
siesta: Exc     =     -1204.334156
siesta: eta*DQ  =         0.000000
siesta: Emadel  =         0.000000
siesta: Emeta   =         0.000000
siesta: Emolmec =         0.000000
siesta: Ekinion =         0.000000
siesta: Eharris =     -4020.662022
siesta: Etot    =     -4100.454918
siesta: FreeEng =     -4100.456340

        iscf     Eharris(eV)        E_KS(eV)     FreeEng(eV)     dDmax    Ef(eV) dHmax(eV)
   scf:    1    -4020.662022    -4100.454918    -4100.456340  0.964978 -4.904555 21.826736
     spin moment: S , {S} =    2.00727  -0.00000   0.00000   2.00727
timer: Routine,Calls,Time,% = IterSCF        1      12.347  17.86
   scf:    2    -4147.462441    -4136.024851    -4136.026553  0.452295 -4.221581 11.655274
     spin moment: S , {S} =    1.98982   0.00000   0.00000   1.98982
   scf:    3    -4108.476845    -4133.725505    -4133.739537  0.422445 -4.328959 11.814900
     spin moment: S , {S} =    2.05470  -0.00000  -0.00000   2.05470
   scf:    4    -4149.660140    -4145.025355    -4145.025356  0.313772 -3.900910  6.966353
     spin moment: S , {S} =    0.00010  -0.00000  -0.00000   0.00010
   scf:    5    -4146.353831    -4145.795091    -4145.795091  0.036268 -3.683419  4.428046
     spin moment: S , {S} =    0.00006   0.00000   0.00000   0.00006
   scf:    6    -4146.578116    -4146.196266    -4146.196266  0.024423 -3.537932  2.132349
     spin moment: S , {S} =    0.00003  -0.00000  -0.00000   0.00003
   scf:    7    -4146.548937    -4146.369352    -4146.369352  0.021237 -3.751052  0.884689
     spin moment: S , {S} =    0.00001   0.00000  -0.00000   0.00001
   scf:    8    -4146.488790    -4146.427113    -4146.427113  0.012305 -3.681478  0.500157
     spin moment: S , {S} =    0.00000  -0.00000  -0.00000   0.00000
   scf:    9    -4146.465384    -4146.445575    -4146.445575  0.006491 -3.796592  0.373158
     spin moment: S , {S} =    0.00000   0.00000  -0.00000   0.00000
   scf:   10    -4146.496213    -4146.464981    -4146.464981  0.021104 -3.795262  0.221241
     spin moment: S , {S} =    0.00000  -0.00000   0.00000  -0.00000
   scf:   11    -4146.468654    -4146.466802    -4146.466802  0.005634 -3.782494  0.057960
     spin moment: S , {S} =    0.00000   0.00000  -0.00000  -0.00000
   scf:   12    -4146.467828    -4146.467328    -4146.467328  0.001025 -3.777808  0.025330
     spin moment: S , {S} =    0.00000   0.00000  -0.00000   0.00000
   scf:   13    -4146.467772    -4146.467547    -4146.467547  0.001294 -3.774915  0.016311
     spin moment: S , {S} =    0.00000   0.00000  -0.00000   0.00000
   scf:   14    -4146.467790    -4146.467662    -4146.467662  0.001104 -3.774374  0.011328
     spin moment: S , {S} =    0.00000   0.00000   0.00000   0.00000
   scf:   15    -4146.467765    -4146.467710    -4146.467710  0.000907 -3.773585  0.008504
     spin moment: S , {S} =    0.00000   0.00000  -0.00000   0.00000
   scf:   16    -4146.467788    -4146.467744    -4146.467744  0.001059 -3.774234  0.005567
     spin moment: S , {S} =    0.00000   0.00000  -0.00000   0.00000
   scf:   17    -4146.467763    -4146.467752    -4146.467752  0.000465 -3.774271  0.004201
     spin moment: S , {S} =    0.00000   0.00000   0.00000   0.00000
   scf:   18    -4146.467762    -4146.467757    -4146.467757  0.000362 -3.773250  0.002534
     spin moment: S , {S} =    0.00000   0.00000  -0.00000   0.00000
   scf:   19    -4146.467762    -4146.467759    -4146.467759  0.000276 -3.773397  0.001560
     spin moment: S , {S} =    0.00000   0.00000  -0.00000   0.00000
   scf:   20    -4146.467761    -4146.467760    -4146.467760  0.000200 -3.773390  0.000834
     spin moment: S , {S} =    0.00000   0.00000  -0.00000   0.00000
   scf:   21    -4146.467761    -4146.467760    -4146.467760  0.000139 -3.773369  0.000323
     spin moment: S , {S} =    0.00000   0.00000  -0.00000   0.00000
   scf:   22    -4146.467760    -4146.467760    -4146.467760  0.000055 -3.773336  0.000129
     spin moment: S , {S} =    0.00000   0.00000   0.00000   0.00000
   scf:   23    -4146.467760    -4146.467760    -4146.467760  0.000014 -3.773330  0.000083
     spin moment: S , {S} =    0.00000   0.00000   0.00000   0.00000
   scf:   24    -4146.467760    -4146.467760    -4146.467760  0.000006 -3.773326  0.000041
     spin moment: S , {S} =    0.00000   0.00000  -0.00000   0.00000
mix: Pulay -- resetting history
   scf:   25    -4146.467760    -4146.467760    -4146.467760  0.000004 -3.773324  0.000027
     spin moment: S , {S} =    0.00000   0.00000  -0.00000   0.00000
   scf:   26    -4146.467760    -4146.467760    -4146.467760  0.000001 -3.773323  0.000021
     spin moment: S , {S} =    0.00000   0.00000  -0.00000   0.00000
   scf:   27    -4146.467760    -4146.467760    -4146.467760  0.000002 -3.773321  0.000013
     spin moment: S , {S} =    0.00000   0.00000  -0.00000  -0.00000
   scf:   28    -4146.467760    -4146.467760    -4146.467760  0.000001 -3.773321  0.000007
     spin moment: S , {S} =    0.00000   0.00000  -0.00000  -0.00000
   scf:   29    -4146.467760    -4146.467760    -4146.467760  0.000001 -3.773321  0.000004
     spin moment: S , {S} =    0.00000   0.00000  -0.00000  -0.00000
   scf:   30    -4146.467760    -4146.467760    -4146.467760  0.000001 -3.773321  0.000003
     spin moment: S , {S} =    0.00000   0.00000  -0.00000  -0.00000
   scf:   31    -4146.467760    -4146.467760    -4146.467760  0.000000 -3.773321  0.000001
     spin moment: S , {S} =    0.00000   0.00000   0.00000  -0.00000
   scf:   32    -4146.467760    -4146.467760    -4146.467760  0.000000 -3.773321  0.000001
     spin moment: S , {S} =    0.00000   0.00000   0.00000  -0.00000

SCF Convergence by DM+H criterion
max |DM_out - DM_in|         :     0.0000001909
max |H_out - H_in|      (eV) :     0.0000007806
SCF cycle converged after 32 iterations

Using DM_out to compute the final energy and forces
No. of atoms with KB's overlaping orbs in proc 0. Max # of overlaps:      29     142

siesta: E_KS(eV) =            -4146.4678

siesta: E_KS - E_eggbox =     -4146.4678
     spin moment: S , {S} =    0.00000   0.00000   0.00000  -0.00000

siesta: Atomic forces (eV/Ang):
     1    2.238715   -1.257311   -0.000000
     2    0.009875    0.029912   -0.000000
     3    0.768412   -0.390084    0.000000
     4    0.744089   -0.019713   -0.000000
     5    0.042627   -0.089346    0.000000
     6    1.797089    0.699702    0.000000
     7    0.042918   -0.258509    0.000000
     8   -0.420644    0.290713   -0.000000
     9   -0.193436    1.275573   -0.000000
    10   -1.040103    0.363803   -0.000000
    11   -0.023852   -0.020771    0.000000
    12   -0.325047   -0.181811   -0.000000
    13    0.131237   -0.023122   -0.000000
    14    0.252380   -0.108128   -0.000000
    15   -1.351307   -0.915592    0.000000
    16   -0.178070    0.157096   -0.000000
    17    1.025934   -1.117620   -0.000000
    18   -0.219029    0.200250    0.000000
    19   -0.187550   -1.263019   -0.000000
    20   -0.014040   -0.423174    0.000000
    21   -0.318545    1.042587    0.000000
    22   -2.217224   -0.891491   -0.000000
    23    0.310766    0.550430   -0.000000
    24    0.077220   -0.013173   -0.000000
    25    0.096861    0.041404    0.000000
    26   -0.278272   -0.212882   -0.000000
    27    1.535914    1.456106    0.000000
    28   -2.201486    0.717220    0.000000
    29   -0.050645    0.137178    0.000000
----------------------------------------
   Tot    0.054785   -0.223770    0.000000
----------------------------------------
   Max    2.238715
   Res    0.671945    sqrt( Sum f_i^2 / 3N )
----------------------------------------
   Max    2.238715    constrained

Stress tensor Voigt[x,y,z,yz,xz,xy] (kbar):       -0.01        1.50       -0.10        0.00       -0.00        1.38
(Free)E + p*V (eV/cell)    -4148.0298
Target enthalpy (eV/cell)    -4146.4678

mulliken: Atomic and Orbital Populations:

Species: O                   

Atom      Orb        Charge      Spin       Svec
----------------------------------------------------------------
    1  1 2s         1.74745   0.00000     -0.000  -0.000  -0.000
    1  2 2s         0.06674   0.00000      0.000  -0.000   0.000
    1  3 2py        1.42871   0.00000      0.000   0.000  -0.000
    1  4 2pz        1.54614   0.00000      0.000  -0.000  -0.000
    1  5 2px        1.62617   0.00000     -0.000  -0.000  -0.000
    1  6 2py        0.03769   0.00000     -0.000  -0.000   0.000
    1  7 2pz       -0.00634   0.00000      0.000   0.000   0.000
    1  8 2px        0.00444   0.00000      0.000   0.000   0.000
    1  9 3Pdxy      0.00701   0.00000     -0.000   0.000   0.000
    1 10 3Pdyz      0.00901   0.00000     -0.000  -0.000   0.000
    1 11 3Pdz2      0.00158   0.00000     -0.000  -0.000  -0.000
    1 12 3Pdxz      0.00037   0.00000     -0.000   0.000   0.000
    1 13 3Pdx2-y2   0.00691   0.00000     -0.000  -0.000   0.000
    1     Total     6.47588   0.00000     -0.000  -0.000  -0.000

   28  1 2s         1.74359   0.00000      0.000  -0.000   0.000
   28  2 2s         0.06856   0.00000     -0.000   0.000   0.000
   28  3 2py        1.41060   0.00000      0.000  -0.000  -0.000
   28  4 2pz        1.54488   0.00000      0.000  -0.000  -0.000
   28  5 2px        1.64534   0.00000      0.000  -0.000  -0.000
   28  6 2py        0.04089   0.00000     -0.000  -0.000   0.000
   28  7 2pz       -0.00445   0.00000     -0.000   0.000   0.000
   28  8 2px        0.01033   0.00000     -0.000  -0.000   0.000
   28  9 3Pdxy      0.00638   0.00000     -0.000  -0.000   0.000
   28 10 3Pdyz      0.00969   0.00000     -0.000   0.000  -0.000
   28 11 3Pdz2      0.00125   0.00000      0.000  -0.000  -0.000
   28 12 3Pdxz     -0.00018   0.00000     -0.000  -0.000   0.000
   28 13 3Pdx2-y2   0.00770   0.00000      0.000  -0.000  -0.000
   28     Total     6.48459   0.00000      0.000  -0.000   0.000

----------------------------------------------------------------
Total              12.96047   0.00000      0.000  -0.000  -0.000


Species: N                   

Atom      Orb        Charge      Spin       Svec
----------------------------------------------------------------
    2  1 2s         1.55115   0.00000      0.000  -0.000  -0.000
    2  2 2s         0.08425   0.00000     -0.000   0.000   0.000
    2  3 2py        1.04396   0.00000     -0.000  -0.000  -0.000
    2  4 2pz        1.22425   0.00000     -0.000   0.000  -0.000
    2  5 2px        0.98991   0.00000     -0.000   0.000  -0.000
    2  6 2py        0.18837   0.00000     -0.000  -0.000   0.000
    2  7 2pz        0.05540   0.00000      0.000   0.000   0.000
    2  8 2px        0.19581   0.00000      0.000   0.000   0.000
    2  9 3Pdxy      0.00839   0.00000     -0.000   0.000   0.000
    2 10 3Pdyz      0.01098   0.00000      0.000  -0.000   0.000
    2 11 3Pdz2      0.00195   0.00000      0.000   0.000   0.000
    2 12 3Pdxz      0.00758   0.00000      0.000   0.000   0.000
    2 13 3Pdx2-y2   0.00908   0.00000      0.000   0.000  -0.000
    2     Total     5.37106   0.00000     -0.000   0.000  -0.000

    3  1 2s         1.40065   0.00000      0.000   0.000  -0.000
    3  2 2s         0.11642   0.00000     -0.000  -0.000   0.000
    3  3 2py        0.94179   0.00000      0.000  -0.000  -0.000
    3  4 2pz        1.54372   0.00000      0.000  -0.000  -0.000
    3  5 2px        1.08268   0.00000      0.000  -0.000  -0.000
    3  6 2py        0.24847   0.00000     -0.000  -0.000   0.000
    3  7 2pz        0.00712   0.00000     -0.000   0.000   0.000
    3  8 2px        0.17818   0.00000     -0.000   0.000   0.000
    3  9 3Pdxy      0.00398   0.00000     -0.000   0.000   0.000
    3 10 3Pdyz      0.00416   0.00000      0.000  -0.000  -0.000
    3 11 3Pdz2      0.00074   0.00000     -0.000  -0.000   0.000
    3 12 3Pdxz      0.00278   0.00000     -0.000   0.000  -0.000
    3 13 3Pdx2-y2   0.00282   0.00000     -0.000  -0.000  -0.000
    3     Total     5.53351   0.00000      0.000  -0.000  -0.000

    4  1 2s         1.45991   0.00000      0.000   0.000  -0.000
    4  2 2s         0.11888   0.00000     -0.000  -0.000   0.000
    4  3 2py        1.13079   0.00000      0.000  -0.000  -0.000
    4  4 2pz        1.29475   0.00000     -0.000  -0.000  -0.000
    4  5 2px        0.82600   0.00000     -0.000  -0.000  -0.000
    4  6 2py        0.14961   0.00000     -0.000   0.000   0.000
    4  7 2pz        0.05353   0.00000      0.000  -0.000   0.000
    4  8 2px        0.29227   0.00000      0.000   0.000   0.000
    4  9 3Pdxy      0.00869   0.00000     -0.000  -0.000  -0.000
    4 10 3Pdyz      0.01045   0.00000     -0.000   0.000   0.000
    4 11 3Pdz2      0.00126   0.00000      0.000   0.000  -0.000
    4 12 3Pdxz      0.00497   0.00000     -0.000   0.000   0.000
    4 13 3Pdx2-y2   0.00798   0.00000      0.000  -0.000  -0.000
    4     Total     5.35909   0.00000      0.000   0.000  -0.000

    5  1 2s         1.37610   0.00000     -0.000   0.000  -0.000
    5  2 2s         0.12800   0.00000     -0.000  -0.000   0.000
    5  3 2py        1.02599   0.00000     -0.000   0.000  -0.000
    5  4 2pz        1.50080   0.00000     -0.000   0.000  -0.000
    5  5 2px        1.06000   0.00000     -0.000  -0.000  -0.000
    5  6 2py        0.20383   0.00000      0.000  -0.000   0.000
    5  7 2pz        0.01339   0.00000      0.000  -0.000   0.000
    5  8 2px        0.20098   0.00000     -0.000   0.000   0.000
    5  9 3Pdxy      0.00393   0.00000      0.000  -0.000   0.000
    5 10 3Pdyz      0.00241   0.00000     -0.000  -0.000   0.000
    5 11 3Pdz2      0.00142   0.00000     -0.000  -0.000   0.000
    5 12 3Pdxz      0.00684   0.00000      0.000  -0.000   0.000
    5 13 3Pdx2-y2   0.00559   0.00000      0.000  -0.000   0.000
    5     Total     5.52929   0.00000     -0.000   0.000  -0.000

    6  1 2s         1.27005   0.00000     -0.000   0.000  -0.000
    6  2 2s         0.17901   0.00000      0.000  -0.000   0.000
    6  3 2py        1.07769   0.00000      0.000  -0.000  -0.000
    6  4 2pz        1.57282   0.00000      0.000   0.000  -0.000
    6  5 2px        0.95710   0.00000     -0.000  -0.000  -0.000
    6  6 2py        0.18775   0.00000      0.000   0.000   0.000
    6  7 2pz        0.02990   0.00000     -0.000  -0.000   0.000
    6  8 2px        0.25538   0.00000      0.000   0.000   0.000
    6  9 3Pdxy      0.00242   0.00000      0.000  -0.000   0.000
    6 10 3Pdyz      0.00016   0.00000     -0.000   0.000  -0.000
    6 11 3Pdz2      0.00176   0.00000      0.000   0.000   0.000
    6 12 3Pdxz      0.00328   0.00000      0.000  -0.000   0.000
    6 13 3Pdx2-y2   0.00397   0.00000     -0.000  -0.000   0.000
    6     Total     5.54128   0.00000     -0.000  -0.000  -0.000

   21  1 2s         1.42373   0.00000      0.000  -0.000   0.000
   21  2 2s         0.12816   0.00000     -0.000   0.000  -0.000
   21  3 2py        0.87172   0.00000     -0.000   0.000  -0.000
   21  4 2pz        1.29512   0.00000     -0.000   0.000  -0.000
   21  5 2px        1.15708   0.00000      0.000   0.000  -0.000
   21  6 2py        0.27541   0.00000      0.000  -0.000   0.000
   21  7 2pz        0.04884   0.00000     -0.000   0.000   0.000
   21  8 2px        0.16293   0.00000     -0.000  -0.000   0.000
   21  9 3Pdxy      0.00645   0.00000      0.000   0.000   0.000
   21 10 3Pdyz      0.00504   0.00000      0.000  -0.000  -0.000
   21 11 3Pdz2      0.00017   0.00000     -0.000  -0.000  -0.000
   21 12 3Pdxz      0.00577   0.00000      0.000   0.000  -0.000
   21 13 3Pdx2-y2   0.00560   0.00000     -0.000   0.000  -0.000
   21     Total     5.38602   0.00000      0.000   0.000  -0.000

   22  1 2s         1.29454   0.00000     -0.000   0.000  -0.000
   22  2 2s         0.16783   0.00000      0.000  -0.000   0.000
   22  3 2py        1.05735   0.00000     -0.000   0.000  -0.000
   22  4 2pz        1.55579   0.00000      0.000  -0.000  -0.000
   22  5 2px        0.98352   0.00000      0.000   0.000  -0.000
   22  6 2py        0.19652   0.00000      0.000  -0.000  -0.000
   22  7 2pz        0.02838   0.00000     -0.000   0.000   0.000
   22  8 2px        0.23502   0.00000     -0.000  -0.000   0.000
   22  9 3Pdxy      0.00325   0.00000     -0.000  -0.000   0.000
   22 10 3Pdyz      0.00034   0.00000     -0.000  -0.000  -0.000
   22 11 3Pdz2      0.00254   0.00000      0.000  -0.000   0.000
   22 12 3Pdxz      0.00318   0.00000     -0.000  -0.000  -0.000
   22 13 3Pdx2-y2   0.00475   0.00000      0.000  -0.000  -0.000
   22     Total     5.53304   0.00000      0.000   0.000  -0.000

   23  1 2s         1.39694   0.00000     -0.000   0.000  -0.000
   23  2 2s         0.11801   0.00000      0.000  -0.000  -0.000
   23  3 2py        1.00718   0.00000      0.000   0.000  -0.000
   23  4 2pz        1.52500   0.00000     -0.000  -0.000  -0.000
   23  5 2px        1.06499   0.00000      0.000  -0.000  -0.000
   23  6 2py        0.21141   0.00000     -0.000  -0.000   0.000
   23  7 2pz        0.00491   0.00000     -0.000  -0.000   0.000
   23  8 2px        0.19797   0.00000     -0.000   0.000   0.000
   23  9 3Pdxy      0.00529   0.00000      0.000  -0.000   0.000
   23 10 3Pdyz      0.00445   0.00000      0.000   0.000  -0.000
   23 11 3Pdz2      0.00062   0.00000     -0.000  -0.000  -0.000
   23 12 3Pdxz      0.00243   0.00000      0.000   0.000  -0.000
   23 13 3Pdx2-y2   0.00136   0.00000     -0.000  -0.000   0.000
   23     Total     5.54058   0.00000      0.000  -0.000  -0.000

----------------------------------------------------------------
Total              56.75433   0.00000      0.000  -0.000  -0.000


Species: Si                  

Atom      Orb        Charge      Spin       Svec
----------------------------------------------------------------
    7  1 3s         0.66797   0.00000     -0.000   0.000   0.000
    7  2 3s         0.36483   0.00000     -0.000  -0.000   0.000
    7  3 3py        0.48828   0.00000     -0.000  -0.000   0.000
    7  4 3pz        0.69135   0.00000     -0.000  -0.000  -0.000
    7  5 3px        0.12517   0.00000      0.000   0.000  -0.000
    7  6 3py        0.26430   0.00000      0.000   0.000   0.000
    7  7 3pz        0.25892   0.00000      0.000   0.000   0.000
    7  8 3px        0.43807   0.00000     -0.000  -0.000   0.000
    7  9 3Pdxy      0.24554   0.00000     -0.000  -0.000   0.000
    7 10 3Pdyz      0.02933   0.00000     -0.000  -0.000   0.000
    7 11 3Pdz2      0.01177   0.00000      0.000   0.000   0.000
    7 12 3Pdxz      0.14555   0.00000     -0.000   0.000  -0.000
    7 13 3Pdx2-y2   0.11292   0.00000      0.000  -0.000   0.000
    7     Total     3.84400   0.00000     -0.000  -0.000   0.000

    8  1 3s         0.65685   0.00000     -0.000  -0.000  -0.000
    8  2 3s         0.36850   0.00000     -0.000   0.000   0.000
    8  3 3py        0.38813   0.00000      0.000   0.000  -0.000
    8  4 3pz        0.52498   0.00000     -0.000  -0.000   0.000
    8  5 3px       -0.03063   0.00000      0.000   0.000  -0.000
    8  6 3py        0.30886   0.00000     -0.000  -0.000   0.000
    8  7 3pz        0.20204   0.00000      0.000   0.000   0.000
    8  8 3px        0.51467   0.00000     -0.000  -0.000   0.000
    8  9 3Pdxy      0.24599   0.00000     -0.000  -0.000   0.000
    8 10 3Pdyz      0.11216   0.00000     -0.000   0.000  -0.000
    8 11 3Pdz2      0.01451   0.00000      0.000  -0.000   0.000
    8 12 3Pdxz      0.15339   0.00000     -0.000   0.000   0.000
    8 13 3Pdx2-y2   0.20026   0.00000     -0.000  -0.000   0.000
    8     Total     3.65974   0.00000     -0.000   0.000   0.000

    9  1 3s         0.60476   0.00000      0.000   0.000   0.000
    9  2 3s         0.36601   0.00000     -0.000  -0.000  -0.000
    9  3 3py        0.07515   0.00000     -0.000  -0.000   0.000
    9  4 3pz        0.48493   0.00000      0.000   0.000  -0.000
    9  5 3px        0.37952   0.00000      0.000   0.000  -0.000
    9  6 3py        0.44749   0.00000      0.000  -0.000  -0.000
    9  7 3pz        0.18704   0.00000     -0.000  -0.000  -0.000
    9  8 3px        0.27326   0.00000     -0.000  -0.000   0.000
    9  9 3Pdxy      0.31257   0.00000     -0.000   0.000   0.000
    9 10 3Pdyz      0.19010   0.00000      0.000   0.000  -0.000
    9 11 3Pdz2      0.01643   0.00000      0.000  -0.000   0.000
    9 12 3Pdxz      0.09750   0.00000     -0.000  -0.000  -0.000
    9 13 3Pdx2-y2   0.17203   0.00000     -0.000   0.000  -0.000
    9     Total     3.60678   0.00000      0.000   0.000  -0.000

   10  1 3s         0.48260   0.00000      0.000   0.000   0.000
   10  2 3s         0.37776   0.00000     -0.000   0.000   0.000
   10  3 3py        0.24139   0.00000     -0.000   0.000   0.000
   10  4 3pz        0.40862   0.00000     -0.000   0.000   0.000
   10  5 3px        0.10120   0.00000      0.000   0.000  -0.000
   10  6 3py        0.32756   0.00000      0.000  -0.000   0.000
   10  7 3pz        0.22257   0.00000      0.000   0.000   0.000
   10  8 3px        0.42891   0.00000     -0.000  -0.000   0.000
   10  9 3Pdxy      0.16946   0.00000     -0.000  -0.000  -0.000
   10 10 3Pdyz      0.13981   0.00000     -0.000  -0.000   0.000
   10 11 3Pdz2      0.01033   0.00000      0.000   0.000   0.000
   10 12 3Pdxz      0.17481   0.00000      0.000   0.000   0.000
   10 13 3Pdx2-y2   0.31001   0.00000      0.000  -0.000  -0.000
   10     Total     3.39502   0.00000     -0.000   0.000   0.000

   11  1 3s         0.55261   0.00000     -0.000  -0.000   0.000
   11  2 3s         0.38535   0.00000      0.000   0.000   0.000
   11  3 3py        0.32183   0.00000     -0.000  -0.000   0.000
   11  4 3pz        0.54056   0.00000      0.000  -0.000   0.000
   11  5 3px        0.12418   0.00000     -0.000   0.000   0.000
   11  6 3py        0.28681   0.00000      0.000   0.000   0.000
   11  7 3pz        0.17744   0.00000     -0.000   0.000   0.000
   11  8 3px        0.44645   0.00000      0.000  -0.000  -0.000
   11  9 3Pdxy      0.22532   0.00000     -0.000  -0.000   0.000
   11 10 3Pdyz      0.12631   0.00000      0.000   0.000   0.000
   11 11 3Pdz2      0.00958   0.00000      0.000   0.000  -0.000
   11 12 3Pdxz      0.05276   0.00000     -0.000   0.000   0.000
   11 13 3Pdx2-y2   0.20384   0.00000      0.000   0.000   0.000
   11     Total     3.45306   0.00000      0.000  -0.000   0.000

   17  1 3s         0.63893   0.00000     -0.000  -0.000   0.000
   17  2 3s         0.36077   0.00000      0.000   0.000  -0.000
   17  3 3py        0.22717   0.00000      0.000   0.000   0.000
   17  4 3pz        0.42291   0.00000     -0.000  -0.000   0.000
   17  5 3px        0.24483   0.00000      0.000  -0.000   0.000
   17  6 3py        0.38767   0.00000     -0.000  -0.000  -0.000
   17  7 3pz        0.21146   0.00000     -0.000  -0.000   0.000
   17  8 3px        0.36876   0.00000     -0.000   0.000  -0.000
   17  9 3Pdxy      0.30163   0.00000      0.000  -0.000   0.000
   17 10 3Pdyz      0.14280   0.00000      0.000   0.000   0.000
   17 11 3Pdz2      0.00906   0.00000     -0.000   0.000   0.000
   17 12 3Pdxz      0.14332   0.00000      0.000  -0.000   0.000
   17 13 3Pdx2-y2   0.16354   0.00000     -0.000  -0.000   0.000
   17     Total     3.62286   0.00000      0.000  -0.000   0.000

   18  1 3s         0.74425   0.00000     -0.000   0.000   0.000
   18  2 3s         0.33959   0.00000      0.000  -0.000   0.000
   18  3 3py        0.07909   0.00000      0.000  -0.000   0.000
   18  4 3pz        0.82139   0.00000     -0.000   0.000   0.000
   18  5 3px        0.55528   0.00000     -0.000   0.000   0.000
   18  6 3py        0.51829   0.00000     -0.000   0.000   0.000
   18  7 3pz        0.19774   0.00000      0.000   0.000   0.000
   18  8 3px        0.25023   0.00000      0.000  -0.000   0.000
   18  9 3Pdxy      0.10332   0.00000      0.000   0.000  -0.000
   18 10 3Pdyz      0.02746   0.00000      0.000  -0.000  -0.000
   18 11 3Pdz2      0.00871   0.00000     -0.000   0.000  -0.000
   18 12 3Pdxz      0.03026   0.00000      0.000  -0.000  -0.000
   18 13 3Pdx2-y2   0.11297   0.00000     -0.000   0.000   0.000
   18     Total     3.78859   0.00000     -0.000   0.000   0.000

   19  1 3s         0.46017   0.00000     -0.000   0.000   0.000
   19  2 3s         0.36493   0.00000      0.000   0.000  -0.000
   19  3 3py        0.08291   0.00000      0.000   0.000   0.000
   19  4 3pz        0.42933   0.00000     -0.000   0.000   0.000
   19  5 3px        0.35766   0.00000      0.000  -0.000   0.000
   19  6 3py        0.47053   0.00000     -0.000  -0.000  -0.000
   19  7 3pz        0.18259   0.00000      0.000  -0.000   0.000
   19  8 3px        0.23828   0.00000     -0.000   0.000  -0.000
   19  9 3Pdxy      0.34186   0.00000     -0.000   0.000  -0.000
   19 10 3Pdyz      0.18866   0.00000      0.000   0.000  -0.000
   19 11 3Pdz2      0.01605   0.00000      0.000  -0.000   0.000
   19 12 3Pdxz      0.08811   0.00000     -0.000   0.000   0.000
   19 13 3Pdx2-y2   0.23798   0.00000      0.000   0.000   0.000
   19     Total     3.45906   0.00000     -0.000   0.000   0.000

   20  1 3s         0.67351   0.00000     -0.000  -0.000  -0.000
   20  2 3s         0.37794   0.00000     -0.000   0.000   0.000
   20  3 3py        0.33064   0.00000     -0.000   0.000  -0.000
   20  4 3pz        0.59081   0.00000      0.000  -0.000  -0.000
   20  5 3px        0.13811   0.00000     -0.000   0.000  -0.000
   20  6 3py        0.29222   0.00000      0.000  -0.000  -0.000
   20  7 3pz        0.16373   0.00000     -0.000   0.000  -0.000
   20  8 3px        0.49976   0.00000      0.000  -0.000   0.000
   20  9 3Pdxy      0.10018   0.00000      0.000   0.000  -0.000
   20 10 3Pdyz      0.13370   0.00000     -0.000   0.000  -0.000
   20 11 3Pdz2      0.00736   0.00000      0.000  -0.000   0.000
   20 12 3Pdxz      0.02694   0.00000      0.000   0.000  -0.000
   20 13 3Pdx2-y2   0.17215   0.00000     -0.000   0.000  -0.000
   20     Total     3.50707   0.00000     -0.000   0.000  -0.000

----------------------------------------------------------------
Total              89.09051   0.00000     -0.000   0.000   0.000


Species: H                   

Atom      Orb        Charge      Spin       Svec
----------------------------------------------------------------
   12  1 1s         0.49572   0.00000     -0.000   0.000   0.000
   12  2 1s         0.18196   0.00000     -0.000  -0.000   0.000
   12  3 2Ppy       0.02905   0.00000     -0.000  -0.000  -0.000
   12  4 2Ppz       0.03395   0.00000     -0.000   0.000  -0.000
   12  5 2Ppx       0.02274   0.00000      0.000  -0.000   0.000
   12     Total     0.76343   0.00000     -0.000   0.000   0.000

   13  1 1s         1.01904   0.00000      0.000   0.000  -0.000
   13  2 1s         0.09553   0.00000      0.000  -0.000   0.000
   13  3 2Ppy       0.01808   0.00000      0.000  -0.000   0.000
   13  4 2Ppz       0.02008   0.00000      0.000   0.000   0.000
   13  5 2Ppx       0.03514   0.00000     -0.000  -0.000   0.000
   13     Total     1.18788   0.00000      0.000   0.000  -0.000

   14  1 1s         0.46005   0.00000     -0.000   0.000   0.000
   14  2 1s         0.20007   0.00000     -0.000  -0.000   0.000
   14  3 2Ppy       0.01787   0.00000      0.000  -0.000  -0.000
   14  4 2Ppz       0.04542   0.00000     -0.000   0.000  -0.000
   14  5 2Ppx       0.01712   0.00000      0.000  -0.000   0.000
   14     Total     0.74053   0.00000     -0.000   0.000   0.000

   15  1 1s         0.49503   0.00000      0.000  -0.000   0.000
   15  2 1s         0.17871   0.00000      0.000   0.000   0.000
   15  3 2Ppy       0.00506   0.00000      0.000  -0.000   0.000
   15  4 2Ppz       0.04207   0.00000     -0.000  -0.000  -0.000
   15  5 2Ppx       0.02807   0.00000      0.000  -0.000   0.000
   15     Total     0.74893   0.00000      0.000  -0.000   0.000

   16  1 1s         0.51006   0.00000      0.000  -0.000   0.000
   16  2 1s         0.18737   0.00000      0.000   0.000   0.000
   16  3 2Ppy       0.02981   0.00000      0.000  -0.000   0.000
   16  4 2Ppz       0.03981   0.00000      0.000  -0.000   0.000
   16  5 2Ppx       0.02359   0.00000     -0.000  -0.000   0.000
   16     Total     0.79064   0.00000      0.000  -0.000   0.000

   24  1 1s         1.06321   0.00000      0.000  -0.000  -0.000
   24  2 1s         0.07425   0.00000     -0.000   0.000   0.000
   24  3 2Ppy       0.03212   0.00000      0.000  -0.000   0.000
   24  4 2Ppz       0.03070   0.00000      0.000   0.000   0.000
   24  5 2Ppx       0.01729   0.00000      0.000  -0.000  -0.000
   24     Total     1.21756   0.00000      0.000  -0.000  -0.000

   25  1 1s         1.04314   0.00000      0.000  -0.000  -0.000
   25  2 1s         0.08650   0.00000     -0.000   0.000  -0.000
   25  3 2Ppy       0.01226   0.00000     -0.000   0.000  -0.000
   25  4 2Ppz       0.01849   0.00000     -0.000  -0.000  -0.000
   25  5 2Ppx       0.03569   0.00000     -0.000   0.000   0.000
   25     Total     1.19607   0.00000      0.000  -0.000  -0.000

   26  1 1s         0.47467   0.00000     -0.000   0.000   0.000
   26  2 1s         0.19621   0.00000      0.000  -0.000   0.000
   26  3 2Ppy       0.02098   0.00000     -0.000  -0.000  -0.000
   26  4 2Ppz       0.04886   0.00000      0.000   0.000  -0.000
   26  5 2Ppx       0.01604   0.00000     -0.000   0.000  -0.000
   26     Total     0.75676   0.00000     -0.000   0.000   0.000

   27  1 1s         0.51002   0.00000     -0.000  -0.000   0.000
   27  2 1s         0.16942   0.00000     -0.000   0.000   0.000
   27  3 2Ppy       0.00659   0.00000      0.000  -0.000  -0.000
   27  4 2Ppz       0.03719   0.00000      0.000   0.000  -0.000
   27  5 2Ppx       0.02854   0.00000     -0.000  -0.000   0.000
   27     Total     0.75176   0.00000     -0.000  -0.000   0.000

   29  1 1s         0.48466   0.00000     -0.000   0.000   0.000
   29  2 1s         0.18765   0.00000      0.000   0.000   0.000
   29  3 2Ppy       0.02513   0.00000     -0.000   0.000  -0.000
   29  4 2Ppz       0.03433   0.00000      0.000  -0.000   0.000
   29  5 2Ppx       0.02417   0.00000      0.000  -0.000   0.000
   29     Total     0.75594   0.00000     -0.000  -0.000   0.000

----------------------------------------------------------------
Total              98.00000   0.00000      0.000   0.000  -0.000


siesta: Eigenvalues (eV):
ik =     1
  -21.8937  -21.8937  -21.7966  -21.7966  -21.5917  -21.5917  -21.5666  -21.5666  -21.2393  -21.2393
  -21.0020  -21.0020  -20.8367  -20.8367  -19.8288  -19.8288  -19.3851  -19.3851  -19.3687  -19.3687
  -14.7382  -14.7382  -13.8893  -13.8893  -13.3338  -13.3338  -13.1908  -13.1908  -13.1113  -13.1113
  -12.8673  -12.8673  -12.8520  -12.8520  -12.4555  -12.4555  -12.3815  -12.3815  -12.0151  -12.0151
  -11.4515  -11.4515  -10.7970  -10.7970  -10.7614  -10.7614  -10.7129  -10.7129  -10.0837  -10.0837
   -9.5321   -9.5321   -9.2430   -9.2430   -8.8695   -8.8695   -8.7109   -8.7109   -8.6564   -8.6564
   -8.6507   -8.6507   -8.3884   -8.3884   -8.1930   -8.1930   -7.8251   -7.8251   -7.6533   -7.6533
   -7.5648   -7.5648   -7.3335   -7.3335   -7.3090   -7.3090   -6.8910   -6.8910   -6.7403   -6.7403
   -6.5242   -6.5242   -6.4956   -6.4956   -6.1075   -6.1075   -6.0934   -6.0934   -6.0862   -6.0862
   -5.7106   -5.7106   -5.6483   -5.6483   -5.4416   -5.4416   -4.3168   -4.3168   -3.2314   -3.2314
   -2.3268   -2.3268   -2.2878   -2.2878   -2.2487   -2.2487   -1.8831   -1.8831   -1.8676   -1.8676
   -1.8267   -1.8267   -1.7653   -1.7653   -1.5607   -1.5607   -1.5403   -1.5403   -0.9782   -0.9782
   -0.9585   -0.9585   -0.8214   -0.8214   -0.3886   -0.3886   -0.1687   -0.1687    0.0355    0.0355
    0.3384    0.3384    0.4302    0.4302    0.5443    0.5443    0.7112    0.7112    0.7731    0.7731
    0.9867    0.9867    1.2472    1.2472    1.2889    1.2889    1.4034    1.4034    1.4516    1.4516
    1.6794    1.6794    1.8255    1.8255    1.9167    1.9167    2.3588    2.3588    2.7359    2.7359
    2.7411    2.7411    2.8332    2.8332    3.0152    3.0152    3.1284    3.1284    3.3281    3.3281
    3.3821    3.3821    3.7780    3.7780    3.8641    3.8641    4.0918    4.0918    4.2977    4.2977
    4.4274    4.4274    4.5113    4.5113    4.5825    4.5825    4.5964    4.5964    4.8501    4.8501
    4.9470    4.9470    4.9991    4.9991    5.2390    5.2390    5.4972    5.4972    5.6736    5.6736
    5.7044    5.7044    5.7757    5.7757    5.9168    5.9168    5.9809    5.9809    5.9856    5.9856
    6.1828    6.1828    6.3319    6.3319    6.6293    6.6293    6.7349    6.7349    6.8144    6.8144
    7.0542    7.0542    7.1940    7.1940    7.3881    7.3881    7.5336    7.5336    7.7369    7.7369
    7.8054    7.8054    8.0273    8.0273    8.0939    8.0939    8.2388    8.2388    8.2639    8.2639
    8.5316    8.5316    8.6818    8.6818    8.7669    8.7669    8.9468    8.9468    9.1953    9.1953
    9.2273    9.2273    9.2668    9.2668    9.7238    9.7238    9.8215    9.8215    9.8450    9.8450
    9.9895    9.9895   10.1658   10.1658   10.4325   10.4325   10.7773   10.7773   10.8544   10.8544
   10.9432   10.9432   11.0836   11.0836   11.1925   11.1925   11.7006   11.7006   11.8477   11.8477
   11.8866   11.8866   11.9295   11.9295   12.1987   12.1987   12.3929   12.3929   12.5350   12.5350
   12.7030   12.7030   12.7378   12.7378   13.3981   13.3981   13.5116   13.5116   13.7286   13.7286
   13.7848   13.7848   14.0490   14.0490   14.2300   14.2300   14.4598   14.4598   14.8256   14.8256
   14.8513   14.8513   15.3324   15.3324   15.9878   15.9878   16.4209   16.4209   16.6754   16.6754
   16.9509   16.9509   17.4049   17.4049   17.6790   17.6790   18.2297   18.2297   18.3351   18.3351
   18.5713   18.5713   19.0901   19.0901   19.3469   19.3469   19.9576   19.9576   20.2523   20.2523
   20.8913   20.8913   21.3213   21.3213   21.7970   21.7970   22.1784   22.1784   22.4485   22.4485
   23.1089   23.1089   23.2938   23.2938   23.7727   23.7727   23.8313   23.8313   23.8861   23.8861
   24.8293   24.8293   25.2091   25.2091   25.9889   25.9889   26.8073   26.8073   27.4559   27.4559
   28.5190   28.5190   29.0949   29.0949   29.1179   29.1179   29.5145   29.5145   29.5959   29.5959
   30.0657   30.0657   30.1529   30.1529   30.2442   30.2442   30.6272   30.6272   30.8138   30.8138
   31.0160   31.0160   31.1590   31.1590   31.4651   31.4651   31.6012   31.6012   32.2584   32.2584
   32.6935   32.6935   33.8730   33.8730   34.5104   34.5104   34.6747   34.6747   34.9423   34.9423
   34.9501   34.9501   35.0853   35.0853   35.3733   35.3733   35.6708   35.6708   35.8488   35.8488
   36.7576   36.7576   36.8398   36.8398   37.0440   37.0440   37.2303   37.2303   37.5971   37.5971
   38.1789   38.1789   38.3341   38.3341   39.3368   39.3368   39.4838   39.4838   39.8946   39.8946
   40.2392   40.2392   40.5639   40.5639   40.5899   40.5899   40.6849   40.6849   40.9566   40.9566
   41.1299   41.1299   41.4773   41.4773   42.3946   42.3946   42.6774   42.6774   43.0015   43.0015
   43.1649   43.1649   43.7538   43.7538   43.9216   43.9216   44.0521   44.0521   44.2412   44.2412
   44.6828   44.6828   44.7039   44.7039   45.1012   45.1012   45.3939   45.3939   46.0749   46.0749
   46.4407   46.4407   46.8610   46.8610   47.1920   47.1920   48.6060   48.6060   49.0517   49.0517
   49.4849   49.4849   50.3049   50.3049   50.5158   50.5158   50.6986   50.6986   50.9300   50.9300
   51.3812   51.3812   51.5397   51.5397   52.6983   52.6983   52.7661   52.7661   54.1958   54.1958
   54.3642   54.3642   54.4238   54.4238   54.9049   54.9049   55.7999   55.7999   55.8851   55.8851
   55.9020   55.9020   56.1324   56.1324   56.4932   56.4932   57.9193   57.9193   58.2550   58.2550
   58.6853   58.6853   60.1696   60.1696   60.4417   60.4417   60.7837   60.7837   61.1465   61.1465
   61.8107   61.8107   62.0411   62.0411   62.2575   62.2575   64.4869   64.4869   66.4489   66.4489
   67.1743   67.1743   67.2244   67.2244   68.1272   68.1272   68.7908   68.7908   70.8447   70.8447
   74.0990   74.0990   80.0050   80.0050   91.0789   91.0789   91.9020   91.9020   93.3653   93.3653
   98.3923   98.3923   98.7844   98.7844   99.5971   99.5971  103.3590  103.3590  103.7858  103.7858
  110.1534  110.1534  111.6630  111.6630  123.6381  123.6381  125.6998  125.6998  130.0127  130.0127
  135.0744  135.0744  138.3879  138.3879
siesta: Fermi energy =      -3.773321 eV

siesta: Program's energy decomposition (eV):
siesta: Ebs     =     -1134.271601
siesta: Eions   =      3585.165840
siesta: Ena     =       382.019143
siesta: Ekin    =      2903.413279
siesta: Enl     =     -2788.220870
siesta: Eso     =        -0.004280
siesta: Edftu   =         0.000000
siesta: DEna    =        47.016012
siesta: DUscf   =        14.326060
siesta: DUext   =         0.000000
siesta: Exc     =     -1119.851264
siesta: eta*DQ  =         0.000000
siesta: Emadel  =         0.000000
siesta: Emeta   =         0.000000
siesta: Emolmec =         0.000000
siesta: Ekinion =         0.000000
siesta: Eharris =     -4146.467760
siesta: Etot    =     -4146.467760
siesta: FreeEng =     -4146.467760

siesta: Final energy (eV):
siesta:  Band Struct. =   -1134.271601
siesta:       Kinetic =    2903.413279
siesta:       Hartree =    8214.159560
siesta:       Edftu   =       0.000000
siesta:       Eso     =      -0.004280
siesta:    Ext. field =       0.000000
siesta:   Exch.-corr. =   -1119.851264
siesta:  Ion-electron =  -19012.314026
siesta:       Ion-ion =    4868.128970
siesta:       Ekinion =       0.000000
siesta:         Total =   -4146.467760
siesta:         Fermi =      -3.773321

siesta: Atomic forces (eV/Ang):
siesta:      1    2.238715   -1.257311   -0.000000
siesta:      2    0.009875    0.029912   -0.000000
siesta:      3    0.768412   -0.390084    0.000000
siesta:      4    0.744089   -0.019713   -0.000000
siesta:      5    0.042627   -0.089346    0.000000
siesta:      6    1.797089    0.699702    0.000000
siesta:      7    0.042918   -0.258509    0.000000
siesta:      8   -0.420644    0.290713   -0.000000
siesta:      9   -0.193436    1.275573   -0.000000
siesta:     10   -1.040103    0.363803   -0.000000
siesta:     11   -0.023852   -0.020771    0.000000
siesta:     12   -0.325047   -0.181811   -0.000000
siesta:     13    0.131237   -0.023122   -0.000000
siesta:     14    0.252380   -0.108128   -0.000000
siesta:     15   -1.351307   -0.915592    0.000000
siesta:     16   -0.178070    0.157096   -0.000000
siesta:     17    1.025934   -1.117620   -0.000000
siesta:     18   -0.219029    0.200250    0.000000
siesta:     19   -0.187550   -1.263019   -0.000000
siesta:     20   -0.014040   -0.423174    0.000000
siesta:     21   -0.318545    1.042587    0.000000
siesta:     22   -2.217224   -0.891491   -0.000000
siesta:     23    0.310766    0.550430   -0.000000
siesta:     24    0.077220   -0.013173   -0.000000
siesta:     25    0.096861    0.041404    0.000000
siesta:     26   -0.278272   -0.212882   -0.000000
siesta:     27    1.535914    1.456106    0.000000
siesta:     28   -2.201486    0.717220    0.000000
siesta:     29   -0.050645    0.137178    0.000000
siesta: ----------------------------------------
siesta:    Tot    0.054785   -0.223770    0.000000

siesta: Stress tensor (static) (eV/Ang**3):
siesta:    -0.000006    0.000861   -0.000000
siesta:     0.000861    0.000938   -0.000000
siesta:    -0.000000    0.000000   -0.000064

siesta: Cell volume =       5398.855652 Ang**3

siesta: Pressure (static):
siesta:                Solid            Molecule  Units
siesta:          -0.00000315          0.00001215  Ry/Bohr**3
siesta:          -0.00028933          0.00111592  eV/Ang**3
siesta:          -0.46355887          1.78791661  kBar
(Free)E+ p_basis*V_orbitals  =       -4126.617343
(Free)Eharris+ p_basis*V_orbitals  =       -4126.617343
     spin moment: S , {S} =    0.00000   0.00000   0.00000  -0.00000

siesta: Electric dipole (a.u.)  =    1.559699    0.033970   -0.000000
siesta: Electric dipole (Debye) =    3.964362    0.086342   -0.000000

cite: Please see "GC.bib" for an exhaustive BiBTeX file.
cite: Please clearly indicate Siesta version in published work: v4.1.5-1-g384057250
cite: This calculation has made use of the following articles
cite: which are encouraged to be cited in a published work.
        Primary SIESTA paper
          DOI: www.doi.org/10.1088/0953-8984/14/11/302
        Spin-orbit coupling (on-site approximation)
          DOI: www.doi.org/10.1088/0953-8984/19/19/489001


WARNING: alloc-realloc-dealloc name mismatch
         Name: atomlist isa
         Size:              -116. Bytes
         Node:     0
         Subsequent mismatches will not be reported
>> End of run:  28-JUN-2023  16:02:28
Job completed
