Siesta Version  : v4.1.5-1-g384057250
Architecture    : gcc
Compiler version: GNU Fortran (Debian 10.2.1-6) 10.2.1 20210110
Compiler flags  : mpifort -O2 -fPIC -ftree-vectorize -fallow-argument-mismatch
PP flags        : -DFC_HAVE_ABORT -DMPI -DSIESTA__FLOOK -DSIESTA__METIS -DSIESTA__MUMPS -DCDF -DNCDF -DNCDF_4 -DNCDF_PARALLEL -DSIESTA__MRRR -DSIESTA__ELPA
Libraries       : libncdf.a libfdict.a  -lflookall -ldl -lnetcdff -lnetcdf -lhdf5_hl -lhdf5 -lhdf5_fortran -lz -lscalapack-openmpi -lopenblas -lmetis -lzmumps -lcmumps -ldmumps -lmumps_common -lpord -lsmumps -lesmumps -lscotch -lscotcherr -fopenmp -lelpa
PARALLEL version
NetCDF support
NetCDF-4 support
NetCDF-4 MPI-IO support
METIS ordering support
Lua support

* Running on 6 nodes in parallel
>> Start of run:  16-OCT-2023  18:16:52

                           ***********************       
                           *  WELCOME TO SIESTA  *       
                           ***********************       

reinit: Reading from standard input
reinit: Dumped input in INPUT_TMP.67520
************************** Dump of input data file ****************************
# mpirun -np 4 siesta-4.1.5 < GC.fdf > GC.out &
SystemLabel      GC
NumberOfAtoms    29
NumberOfSpecies  4
%block ChemicalSpeciesLabel
    1    1  H
    2    7  N
    3   14  Si
    4    8  O
%endblock ChemicalSpeciesLabel
############################################
# This overrides Defaults.fdf configuration
############################################
MD.TypeOfRun                CG # CG, Verlet
MD.Steps                    0
MaxSCFIterations            600
AtomicCoordinatesFormat NotScaledCartesianAng
%block AtomicCoordinatesAndAtomicSpecies
    1.0157500841827247 3.6252506140546825 0.0  1  1  H
    0.30926335418272477 2.8352144340546825 0.0  2  2  N
    -1.4210235558172752 3.2765783440546823 0.0  3  3  Si
    -1.5768032358172752 4.7665706040546825 0.0  1  4  H
    -2.9443451758172756 1.7176708240546825 0.0  3  5  Si
    -4.427532805817275 1.9605011840546827 0.0  1  6  H
    -1.7459543158172752 -0.19560533594531748 0.0  3  7  Si
    -2.5119797758172755 -1.7283220759453175 0.0  2  8  N
    -1.9217332258172752 -2.6855351059453176 0.0  1  9  H
    -3.5636020958172754 -1.8087823059453174 0.0  1  10  H
    -0.029754255817275255 -0.14043102594531753 0.0  2  11  N
    1.0452683641827247 1.1899078140546826 0.0  3  12  Si
    2.6539416841827244 1.1710975540546826 0.0  4  13  O
    5.6164483 -7.44953905 0.0  1  14  H
    4.58206954 -7.2320376 0.0  2  15  N
    3.29666389 -8.492636 0.0  3  16  Si
    3.80117524 -9.90371886 -0.0  1  17  H
    1.65934232 -8.01362137 0.0  2  18  N
    1.68097912 -6.20463398 -0.0  3  19  Si
    0.54543521 -4.28636135 0.0  3  20  Si
    -1.03431493 -3.94450034 0.0  4  21  O
    1.73226934 -2.87719605 0.0  2  22  N
    1.20957366 -1.92961761 -0.0  1  23  H
    3.50853448 -2.77677601 0.0  3  24  Si
    4.13684451 -1.17938608 0.0  2  25  N
    3.54296161 -0.26248101 0.0  1  26  H
    5.18364407 -1.05231197 -0.0  1  27  H
    4.63288658 -4.07521596 -0.0  2  28  N
    3.79410501 -5.58634043 0.0  3  29  Si
%endblock AtomicCoordinatesAndAtomicSpecies
%include ../../../../Defaults.fdf
************************** End of input data file *****************************

reinit: -----------------------------------------------------------------------
reinit: System Name: 
reinit: -----------------------------------------------------------------------
reinit: System Label: GC
reinit: -----------------------------------------------------------------------

initatom: Reading input for the pseudopotentials and atomic orbitals ----------
Species number:   1 Atomic number:    1 Label: H
Species number:   2 Atomic number:    7 Label: N
Species number:   3 Atomic number:   14 Label: Si
Species number:   4 Atomic number:    8 Label: O

Ground state valence configuration:   1s01
Reading pseudopotential information in formatted form from H.psf

Pseudopotential generated from a relativistic atomic calculation

Valence configuration for pseudopotential generation:
1s( 1.00) rc: 0.01
2p( 0.00) rc: 0.60
3d( 0.00) rc: 1.99
4f( 0.00) rc: 2.49
Ground state valence configuration:   2s02  2p03
Reading pseudopotential information in formatted form from N.psf

Pseudopotential generated from a relativistic atomic calculation

Valence configuration for pseudopotential generation:
2s( 2.00) rc: 0.94
2p( 3.00) rc: 0.59
3d( 0.00) rc: 3.46
4f( 0.00) rc: 2.47
Ground state valence configuration:   3s02  3p02
Reading pseudopotential information in formatted form from Si.psf

Pseudopotential generated from a relativistic atomic calculation

Valence configuration for pseudopotential generation:
3s( 2.00) rc: 1.67
3p( 2.00) rc: 2.04
3d( 0.00) rc: 2.89
4f( 0.00) rc: 2.49
Ground state valence configuration:   2s02  2p04
Reading pseudopotential information in formatted form from O.psf

Pseudopotential generated from a relativistic atomic calculation

Valence configuration for pseudopotential generation:
2s( 2.00) rc: 0.45
2p( 4.00) rc: 0.92
3d( 0.00) rc: 2.24
4f( 0.00) rc: 0.25
For H, standard SIESTA heuristics set lmxkb to 2
 (one more than the basis l, including polarization orbitals).
Use PS.lmax or PS.KBprojectors blocks to override.
For N, standard SIESTA heuristics set lmxkb to 3
 (one more than the basis l, including polarization orbitals).
Use PS.lmax or PS.KBprojectors blocks to override.
For Si, standard SIESTA heuristics set lmxkb to 3
 (one more than the basis l, including polarization orbitals).
Use PS.lmax or PS.KBprojectors blocks to override.
For O, standard SIESTA heuristics set lmxkb to 3
 (one more than the basis l, including polarization orbitals).
Use PS.lmax or PS.KBprojectors blocks to override.

<basis_specs>
===============================================================================
H                    Z=   1    Mass=  1.0100        Charge= 0.17977+309
Lmxo=0 Lmxkb= 2    BasisType=split      Semic=F
L=0  Nsemic=0  Cnfigmx=1
          i=1  nzeta=2  polorb=1  (1s)
            splnorm:   0.62000    
               vcte:    0.0000    
               rinn:    0.0000    
               qcoe:    0.0000    
               qyuk:    0.0000    
               qwid:   0.10000E-01
                rcs:    0.0000      0.0000    
            lambdas:    1.0000      1.0000    
-------------------------------------------------------------------------------
L=0  Nkbl=1  erefs: 0.17977+309
L=1  Nkbl=1  erefs: 0.17977+309
L=2  Nkbl=1  erefs: 0.17977+309
===============================================================================
</basis_specs>

atom: Called for H                     (Z =   1)

read_vps: Pseudopotential generation method:
read_vps: ATM4.2.7  Troullier-Martins                       
Valence charge for ps generation:    1.00000

xc_check: Exchange-correlation functional:
xc_check: GGA Perdew, Burke & Ernzerhof 1996
V l=0 = -2*Zval/r beyond r=  0.0098
V l=1 = -2*Zval/r beyond r=  0.5817
V l=2 = -2*Zval/r beyond r=  1.9372
All V_l potentials equal beyond r=  1.9372
This should be close to max(r_c) in ps generation
All pots = -2*Zval/r beyond r=  1.9372

VLOCAL1: 99.0% of the norm of Vloc inside     11.567 Ry
VLOCAL1: 99.9% of the norm of Vloc inside     26.362 Ry
atom: Maximum radius for 4*pi*r*r*local-pseudopot. charge    2.25106
atom: Maximum radius for r*vlocal+2*Zval:    1.91306
GHOST: No ghost state for L =  0
GHOST: No ghost state for L =  1
GHOST: No ghost state for L =  2

KBgen: Kleinman-Bylander projectors: 
   l= 0   rc=  2.036604   el= -0.477180   Ekb= -6.081590   kbcos= -0.277285
   l= 1   rc=  2.195416   el=  0.001076   Ekb= -0.926943   kbcos= -0.034643
   l= 2   rc=  2.251056   el=  0.002010   Ekb= -0.130941   kbcos= -0.009788

KBgen: Total number of Kleinman-Bylander projectors:    9
atom: -------------------------------------------------------------------------

atom: SANKEY-TYPE ORBITALS:
atom: Selected multiple-zeta basis: split     

SPLIT: Orbitals with angular momentum L= 0

SPLIT: Basis orbitals for state 1s

SPLIT: PAO cut-off radius determined from an
SPLIT: energy shift=  0.002000 Ry

   izeta = 1
                 lambda =    1.000000
                     rc =    6.518340
                 energy =   -0.475305
                kinetic =    0.912139
    potential(screened) =   -1.387444
       potential(ionic) =   -1.907295

   izeta = 2
                 rmatch =    2.141150
              splitnorm =    0.620000
                 energy =    0.566467
                kinetic =    3.772856
    potential(screened) =   -3.206389
       potential(ionic) =   -3.759093

POLgen: Perturbative polarization orbital with L=  1

POLgen: Polarization orbital for state 1s

   izeta = 1
                     rc =    6.518340
                 energy =    0.533861
                kinetic =    1.121086
    potential(screened) =   -0.587225
       potential(ionic) =   -1.053027
atom: Total number of Sankey-type orbitals:  5

atm_pop: Valence configuration (for local Pseudopot. screening):
 1s( 1.00)                                                            
Vna: chval, zval:    1.00000   1.00000

Vna:  Cut-off radius for the neutral-atom potential:   6.518340

atom: _________________________________________________________________________

<basis_specs>
===============================================================================
N                    Z=   7    Mass=  14.010        Charge= 0.17977+309
Lmxo=1 Lmxkb= 3    BasisType=split      Semic=F
L=0  Nsemic=0  Cnfigmx=2
          i=1  nzeta=2  polorb=0  (2s)
            splnorm:   0.28000    
               vcte:    0.0000    
               rinn:    0.0000    
               qcoe:    0.0000    
               qyuk:    0.0000    
               qwid:   0.10000E-01
                rcs:    0.0000      0.0000    
            lambdas:    1.0000      1.0000    
L=1  Nsemic=0  Cnfigmx=2
          i=1  nzeta=2  polorb=1  (2p)
            splnorm:   0.28000    
               vcte:    0.0000    
               rinn:    0.0000    
               qcoe:    0.0000    
               qyuk:    0.0000    
               qwid:   0.10000E-01
                rcs:    0.0000      0.0000    
            lambdas:    1.0000      1.0000    
-------------------------------------------------------------------------------
L=0  Nkbl=1  erefs: 0.17977+309
L=1  Nkbl=1  erefs: 0.17977+309
L=2  Nkbl=1  erefs: 0.17977+309
L=3  Nkbl=1  erefs: 0.17977+309
===============================================================================
</basis_specs>

atom: Called for N                     (Z =   7)

read_vps: Pseudopotential generation method:
read_vps: ATM4.2.7  Troullier-Martins                       
Valence charge for ps generation:    5.00000

xc_check: Exchange-correlation functional:
xc_check: GGA Perdew, Burke & Ernzerhof 1996
V l=0 = -2*Zval/r beyond r=  1.2889
V l=1 = -2*Zval/r beyond r=  1.2889
V l=2 = -2*Zval/r beyond r=  3.4178
V l=3 = -2*Zval/r beyond r=  2.4084
All V_l potentials equal beyond r=  3.3753
This should be close to max(r_c) in ps generation
All pots = -2*Zval/r beyond r=  3.4178

VLOCAL1: 99.0% of the norm of Vloc inside      3.810 Ry
VLOCAL1: 99.9% of the norm of Vloc inside      8.683 Ry
atom: Maximum radius for 4*pi*r*r*local-pseudopot. charge    4.02088
atom: Maximum radius for r*vlocal+2*Zval:    3.54838
GHOST: No ghost state for L =  0
GHOST: No ghost state for L =  1
GHOST: No ghost state for L =  2
GHOST: No ghost state for L =  3

KBgen: Kleinman-Bylander projectors: 
   l= 0   rc=  3.417763   el= -1.365098   Ekb= -4.433130   kbcos= -0.707855
   l= 1   rc=  3.375302   el= -0.521201   Ekb=-13.264039   kbcos= -0.535594
   l= 2   rc=  3.872880   el=  0.001991   Ekb= -0.641094   kbcos= -0.062456
   l= 3   rc=  3.970931   el=  0.003093   Ekb= -0.474517   kbcos= -0.018236

KBgen: Total number of Kleinman-Bylander projectors:   16
atom: -------------------------------------------------------------------------

atom: SANKEY-TYPE ORBITALS:
atom: Selected multiple-zeta basis: split     

SPLIT: Orbitals with angular momentum L= 0

SPLIT: Basis orbitals for state 2s

SPLIT: PAO cut-off radius determined from an
SPLIT: energy shift=  0.002000 Ry

   izeta = 1
                 lambda =    1.000000
                     rc =    4.730425
                 energy =   -1.363399
                kinetic =    1.245246
    potential(screened) =   -2.608645
       potential(ionic) =   -8.121105

   izeta = 2
                 rmatch =    2.531849
              splitnorm =    0.280000
                 energy =   -0.959908
                kinetic =    2.409435
    potential(screened) =   -3.369343
       potential(ionic) =   -9.427975

SPLIT: Orbitals with angular momentum L= 1

SPLIT: Basis orbitals for state 2p

SPLIT: PAO cut-off radius determined from an
SPLIT: energy shift=  0.002000 Ry

   izeta = 1
                 lambda =    1.000000
                     rc =    5.924108
                 energy =   -0.519262
                kinetic =    3.672940
    potential(screened) =   -4.192202
       potential(ionic) =   -9.518354

   izeta = 2
                 rmatch =    2.531849
              splitnorm =    0.280000
                 energy =   -0.104258
                kinetic =    6.807538
    potential(screened) =   -6.911796
       potential(ionic) =  -13.149920

POLgen: Perturbative polarization orbital with L=  2

POLgen: Polarization orbital for state 2p

   izeta = 1
                     rc =    5.924108
                 energy =    1.427508
                kinetic =    2.872379
    potential(screened) =   -1.444871
       potential(ionic) =   -5.563644
atom: Total number of Sankey-type orbitals: 13

atm_pop: Valence configuration (for local Pseudopot. screening):
 2s( 2.00)                                                            
 2p( 3.00)                                                            
Vna: chval, zval:    5.00000   5.00000

Vna:  Cut-off radius for the neutral-atom potential:   5.924108

atom: _________________________________________________________________________

<basis_specs>
===============================================================================
Si                   Z=  14    Mass=  28.090        Charge= 0.17977+309
Lmxo=1 Lmxkb= 3    BasisType=split      Semic=F
L=0  Nsemic=0  Cnfigmx=3
          i=1  nzeta=2  polorb=0  (3s)
            splnorm:   0.28000    
               vcte:    0.0000    
               rinn:    0.0000    
               qcoe:    0.0000    
               qyuk:    0.0000    
               qwid:   0.10000E-01
                rcs:    0.0000      0.0000    
            lambdas:    1.0000      1.0000    
L=1  Nsemic=0  Cnfigmx=3
          i=1  nzeta=2  polorb=1  (3p)
            splnorm:   0.28000    
               vcte:    0.0000    
               rinn:    0.0000    
               qcoe:    0.0000    
               qyuk:    0.0000    
               qwid:   0.10000E-01
                rcs:    0.0000      0.0000    
            lambdas:    1.0000      1.0000    
-------------------------------------------------------------------------------
L=0  Nkbl=1  erefs: 0.17977+309
L=1  Nkbl=1  erefs: 0.17977+309
L=2  Nkbl=1  erefs: 0.17977+309
L=3  Nkbl=1  erefs: 0.17977+309
===============================================================================
</basis_specs>

atom: Called for Si                    (Z =  14)

read_vps: Pseudopotential generation method:
read_vps: ATM4.2.7  Troullier-Martins                       
Valence charge for ps generation:    4.00000

xc_check: Exchange-correlation functional:
xc_check: GGA Perdew, Burke & Ernzerhof 1996
V l=0 = -2*Zval/r beyond r=  2.7826
V l=1 = -2*Zval/r beyond r=  2.7826
V l=2 = -2*Zval/r beyond r=  2.9253
V l=3 = -2*Zval/r beyond r=  2.7826
All V_l potentials equal beyond r=  2.8530
This should be close to max(r_c) in ps generation
All pots = -2*Zval/r beyond r=  2.9253

VLOCAL1: 99.0% of the norm of Vloc inside      5.333 Ry
VLOCAL1: 99.9% of the norm of Vloc inside     12.154 Ry
atom: Maximum radius for 4*pi*r*r*local-pseudopot. charge    3.39869
atom: Maximum radius for r*vlocal+2*Zval:    2.96205
GHOST: No ghost state for L =  0
GHOST: No ghost state for L =  1
GHOST: No ghost state for L =  2
GHOST: No ghost state for L =  3

KBgen: Kleinman-Bylander projectors: 
   l= 0   rc=  3.075247   el= -0.794092   Ekb=  5.879390   kbcos=  0.167461
   l= 1   rc=  3.153101   el= -0.300068   Ekb=  2.642817   kbcos=  0.058301
   l= 2   rc=  3.273594   el=  0.001958   Ekb= -1.185135   kbcos= -0.104411
   l= 3   rc=  3.232927   el=  0.003046   Ekb= -0.497174   kbcos= -0.015889

KBgen: Total number of Kleinman-Bylander projectors:   16
atom: -------------------------------------------------------------------------

atom: SANKEY-TYPE ORBITALS:
atom: Selected multiple-zeta basis: split     

SPLIT: Orbitals with angular momentum L= 0

SPLIT: Basis orbitals for state 3s

SPLIT: PAO cut-off radius determined from an
SPLIT: energy shift=  0.002000 Ry

   izeta = 1
                 lambda =    1.000000
                     rc =    6.429618
                 energy =   -0.792283
                kinetic =    0.525293
    potential(screened) =   -1.317576
       potential(ionic) =   -3.744923

   izeta = 2
                 rmatch =    3.998416
              splitnorm =    0.280000
                 energy =   -0.583081
                kinetic =    1.069570
    potential(screened) =   -1.652651
       potential(ionic) =   -4.235185

SPLIT: Orbitals with angular momentum L= 1

SPLIT: Basis orbitals for state 3p

SPLIT: PAO cut-off radius determined from an
SPLIT: energy shift=  0.002000 Ry

   izeta = 1
                 lambda =    1.000000
                     rc =    8.464845
                 energy =   -0.298236
                kinetic =    0.785360
    potential(screened) =   -1.083596
       potential(ionic) =   -3.273779

   izeta = 2
                 rmatch =    4.587816
              splitnorm =    0.280000
                 energy =   -0.131871
                kinetic =    1.403687
    potential(screened) =   -1.535557
       potential(ionic) =   -4.015310

POLgen: Perturbative polarization orbital with L=  2

POLgen: Polarization orbital for state 3p

   izeta = 1
                     rc =    8.464845
                 energy =    0.321949
                kinetic =    1.055677
    potential(screened) =   -0.733728
       potential(ionic) =   -2.672950
atom: Total number of Sankey-type orbitals: 13

atm_pop: Valence configuration (for local Pseudopot. screening):
 3s( 2.00)                                                            
 3p( 2.00)                                                            
Vna: chval, zval:    4.00000   4.00000

Vna:  Cut-off radius for the neutral-atom potential:   8.464845

atom: _________________________________________________________________________

<basis_specs>
===============================================================================
O                    Z=   8    Mass=  16.000        Charge= 0.17977+309
Lmxo=1 Lmxkb= 3    BasisType=split      Semic=F
L=0  Nsemic=0  Cnfigmx=2
          i=1  nzeta=2  polorb=0  (2s)
            splnorm:   0.28000    
               vcte:    0.0000    
               rinn:    0.0000    
               qcoe:    0.0000    
               qyuk:    0.0000    
               qwid:   0.10000E-01
                rcs:    0.0000      0.0000    
            lambdas:    1.0000      1.0000    
L=1  Nsemic=0  Cnfigmx=2
          i=1  nzeta=2  polorb=1  (2p)
            splnorm:   0.28000    
               vcte:    0.0000    
               rinn:    0.0000    
               qcoe:    0.0000    
               qyuk:    0.0000    
               qwid:   0.10000E-01
                rcs:    0.0000      0.0000    
            lambdas:    1.0000      1.0000    
-------------------------------------------------------------------------------
L=0  Nkbl=1  erefs: 0.17977+309
L=1  Nkbl=1  erefs: 0.17977+309
L=2  Nkbl=1  erefs: 0.17977+309
L=3  Nkbl=1  erefs: 0.17977+309
===============================================================================
</basis_specs>

atom: Called for O                     (Z =   8)

read_vps: Pseudopotential generation method:
read_vps: ATM4.2.7  Troullier-Martins                       
Valence charge for ps generation:    6.00000

xc_check: Exchange-correlation functional:
xc_check: GGA Perdew, Burke & Ernzerhof 1996
V l=0 = -2*Zval/r beyond r=  1.1000
V l=1 = -2*Zval/r beyond r=  1.1000
V l=2 = -2*Zval/r beyond r=  2.2154
V l=3 = -2*Zval/r beyond r=  1.1000
All V_l potentials equal beyond r=  2.2154
This should be close to max(r_c) in ps generation
All pots = -2*Zval/r beyond r=  2.2154

VLOCAL1: 99.0% of the norm of Vloc inside      8.845 Ry
VLOCAL1: 99.9% of the norm of Vloc inside     20.157 Ry
atom: Maximum radius for 4*pi*r*r*local-pseudopot. charge    2.67231
atom: Maximum radius for r*vlocal+2*Zval:    2.32897
GHOST: No ghost state for L =  0
GHOST: No ghost state for L =  1
GHOST: No ghost state for L =  2
GHOST: No ghost state for L =  3

KBgen: Kleinman-Bylander projectors: 
   l= 0   rc=  2.243238   el= -1.759686   Ekb=**********   kbcos= -0.171774
   l= 1   rc=  2.328968   el= -0.663873   Ekb=-14.506792   kbcos= -0.519897
   l= 2   rc=  2.573941   el=  0.002031   Ekb= -1.137373   kbcos= -0.019581
   l= 3   rc=  2.606321   el=  0.003153   Ekb= -1.013546   kbcos= -0.003122

KBgen: Total number of Kleinman-Bylander projectors:   16
atom: -------------------------------------------------------------------------

atom: SANKEY-TYPE ORBITALS:
atom: Selected multiple-zeta basis: split     

SPLIT: Orbitals with angular momentum L= 0

SPLIT: Basis orbitals for state 2s

SPLIT: PAO cut-off radius determined from an
SPLIT: energy shift=  0.002000 Ry

   izeta = 1
                 lambda =    1.000000
                     rc =    4.243912
                 energy =   -1.758270
                kinetic =    3.286084
    potential(screened) =   -5.044353
       potential(ionic) =  -12.921184

   izeta = 2
                 rmatch =    2.187845
              splitnorm =    0.280000
                 energy =   -0.885018
                kinetic =    8.134434
    potential(screened) =   -9.019452
       potential(ionic) =  -17.710645

SPLIT: Orbitals with angular momentum L= 1

SPLIT: Basis orbitals for state 2p

SPLIT: PAO cut-off radius determined from an
SPLIT: energy shift=  0.002000 Ry

   izeta = 1
                 lambda =    1.000000
                     rc =    5.314825
                 energy =   -0.661986
                kinetic =    4.917472
    potential(screened) =   -5.579458
       potential(ionic) =  -13.236259

   izeta = 2
                 rmatch =    2.160663
              splitnorm =    0.280000
                 energy =   -0.068760
                kinetic =    9.183374
    potential(screened) =   -9.252135
       potential(ionic) =  -18.274251

POLgen: Perturbative polarization orbital with L=  2

POLgen: Polarization orbital for state 2p

   izeta = 1
                     rc =    5.314825
                 energy =    1.970580
                kinetic =    3.886128
    potential(screened) =   -1.915547
       potential(ionic) =   -7.749584
atom: Total number of Sankey-type orbitals: 13

atm_pop: Valence configuration (for local Pseudopot. screening):
 2s( 2.00)                                                            
 2p( 4.00)                                                            
Vna: chval, zval:    6.00000   6.00000

Vna:  Cut-off radius for the neutral-atom potential:   5.314825

atom: _________________________________________________________________________

prinput: Basis input ----------------------------------------------------------

PAO.BasisType split     

%block ChemicalSpeciesLabel
    1    1 H                       # Species index, atomic number, species label
    2    7 N                       # Species index, atomic number, species label
    3   14 Si                      # Species index, atomic number, species label
    4    8 O                       # Species index, atomic number, species label
%endblock ChemicalSpeciesLabel

%block PAO.Basis                 # Define Basis set
H                     1                    # Species label, number of l-shells
 n=1   0   2 P   1                   # n, l, Nzeta, Polarization, NzetaPol
   6.518      2.141   
   1.000      1.000   
N                     2                    # Species label, number of l-shells
 n=2   0   2                         # n, l, Nzeta 
   4.730      2.532   
   1.000      1.000   
 n=2   1   2 P   1                   # n, l, Nzeta, Polarization, NzetaPol
   5.924      2.532   
   1.000      1.000   
Si                    2                    # Species label, number of l-shells
 n=3   0   2                         # n, l, Nzeta 
   6.430      3.998   
   1.000      1.000   
 n=3   1   2 P   1                   # n, l, Nzeta, Polarization, NzetaPol
   8.465      4.588   
   1.000      1.000   
O                     2                    # Species label, number of l-shells
 n=2   0   2                         # n, l, Nzeta 
   4.244      2.188   
   1.000      1.000   
 n=2   1   2 P   1                   # n, l, Nzeta, Polarization, NzetaPol
   5.315      2.161   
   1.000      1.000   
%endblock PAO.Basis

prinput: ----------------------------------------------------------------------

Dumping basis to NetCDF file H.ion.nc
Dumping basis to NetCDF file N.ion.nc
Dumping basis to NetCDF file Si.ion.nc
Dumping basis to NetCDF file O.ion.nc
coor:   Atomic-coordinates input format  =     Cartesian coordinates
coor:                                          (in Angstroms)

siesta: Atomic coordinates (Bohr) and species
siesta:      1.91949   6.85073   0.00000  1        1
siesta:      0.58442   5.35778   0.00000  2        2
siesta:     -2.68535   6.19184   0.00000  3        3
siesta:     -2.97973   9.00752   0.00000  1        4
siesta:     -5.56401   3.24593   0.00000  3        5
siesta:     -8.36683   3.70481   0.00000  1        6
siesta:     -3.29938  -0.36964   0.00000  3        7
siesta:     -4.74696  -3.26606   0.00000  2        8
siesta:     -3.63155  -5.07493   0.00000  1        9
siesta:     -6.73423  -3.41810   0.00000  1       10
siesta:     -0.05623  -0.26538   0.00000  2       11
siesta:      1.97527   2.24860   0.00000  3       12
siesta:      5.01522   2.21305   0.00000  4       13
siesta:     10.61355 -14.07759   0.00000  1       14
siesta:      8.65886 -13.66658   0.00000  2       15
siesta:      6.22979 -16.04876   0.00000  3       16
siesta:      7.18318 -18.71532  -0.00000  1       17
siesta:      3.13570 -15.14356   0.00000  2       18
siesta:      3.17659 -11.72506  -0.00000  3       19
siesta:      1.03072  -8.10005   0.00000  3       20
siesta:     -1.95457  -7.45403   0.00000  4       21
siesta:      3.27352  -5.43711   0.00000  2       22
siesta:      2.28576  -3.64645  -0.00000  1       23
siesta:      6.63017  -5.24735   0.00000  3       24
siesta:      7.81751  -2.22872   0.00000  2       25
siesta:      6.69523  -0.49602   0.00000  1       26
siesta:      9.79567  -1.98858  -0.00000  1       27
siesta:      8.75489  -7.70105  -0.00000  2       28
siesta:      7.16982 -10.55666   0.00000  3       29

siesta: Automatic unit cell vectors (Ang):
siesta:   18.636962    0.000000    0.000000
siesta:    0.000000   23.725901    0.000000
siesta:    0.000000    0.000000    9.854683

siesta: System type = molecule  

initatomlists: Number of atoms, orbitals, and projectors:     29   297   394

siesta: ******************** Simulation parameters ****************************
siesta:
siesta: The following are some of the parameters of the simulation.
siesta: A complete list of the parameters used, including default values,
siesta: can be found in file out.fdf
siesta:
redata: Spin configuration                          = spin-orbit
redata: Number of spin components                   = 8
redata: Time-Reversal Symmetry                      = F
redata: Spin spiral                                 = F
############################################################
This spin-orbit implementation uses a local approximation.
From 4.2 and onwards the full non-local approximation is implemented
You are strongly advised to use >=4.2 versions!
############################################################
redata: Long output                                 =   F
redata: Number of Atomic Species                    =        4
redata: Charge density info will appear in .RHO file
redata: Write Mulliken Pop.                         = NO
redata: Matel table size (NRTAB)                    =     1024
redata: Mesh Cutoff                                 =   340.0000 Ry
redata: Net charge of the system                    =     0.0000 |e|
redata: Min. number of SCF Iter                     =        1
redata: Max. number of SCF Iter                     =      600
redata: SCF convergence failure will abort job
redata: SCF mix quantity                            = Hamiltonian
redata: Mix DM or H after convergence               =   F
redata: Recompute H after scf cycle                 =   F
redata: Mix DM in first SCF step                    =   T
redata: Write Pulay info on disk                    =   F
redata: New DM Occupancy tolerance                  = 0.000000000001
redata: No kicks to SCF
redata: DM Mixing Weight for Kicks                  =     0.5000
redata: Require Harris convergence for SCF          =   F
redata: Harris energy tolerance for SCF             =     0.000100 eV
redata: Require DM convergence for SCF              =   T
redata: DM tolerance for SCF                        =     0.000008
redata: Require EDM convergence for SCF             =   F
redata: EDM tolerance for SCF                       =     0.001000 eV
redata: Require H convergence for SCF               =   T
redata: Hamiltonian tolerance for SCF               =     0.000001 eV
redata: Require (free) Energy convergence for SCF   =   F
redata: (free) Energy tolerance for SCF             =     0.000100 eV
redata: Using Saved Data (generic)                  =   F
redata: Use continuation files for DM               =   T
redata: Neglect nonoverlap interactions             =   F
redata: Method of Calculation                       = Diagonalization
redata: Electronic Temperature                      =   299.9978 K
redata: Fix the spin of the system                  =   F
redata: Dynamics option                             = Single-point calculation
mix.SCF: Pulay mixing                            = Pulay
mix.SCF:    Variant                              = stable
mix.SCF:    History steps                        = 6
mix.SCF:    Linear mixing weight                 =     0.250000
mix.SCF:    Mixing weight                        =     0.250000
mix.SCF:    SVD condition                        = 0.1000E-07
mix.SCF:    Restart steps                        = 24
mix.SCF:    Restart save steps                   = 3
mix.SCF: Spin-component mixing                   all
redata: Save all siesta data in one NC              =   F
redata: ***********************************************************************

%block SCF.Mixers
  Pulay
%endblock SCF.Mixers

%block SCF.Mixer.Pulay
  # Mixing method
  method pulay
  variant stable

  # Mixing options
  weight 0.2500
  weight.linear 0.2500
  history 6
  restart 24
  restart.save 3
%endblock SCF.Mixer.Pulay

DM_history_depth set to one: no extrapolation allowed by default for geometry relaxation
Size of DM history Fstack: 1
Total number of electrons:    98.000000
Total ionic charge:    98.000000

* ProcessorY, Blocksize:    2  24


* Orbital distribution balance (max,min):    57    48


Time-reversal symmetry not used.

siesta: k-grid: Number of k-points =     1
siesta: k-grid: Cutoff (effective) =     4.927 Ang
siesta: k-grid: Supercell and displacements
siesta: k-grid:    1   0   0      0.000
siesta: k-grid:    0   1   0      0.000
siesta: k-grid:    0   0   1      0.000

diag: Algorithm                                     = ELPA-1stage
diag: Parallel over k                               =   F
diag: Use parallel 2D distribution                  =   T
diag: Parallel block-size                           = 24
diag: Parallel distribution                         =     2 x     3
diag: Used triangular part                          = Lower
diag: Absolute tolerance                            =  0.100E-15
diag: Orthogonalization factor                      =  0.100E-05
diag: Memory factor                                 =  1.0000


ts: **************************************************************
ts: Save H and S matrices                           =    F
ts: Save DM and EDM matrices                        =    F
ts: Only save the overlap matrix S                  =    F
ts: **************************************************************

************************ Begin: TS CHECKS AND WARNINGS ************************
************************ End: TS CHECKS AND WARNINGS **************************


                     ====================================
                        Single-point calculation
                     ====================================

outcoor: Atomic coordinates (Ang):                          
    1.01575008    3.62525061    0.00000000   1       1  H
    0.30926335    2.83521443    0.00000000   2       2  N
   -1.42102356    3.27657834    0.00000000   3       3  Si
   -1.57680324    4.76657060    0.00000000   1       4  H
   -2.94434518    1.71767082    0.00000000   3       5  Si
   -4.42753281    1.96050118    0.00000000   1       6  H
   -1.74595432   -0.19560534    0.00000000   3       7  Si
   -2.51197978   -1.72832208    0.00000000   2       8  N
   -1.92173323   -2.68553511    0.00000000   1       9  H
   -3.56360210   -1.80878231    0.00000000   1      10  H
   -0.02975426   -0.14043103    0.00000000   2      11  N
    1.04526836    1.18990781    0.00000000   3      12  Si
    2.65394168    1.17109755    0.00000000   4      13  O
    5.61644830   -7.44953905    0.00000000   1      14  H
    4.58206954   -7.23203760    0.00000000   2      15  N
    3.29666389   -8.49263600    0.00000000   3      16  Si
    3.80117524   -9.90371886    0.00000000   1      17  H
    1.65934232   -8.01362137    0.00000000   2      18  N
    1.68097912   -6.20463398    0.00000000   3      19  Si
    0.54543521   -4.28636135    0.00000000   3      20  Si
   -1.03431493   -3.94450034    0.00000000   4      21  O
    1.73226934   -2.87719605    0.00000000   2      22  N
    1.20957366   -1.92961761    0.00000000   1      23  H
    3.50853448   -2.77677601    0.00000000   3      24  Si
    4.13684451   -1.17938608    0.00000000   2      25  N
    3.54296161   -0.26248101    0.00000000   1      26  H
    5.18364407   -1.05231197    0.00000000   1      27  H
    4.63288658   -4.07521596    0.00000000   2      28  N
    3.79410501   -5.58634043    0.00000000   3      29  Si

outcell: Unit cell vectors (Ang):
       18.636962    0.000000    0.000000
        0.000000   23.725901    0.000000
        0.000000    0.000000    9.854683

outcell: Cell vector modules (Ang)   :   18.636962   23.725901    9.854683
outcell: Cell angles (23,13,12) (deg):     90.0000     90.0000     90.0000
outcell: Cell volume (Ang**3)        :   4357.5312
<dSpData1D:S at geom step 0
  <sparsity:sparsity for geom step 0
    nrows_g=297 nrows=57 sparsity=.1365 nnzs=12040, refcount: 8>
  <dData1D:(new from dSpData1D) n=12040, refcount: 1>
refcount: 1>
new_DM -- step:     1
Initializing Density Matrix...

Attempting to read DM from file... Failed...
DM filled with atomic data:
<dSpData2D:DM initialized from atoms
  <sparsity:sparsity for geom step 0
    nrows_g=297 nrows=57 sparsity=.1365 nnzs=12040, refcount: 9>
  <dData2D:DM n=12040 m=8, refcount: 1>
refcount: 1>
     spin moment: S , {S} =   56.00000   0.00000   0.00000  56.00000
No. of atoms with KB's overlaping orbs in proc 0. Max # of overlaps:      28     214

Initializing spin-orbit part of the Hamiltonian
  Adding spin-orbit effects for H 
  Adding spin-orbit effects for N 
  Adding spin-orbit effects for Si
  Adding spin-orbit effects for O 


New grid distribution:   1
           1       1:  108    1:   68    1:   20
           2       1:  108    1:   68   21:   40
           3       1:  108    1:   68   41:   60
           4       1:  108   69:  135    1:   20
           5       1:  108   69:  135   21:   40
           6       1:  108   69:  135   41:   60

InitMesh: MESH =   216 x   270 x   120 =     6998400
InitMesh: (bp) =   108 x   135 x    60 =      874800
InitMesh: Mesh cutoff (required, used) =   340.000   357.918 Ry
ExtMesh (bp) on 0 =   212 x   172 x   132 =     4813248
New grid distribution:   2
           1      16:  108   23:  103    1:   60
           2      16:  108  121:  135    1:   60
           3       1:   15  104:  135    1:   60
           4      16:  108  104:  120    1:   60
           5      16:  108    1:   22    1:   60
           6       1:   15    1:  103    1:   60
New grid distribution:   3
           1      22:  108   22:   88    1:   60
           2       1:   21    1:   88    1:   60
           3       1:   23   89:  135    1:   60
           4      24:  108  116:  135    1:   60
           5      24:  108   89:  115    1:   60
           6      22:  108    1:   21    1:   60
Setting up quadratic distribution...
ExtMesh (bp) on 0 =   197 x   185 x   172 =     6268540
PhiOnMesh: Number of (b)points on node 0 =               451980
PhiOnMesh: nlist on node 0 =              2182560

stepf: Fermi-Dirac step function

siesta: Program's energy decomposition (eV):
siesta: Ebs     =      -616.807778
siesta: Eions   =      3585.165840
siesta: Ena     =       381.465977
siesta: Ekin    =      3362.163514
siesta: Enl     =     -3292.022769
siesta: Eso     =        -0.003450
siesta: Edftu   =         0.000000
siesta: DEna    =       154.562556
siesta: DUscf   =        77.655236
siesta: DUext   =         0.000000
siesta: Exc     =     -1203.428424
siesta: eta*DQ  =         0.000000
siesta: Emadel  =         0.000000
siesta: Emeta   =         0.000000
siesta: Emolmec =         0.000000
siesta: Ekinion =         0.000000
siesta: Eharris =     -4029.540630
siesta: Etot    =     -4104.773200
siesta: FreeEng =     -4104.774227

        iscf     Eharris(eV)        E_KS(eV)     FreeEng(eV)     dDmax    Ef(eV) dHmax(eV)
   scf:    1    -4029.540630    -4104.773200    -4104.774227  0.956234 -4.906293 19.810788
     spin moment: S , {S} =    2.00572   0.00000  -0.00000   2.00572
timer: Routine,Calls,Time,% = IterSCF        1       5.729  22.11
   scf:    2    -4150.552630    -4138.769511    -4138.772160  0.467522 -4.191218 10.995503
     spin moment: S , {S} =    1.98429  -0.00000   0.00000   1.98429
   scf:    3    -4112.281872    -4136.039896    -4136.052807  0.431905 -4.278286 11.298846
     spin moment: S , {S} =    2.00011   0.00000   0.00000   2.00011
   scf:    4    -4151.494671    -4146.710743    -4146.710744  0.331338 -3.890814  5.995149
     spin moment: S , {S} =    0.00009  -0.00000  -0.00000   0.00009
   scf:    5    -4147.850424    -4147.375916    -4147.375916  0.037104 -3.692274  4.415302
     spin moment: S , {S} =    0.00006  -0.00000  -0.00000   0.00006
   scf:    6    -4148.168021    -4147.775533    -4147.775533  0.025416 -3.643053  2.170119
     spin moment: S , {S} =    0.00003  -0.00000  -0.00000   0.00003
   scf:    7    -4148.143105    -4147.959428    -4147.959428  0.021759 -3.744688  0.825539
     spin moment: S , {S} =    0.00001  -0.00000  -0.00000   0.00001
   scf:    8    -4148.072429    -4148.014622    -4148.014622  0.011957 -3.759395  0.449467
     spin moment: S , {S} =    0.00000  -0.00000  -0.00000   0.00000
   scf:    9    -4148.055414    -4148.034384    -4148.034384  0.007211 -3.786714  0.291242
     spin moment: S , {S} =    0.00000  -0.00000  -0.00000   0.00000
   scf:   10    -4148.079582    -4148.053818    -4148.053818  0.015903 -3.793721  0.135558
     spin moment: S , {S} =    0.00000  -0.00000   0.00000  -0.00000
   scf:   11    -4148.057502    -4148.055543    -4148.055543  0.005051 -3.786556  0.053067
     spin moment: S , {S} =    0.00000  -0.00000  -0.00000   0.00000
   scf:   12    -4148.056492    -4148.056008    -4148.056008  0.002165 -3.784569  0.033756
     spin moment: S , {S} =    0.00000  -0.00000  -0.00000   0.00000
   scf:   13    -4148.056677    -4148.056322    -4148.056322  0.002105 -3.780993  0.026332
     spin moment: S , {S} =    0.00000  -0.00000  -0.00000   0.00000
   scf:   14    -4148.056896    -4148.056579    -4148.056579  0.002539 -3.781387  0.017600
     spin moment: S , {S} =    0.00000  -0.00000  -0.00000   0.00000
   scf:   15    -4148.056954    -4148.056733    -4148.056733  0.002668 -3.780186  0.009141
     spin moment: S , {S} =    0.00000  -0.00000  -0.00000   0.00000
   scf:   16    -4148.056835    -4148.056772    -4148.056772  0.001581 -3.780364  0.004160
     spin moment: S , {S} =    0.00000  -0.00000  -0.00000   0.00000
   scf:   17    -4148.056787    -4148.056778    -4148.056778  0.000556 -3.780582  0.002248
     spin moment: S , {S} =    0.00000  -0.00000  -0.00000  -0.00000
   scf:   18    -4148.056783    -4148.056780    -4148.056780  0.000268 -3.780670  0.001157
     spin moment: S , {S} =    0.00000  -0.00000  -0.00000  -0.00000
   scf:   19    -4148.056781    -4148.056781    -4148.056781  0.000112 -3.780644  0.000713
     spin moment: S , {S} =    0.00000  -0.00000  -0.00000  -0.00000
   scf:   20    -4148.056781    -4148.056781    -4148.056781  0.000070 -3.780576  0.000400
     spin moment: S , {S} =    0.00000  -0.00000  -0.00000  -0.00000
   scf:   21    -4148.056781    -4148.056781    -4148.056781  0.000092 -3.780514  0.000176
     spin moment: S , {S} =    0.00000  -0.00000  -0.00000  -0.00000
   scf:   22    -4148.056781    -4148.056781    -4148.056781  0.000011 -3.780497  0.000071
     spin moment: S , {S} =    0.00000  -0.00000  -0.00000  -0.00000
   scf:   23    -4148.056781    -4148.056781    -4148.056781  0.000005 -3.780496  0.000038
     spin moment: S , {S} =    0.00000  -0.00000  -0.00000  -0.00000
   scf:   24    -4148.056781    -4148.056781    -4148.056781  0.000002 -3.780493  0.000020
     spin moment: S , {S} =    0.00000  -0.00000  -0.00000  -0.00000
mix: Pulay -- resetting history
   scf:   25    -4148.056781    -4148.056781    -4148.056781  0.000002 -3.780491  0.000009
     spin moment: S , {S} =    0.00000  -0.00000  -0.00000  -0.00000
   scf:   26    -4148.056781    -4148.056781    -4148.056781  0.000001 -3.780490  0.000006
     spin moment: S , {S} =    0.00000  -0.00000  -0.00000  -0.00000
   scf:   27    -4148.056781    -4148.056781    -4148.056781  0.000000 -3.780489  0.000004
     spin moment: S , {S} =    0.00000  -0.00000  -0.00000  -0.00000
   scf:   28    -4148.056781    -4148.056781    -4148.056781  0.000000 -3.780489  0.000002
     spin moment: S , {S} =    0.00000  -0.00000  -0.00000  -0.00000
   scf:   29    -4148.056781    -4148.056781    -4148.056781  0.000000 -3.780489  0.000001
     spin moment: S , {S} =    0.00000  -0.00000  -0.00000  -0.00000
   scf:   30    -4148.056781    -4148.056781    -4148.056781  0.000000 -3.780489  0.000000
     spin moment: S , {S} =    0.00000  -0.00000  -0.00000  -0.00000

SCF Convergence by DM+H criterion
max |DM_out - DM_in|         :     0.0000000732
max |H_out - H_in|      (eV) :     0.0000004615
SCF cycle converged after 30 iterations

Using DM_out to compute the final energy and forces
No. of atoms with KB's overlaping orbs in proc 0. Max # of overlaps:      28     214

siesta: E_KS(eV) =            -4148.0568

siesta: E_KS - E_eggbox =     -4148.0568
     spin moment: S , {S} =    0.00000  -0.00000  -0.00000  -0.00000

siesta: Atomic forces (eV/Ang):
     1    0.068188   -0.057551   -0.000000
     2    0.018764    0.022890   -0.000000
     3    0.021223   -0.001849   -0.000000
     4    0.036432    0.071104    0.000000
     5   -0.007696   -0.007056    0.000000
     6    0.073780    0.000617    0.000000
     7    0.062750    0.037534    0.000000
     8    0.066574   -0.168746    0.000000
     9   -0.001316    0.044144   -0.000000
    10    0.065514   -0.036747   -0.000000
    11    0.015226   -0.053896    0.000000
    12    0.044796   -0.012064    0.000000
    13    3.078717   -2.636460   -0.000000
    14   -0.033783   -0.058044    0.000000
    15    0.003135   -0.000169    0.000000
    16   -0.000877    0.001313    0.000000
    17   -0.067632   -0.044202    0.000000
    18    0.001568   -0.004451   -0.000000
    19    0.010944   -0.002599   -0.000000
    20   -0.064999    0.005356    0.000000
    21    0.231607   -1.746299    0.000000
    22    0.001187    0.032093   -0.000000
    23   -0.061015   -0.270791   -0.000000
    24   -0.020936   -0.032585    0.000000
    25   -0.060498    0.130378    0.000000
    26   -0.092697   -0.050758   -0.000000
    27   -0.219903   -0.081199    0.000000
    28   -0.002853    0.029093    0.000000
    29   -0.014624   -0.017003   -0.000000
----------------------------------------
   Tot    3.151577   -4.907947    0.000000
----------------------------------------
   Max    3.078717
   Res    0.476917    sqrt( Sum f_i^2 / 3N )
----------------------------------------
   Max    3.078717    constrained

Stress tensor Voigt[x,y,z,yz,xz,xy] (kbar):        0.64       -0.01       -0.11        0.00       -0.00       -0.13
(Free)E + p*V (eV/cell)    -4148.5289
Target enthalpy (eV/cell)    -4148.0568

siesta: Eigenvalues (eV):
ik =     1
  -22.7449  -22.7449  -22.4170  -22.4170  -21.4219  -21.4219  -21.2467  -21.2467  -20.9888  -20.9888
  -20.7230  -20.7230  -20.2975  -20.2975  -19.6265  -19.6265  -19.5247  -19.5247  -19.3763  -19.3763
  -14.7845  -14.7845  -13.8292  -13.8292  -13.2436  -13.2436  -13.0891  -13.0891  -12.9657  -12.9657
  -12.6495  -12.6495  -12.6145  -12.6145  -12.0944  -12.0944  -11.8323  -11.8323  -11.6974  -11.6974
  -11.0547  -11.0547  -10.8310  -10.8310  -10.6387  -10.6387  -10.4086  -10.4086  -10.1836  -10.1836
   -9.6928   -9.6928   -9.1236   -9.1236   -8.9832   -8.9832   -8.8456   -8.8456   -8.6581   -8.6581
   -8.4958   -8.4958   -8.4199   -8.4199   -8.4003   -8.4003   -7.9909   -7.9909   -7.8834   -7.8834
   -7.5952   -7.5952   -7.3827   -7.3827   -7.2648   -7.2648   -7.1183   -7.1183   -6.9244   -6.9244
   -6.6944   -6.6944   -6.6263   -6.6263   -6.4365   -6.4365   -6.4090   -6.4090   -6.3105   -6.3105
   -6.1258   -6.1258   -5.9679   -5.9679   -5.5636   -5.5636   -4.3347   -4.3347   -3.2281   -3.2281
   -2.3760   -2.3760   -2.3435   -2.3435   -2.2215   -2.2215   -1.8961   -1.8961   -1.8754   -1.8754
   -1.8566   -1.8566   -1.6798   -1.6798   -1.6247   -1.6247   -1.2245   -1.2245   -1.2066   -1.2066
   -0.9896   -0.9896   -0.5850   -0.5850   -0.4608   -0.4608   -0.3531   -0.3531    0.4040    0.4040
    0.4307    0.4307    0.5453    0.5453    0.6483    0.6483    0.9892    0.9892    1.1280    1.1280
    1.3972    1.3972    1.4076    1.4076    1.4393    1.4393    1.5415    1.5415    1.9720    1.9720
    2.1254    2.1254    2.6166    2.6166    2.6918    2.6918    2.7557    2.7557    2.8599    2.8599
    2.9196    2.9196    3.0490    3.0490    3.2152    3.2152    3.4038    3.4038    3.5116    3.5116
    3.7727    3.7727    4.0036    4.0036    4.0990    4.0990    4.1427    4.1427    4.3835    4.3835
    4.5578    4.5578    4.5973    4.5973    4.7318    4.7318    5.0618    5.0618    5.1922    5.1922
    5.2892    5.2892    5.3039    5.3039    5.6767    5.6767    5.7647    5.7647    5.8910    5.8910
    5.9578    5.9578    6.3330    6.3330    6.3925    6.3925    6.5448    6.5448    6.5993    6.5993
    6.7166    6.7166    6.7916    6.7916    6.9683    6.9683    7.1172    7.1172    7.1580    7.1580
    7.2643    7.2643    7.6773    7.6773    7.7318    7.7318    8.0100    8.0100    8.0543    8.0543
    8.1112    8.1112    8.3532    8.3532    8.5118    8.5118    8.5877    8.5877    8.6862    8.6862
    8.7698    8.7698    8.8383    8.8383    9.0840    9.0840    9.1014    9.1014    9.3591    9.3591
    9.5168    9.5168    9.8864    9.8864    9.9596    9.9596   10.0269   10.0269   10.1664   10.1664
   10.3018   10.3018   10.6130   10.6130   10.7917   10.7917   11.2035   11.2035   11.2437   11.2437
   11.3308   11.3308   11.6515   11.6515   12.3384   12.3384   12.3592   12.3592   12.3711   12.3711
   12.4545   12.4545   12.5370   12.5370   12.6923   12.6923   13.0269   13.0269   13.2792   13.2792
   13.5770   13.5770   13.6392   13.6392   13.8001   13.8001   13.9797   13.9797   14.0957   14.0957
   14.2486   14.2486   14.4471   14.4471   14.9143   14.9143   14.9711   14.9711   14.9747   14.9747
   15.4389   15.4389   16.2109   16.2109   16.6027   16.6027   16.7077   16.7077   16.7894   16.7894
   17.2054   17.2054   17.5796   17.5796   18.0552   18.0552   18.5665   18.5665   18.9721   18.9721
   19.2477   19.2477   20.0380   20.0380   20.2742   20.2742   20.4085   20.4085   20.6653   20.6653
   21.2940   21.2940   22.0360   22.0360   22.3047   22.3047   22.6401   22.6401   23.5202   23.5202
   23.6125   23.6125   24.0199   24.0199   24.0846   24.0846   24.6747   24.6747   25.2520   25.2520
   25.7774   25.7774   26.1231   26.1231   26.6292   26.6292   27.6308   27.6308   28.8162   28.8162
   29.4870   29.4870   29.7431   29.7431   30.0650   30.0650   30.3191   30.3191   30.6421   30.6421
   30.8879   30.8879   30.9525   30.9525   31.2910   31.2910   31.6162   31.6162   31.6972   31.6972
   32.5918   32.5918   33.1297   33.1297   33.7088   33.7088   33.8941   33.8941   33.9718   33.9718
   35.1548   35.1548   35.3091   35.3091   35.6579   35.6579   35.7574   35.7574   36.1828   36.1828
   36.8744   36.8744   37.0269   37.0269   37.0476   37.0476   37.3173   37.3173   38.4976   38.4976
   38.7784   38.7784   39.0147   39.0147   39.5978   39.5978   39.7834   39.7834   40.2263   40.2263
   40.5398   40.5398   40.6093   40.6093   41.4071   41.4071   41.4366   41.4366   41.5088   41.5088
   42.0983   42.0983   42.5212   42.5212   42.7655   42.7655   43.3694   43.3694   43.9582   43.9582
   43.9696   43.9696   44.0958   44.0958   44.4014   44.4014   44.4820   44.4820   44.9831   44.9831
   45.1233   45.1233   45.3913   45.3913   45.6319   45.6319   46.1826   46.1826   46.5289   46.5289
   46.8279   46.8279   47.8046   47.8046   47.8900   47.8900   48.5794   48.5794   49.7603   49.7603
   49.8830   49.8830   50.3166   50.3166   50.3794   50.3794   50.7134   50.7134   51.0518   51.0518
   51.3540   51.3540   51.4799   51.4799   52.3385   52.3385   52.7878   52.7878   54.0886   54.0886
   54.2046   54.2046   54.2542   54.2542   55.2243   55.2243   55.7354   55.7354   56.0881   56.0881
   56.1819   56.1819   56.6598   56.6598   58.2175   58.2175   58.3076   58.3076   58.7469   58.7469
   59.9452   59.9452   60.2796   60.2796   60.6744   60.6744   61.3376   61.3376   61.6515   61.6515
   62.4658   62.4658   62.6806   62.6806   62.9376   62.9376   63.2217   63.2217   66.0050   66.0050
   66.8379   66.8379   67.6944   67.6944   68.4608   68.4608   69.2492   69.2492   69.5065   69.5065
   70.5639   70.5639   71.2810   71.2810   71.5057   71.5057   75.2169   75.2169   86.7163   86.7163
   89.4343   89.4343   89.9133   89.9133   94.1454   94.1454   94.3575   94.3575   96.4696   96.4696
  100.0723  100.0723  100.4958  100.4958  102.1325  102.1325  104.1242  104.1242  105.3418  105.3418
  115.0734  115.0734  117.6837  117.6837  125.0333  125.0333  128.2195  128.2195  138.1260  138.1260
  144.8967  144.8967  146.6215  146.6215
siesta: Fermi energy =      -3.780489 eV

siesta: Program's energy decomposition (eV):
siesta: Ebs     =     -1135.062936
siesta: Eions   =      3585.165840
siesta: Ena     =       381.465977
siesta: Ekin    =      2909.480749
siesta: Enl     =     -2793.378159
siesta: Eso     =        -0.004315
siesta: Edftu   =         0.000000
siesta: DEna    =        47.962864
siesta: DUscf   =        13.678734
siesta: DUext   =         0.000000
siesta: Exc     =     -1122.096791
siesta: eta*DQ  =         0.000000
siesta: Emadel  =         0.000000
siesta: Emeta   =         0.000000
siesta: Emolmec =         0.000000
siesta: Ekinion =         0.000000
siesta: Eharris =     -4148.056781
siesta: Etot    =     -4148.056781
siesta: FreeEng =     -4148.056781

siesta: Final energy (eV):
siesta:  Band Struct. =   -1135.062936
siesta:       Kinetic =    2909.480749
siesta:       Hartree =    8988.704795
siesta:       Edftu   =       0.000000
siesta:       Eso     =      -0.004315
siesta:    Ext. field =       0.000000
siesta:   Exch.-corr. =   -1122.096791
siesta:  Ion-electron =  -20565.156966
siesta:       Ion-ion =    5641.015747
siesta:       Ekinion =       0.000000
siesta:         Total =   -4148.056781
siesta:         Fermi =      -3.780489

siesta: Atomic forces (eV/Ang):
siesta:      1    0.068188   -0.057551   -0.000000
siesta:      2    0.018764    0.022890   -0.000000
siesta:      3    0.021223   -0.001849   -0.000000
siesta:      4    0.036432    0.071104    0.000000
siesta:      5   -0.007696   -0.007056    0.000000
siesta:      6    0.073780    0.000617    0.000000
siesta:      7    0.062750    0.037534    0.000000
siesta:      8    0.066574   -0.168746    0.000000
siesta:      9   -0.001316    0.044144   -0.000000
siesta:     10    0.065514   -0.036747   -0.000000
siesta:     11    0.015226   -0.053896    0.000000
siesta:     12    0.044796   -0.012064    0.000000
siesta:     13    3.078717   -2.636460   -0.000000
siesta:     14   -0.033783   -0.058044    0.000000
siesta:     15    0.003135   -0.000169    0.000000
siesta:     16   -0.000877    0.001313    0.000000
siesta:     17   -0.067632   -0.044202    0.000000
siesta:     18    0.001568   -0.004451   -0.000000
siesta:     19    0.010944   -0.002599   -0.000000
siesta:     20   -0.064999    0.005356    0.000000
siesta:     21    0.231607   -1.746299    0.000000
siesta:     22    0.001187    0.032093   -0.000000
siesta:     23   -0.061015   -0.270791   -0.000000
siesta:     24   -0.020936   -0.032585    0.000000
siesta:     25   -0.060498    0.130378    0.000000
siesta:     26   -0.092697   -0.050758   -0.000000
siesta:     27   -0.219903   -0.081199    0.000000
siesta:     28   -0.002853    0.029093    0.000000
siesta:     29   -0.014624   -0.017003   -0.000000
siesta: ----------------------------------------
siesta:    Tot    3.151577   -4.907947    0.000000

siesta: Stress tensor (static) (eV/Ang**3):
siesta:     0.000399   -0.000080   -0.000000
siesta:    -0.000080   -0.000004    0.000000
siesta:    -0.000000    0.000000   -0.000070

siesta: Cell volume =       4357.531233 Ang**3

siesta: Pressure (static):
siesta:                Solid            Molecule  Units
siesta:          -0.00000118          0.00000184  Ry/Bohr**3
siesta:          -0.00010835          0.00016904  eV/Ang**3
siesta:          -0.17359424          0.27083072  kBar
(Free)E+ p_basis*V_orbitals  =       -4128.206364
(Free)Eharris+ p_basis*V_orbitals  =       -4128.206364
     spin moment: S , {S} =    0.00000  -0.00000  -0.00000  -0.00000

siesta: Electric dipole (a.u.)  =   -0.066271    1.551862   -0.000000
siesta: Electric dipole (Debye) =   -0.168444    3.944441   -0.000000

cite: Please see "GC.bib" for an exhaustive BiBTeX file.
cite: Please clearly indicate Siesta version in published work: v4.1.5-1-g384057250
cite: This calculation has made use of the following articles
cite: which are encouraged to be cited in a published work.
        Primary SIESTA paper
          DOI: www.doi.org/10.1088/0953-8984/14/11/302
        Spin-orbit coupling (on-site approximation)
          DOI: www.doi.org/10.1088/0953-8984/19/19/489001


WARNING: alloc-realloc-dealloc name mismatch
         Name: atomlist isa
         Size:              -116. Bytes
         Node:     0
         Subsequent mismatches will not be reported
>> End of run:  16-OCT-2023  18:18:50
Job completed
