Siesta Version  : v4.1.5-1-g384057250
Architecture    : gcc
Compiler version: GNU Fortran (Ubuntu 11.3.0-1ubuntu1~22.04) 11.3.0
Compiler flags  : mpifort -O2 -fPIC -ftree-vectorize -fallow-argument-mismatch
PP flags        : -DFC_HAVE_ABORT -DMPI -DSIESTA__FLOOK -DSIESTA__METIS -DSIESTA__MUMPS -DCDF -DNCDF -DNCDF_4 -DNCDF_PARALLEL -DSIESTA__MRRR -DSIESTA__ELPA
Libraries       : libncdf.a libfdict.a  -lflookall -ldl -lnetcdff -lnetcdf -lhdf5_hl -lhdf5 -lhdf5_fortran -lz -lscalapack-openmpi -lopenblas -lmetis -lzmumps -lcmumps -ldmumps -lmumps_common -lpord -lsmumps -lesmumps -lscotch -lscotcherr -fopenmp -lelpa
PARALLEL version
NetCDF support
NetCDF-4 support
NetCDF-4 MPI-IO support
METIS ordering support
Lua support

* Running on 4 nodes in parallel
>> Start of run:  28-JUN-2023  15:34:16

                           ***********************       
                           *  WELCOME TO SIESTA  *       
                           ***********************       

reinit: Reading from standard input
reinit: Dumped input in INPUT_TMP.97263
************************** Dump of input data file ****************************
SystemLabel      GC
NumberOfAtoms    29
NumberOfSpecies  4
%block ChemicalSpeciesLabel
    1    8  O
    2    7  N
    3   14  Si
    4    1  H
%endblock ChemicalSpeciesLabel
# Single point calculation
MD.TypeOfRun                CG
MD.Steps                    0
SCF.MustConverge            F # In case it does not. There can be 2 very close atoms
AtomicCoordinatesFormat NotScaledCartesianAng
%block AtomicCoordinatesAndAtomicSpecies
1.043624880    3.939228610    0.000000000       1
-3.040641290   1.071078170    0.000000000       2
2.054601450    1.213582070    0.000000000       2
0.999014100    -1.732643800   0.000000000       2
-2.132351640   -1.812968220   0.000000000       2
3.860190550    -1.112298180   0.000000000       2
-1.236183220   1.152964460    0.000000000       3
-0.532924260   -0.939006270   0.000000000       3
0.635660470    2.374516770    0.000000000       3
2.245170240    -0.549967100   0.000000000       3
-3.449816660   -0.583665030   0.000000000       3
2.963714090    1.790992630    0.000000000       4
-4.845591350   -1.123549660   0.000000000       4
4.007020910    -2.152308560   0.000000000       4
4.772194380    -0.502318160   0.000000000       4
-2.265399090   -2.864605110   0.000000000       4
6.362780883    5.872881590    0.000000000       3
8.267664853    7.079520530    0.000000000       3
7.771910713    3.106546620    0.000000000       3
9.849381003    5.575763780    0.000000000       3
6.422403553    4.155454020    0.000000000       2
4.823645823    6.626558900    0.000000000       2
9.424205973    3.836383840    0.000000000       2
8.459009653    8.571674280    0.000000000       4
11.333748983   5.794494600    0.000000000       4
4.712300543    7.675754010    0.000000000       4
3.891088113    6.001644720    0.000000000       4
7.761683883    1.498435500    0.000000000       1
10.199631853   3.109692280    0.000000000       4
%endblock AtomicCoordinatesAndAtomicSpecies
%include ../../../Defaults.fdf
************************** End of input data file *****************************

reinit: -----------------------------------------------------------------------
reinit: System Name: 
reinit: -----------------------------------------------------------------------
reinit: System Label: GC
reinit: -----------------------------------------------------------------------

initatom: Reading input for the pseudopotentials and atomic orbitals ----------
Species number:   1 Atomic number:    8 Label: O
Species number:   2 Atomic number:    7 Label: N
Species number:   3 Atomic number:   14 Label: Si
Species number:   4 Atomic number:    1 Label: H

Ground state valence configuration:   2s02  2p04
Reading pseudopotential information in formatted form from O.psf

Pseudopotential generated from a relativistic atomic calculation

Valence configuration for pseudopotential generation:
2s( 2.00) rc: 0.45
2p( 4.00) rc: 0.92
3d( 0.00) rc: 2.24
4f( 0.00) rc: 0.25
Ground state valence configuration:   2s02  2p03
Reading pseudopotential information in formatted form from N.psf

Pseudopotential generated from a relativistic atomic calculation

Valence configuration for pseudopotential generation:
2s( 2.00) rc: 0.94
2p( 3.00) rc: 0.59
3d( 0.00) rc: 3.46
4f( 0.00) rc: 2.47
Ground state valence configuration:   3s02  3p02
Reading pseudopotential information in formatted form from Si.psf

Pseudopotential generated from a relativistic atomic calculation

Valence configuration for pseudopotential generation:
3s( 2.00) rc: 1.67
3p( 2.00) rc: 2.04
3d( 0.00) rc: 2.89
4f( 0.00) rc: 2.49
Ground state valence configuration:   1s01
Reading pseudopotential information in formatted form from H.psf

Pseudopotential generated from a relativistic atomic calculation

Valence configuration for pseudopotential generation:
1s( 1.00) rc: 0.01
2p( 0.00) rc: 0.60
3d( 0.00) rc: 1.99
4f( 0.00) rc: 2.49
For O, standard SIESTA heuristics set lmxkb to 3
 (one more than the basis l, including polarization orbitals).
Use PS.lmax or PS.KBprojectors blocks to override.
For N, standard SIESTA heuristics set lmxkb to 3
 (one more than the basis l, including polarization orbitals).
Use PS.lmax or PS.KBprojectors blocks to override.
For Si, standard SIESTA heuristics set lmxkb to 3
 (one more than the basis l, including polarization orbitals).
Use PS.lmax or PS.KBprojectors blocks to override.
For H, standard SIESTA heuristics set lmxkb to 2
 (one more than the basis l, including polarization orbitals).
Use PS.lmax or PS.KBprojectors blocks to override.

<basis_specs>
===============================================================================
O                    Z=   8    Mass=  16.000        Charge= 0.17977+309
Lmxo=1 Lmxkb= 3    BasisType=split      Semic=F
L=0  Nsemic=0  Cnfigmx=2
          i=1  nzeta=2  polorb=0  (2s)
            splnorm:   0.28000    
               vcte:    0.0000    
               rinn:    0.0000    
               qcoe:    0.0000    
               qyuk:    0.0000    
               qwid:   0.10000E-01
                rcs:    0.0000      0.0000    
            lambdas:    1.0000      1.0000    
L=1  Nsemic=0  Cnfigmx=2
          i=1  nzeta=2  polorb=1  (2p)
            splnorm:   0.28000    
               vcte:    0.0000    
               rinn:    0.0000    
               qcoe:    0.0000    
               qyuk:    0.0000    
               qwid:   0.10000E-01
                rcs:    0.0000      0.0000    
            lambdas:    1.0000      1.0000    
-------------------------------------------------------------------------------
L=0  Nkbl=1  erefs: 0.17977+309
L=1  Nkbl=1  erefs: 0.17977+309
L=2  Nkbl=1  erefs: 0.17977+309
L=3  Nkbl=1  erefs: 0.17977+309
===============================================================================
</basis_specs>

atom: Called for O                     (Z =   8)

read_vps: Pseudopotential generation method:
read_vps: ATM4.2.7  Troullier-Martins                       
Valence charge for ps generation:    6.00000

xc_check: Exchange-correlation functional:
xc_check: GGA Perdew, Burke & Ernzerhof 1996
V l=0 = -2*Zval/r beyond r=  1.1000
V l=1 = -2*Zval/r beyond r=  1.1000
V l=2 = -2*Zval/r beyond r=  2.2154
V l=3 = -2*Zval/r beyond r=  1.1000
All V_l potentials equal beyond r=  2.2154
This should be close to max(r_c) in ps generation
All pots = -2*Zval/r beyond r=  2.2154

VLOCAL1: 99.0% of the norm of Vloc inside      8.845 Ry
VLOCAL1: 99.9% of the norm of Vloc inside     20.157 Ry
atom: Maximum radius for 4*pi*r*r*local-pseudopot. charge    2.67231
atom: Maximum radius for r*vlocal+2*Zval:    2.32897
GHOST: No ghost state for L =  0
GHOST: No ghost state for L =  1
GHOST: No ghost state for L =  2
GHOST: No ghost state for L =  3

KBgen: Kleinman-Bylander projectors: 
   l= 0   rc=  2.243238   el= -1.759686   Ekb=**********   kbcos= -0.171774
   l= 1   rc=  2.328968   el= -0.663873   Ekb=-14.506792   kbcos= -0.519897
   l= 2   rc=  2.573941   el=  0.002031   Ekb= -1.137373   kbcos= -0.019581
   l= 3   rc=  2.606321   el=  0.003153   Ekb= -1.013546   kbcos= -0.003122

KBgen: Total number of Kleinman-Bylander projectors:   16
atom: -------------------------------------------------------------------------

atom: SANKEY-TYPE ORBITALS:
atom: Selected multiple-zeta basis: split     

SPLIT: Orbitals with angular momentum L= 0

SPLIT: Basis orbitals for state 2s

SPLIT: PAO cut-off radius determined from an
SPLIT: energy shift=  0.002000 Ry

   izeta = 1
                 lambda =    1.000000
                     rc =    4.243912
                 energy =   -1.758270
                kinetic =    3.286084
    potential(screened) =   -5.044353
       potential(ionic) =  -12.921184

   izeta = 2
                 rmatch =    2.187845
              splitnorm =    0.280000
                 energy =   -0.885018
                kinetic =    8.134434
    potential(screened) =   -9.019452
       potential(ionic) =  -17.710645

SPLIT: Orbitals with angular momentum L= 1

SPLIT: Basis orbitals for state 2p

SPLIT: PAO cut-off radius determined from an
SPLIT: energy shift=  0.002000 Ry

   izeta = 1
                 lambda =    1.000000
                     rc =    5.314825
                 energy =   -0.661986
                kinetic =    4.917472
    potential(screened) =   -5.579458
       potential(ionic) =  -13.236259

   izeta = 2
                 rmatch =    2.160663
              splitnorm =    0.280000
                 energy =   -0.068760
                kinetic =    9.183374
    potential(screened) =   -9.252135
       potential(ionic) =  -18.274251

POLgen: Perturbative polarization orbital with L=  2

POLgen: Polarization orbital for state 2p

   izeta = 1
                     rc =    5.314825
                 energy =    1.970580
                kinetic =    3.886128
    potential(screened) =   -1.915547
       potential(ionic) =   -7.749584
atom: Total number of Sankey-type orbitals: 13

atm_pop: Valence configuration (for local Pseudopot. screening):
 2s( 2.00)                                                            
 2p( 4.00)                                                            
Vna: chval, zval:    6.00000   6.00000

Vna:  Cut-off radius for the neutral-atom potential:   5.314825

atom: _________________________________________________________________________

<basis_specs>
===============================================================================
N                    Z=   7    Mass=  14.010        Charge= 0.17977+309
Lmxo=1 Lmxkb= 3    BasisType=split      Semic=F
L=0  Nsemic=0  Cnfigmx=2
          i=1  nzeta=2  polorb=0  (2s)
            splnorm:   0.28000    
               vcte:    0.0000    
               rinn:    0.0000    
               qcoe:    0.0000    
               qyuk:    0.0000    
               qwid:   0.10000E-01
                rcs:    0.0000      0.0000    
            lambdas:    1.0000      1.0000    
L=1  Nsemic=0  Cnfigmx=2
          i=1  nzeta=2  polorb=1  (2p)
            splnorm:   0.28000    
               vcte:    0.0000    
               rinn:    0.0000    
               qcoe:    0.0000    
               qyuk:    0.0000    
               qwid:   0.10000E-01
                rcs:    0.0000      0.0000    
            lambdas:    1.0000      1.0000    
-------------------------------------------------------------------------------
L=0  Nkbl=1  erefs: 0.17977+309
L=1  Nkbl=1  erefs: 0.17977+309
L=2  Nkbl=1  erefs: 0.17977+309
L=3  Nkbl=1  erefs: 0.17977+309
===============================================================================
</basis_specs>

atom: Called for N                     (Z =   7)

read_vps: Pseudopotential generation method:
read_vps: ATM4.2.7  Troullier-Martins                       
Valence charge for ps generation:    5.00000

xc_check: Exchange-correlation functional:
xc_check: GGA Perdew, Burke & Ernzerhof 1996
V l=0 = -2*Zval/r beyond r=  1.2889
V l=1 = -2*Zval/r beyond r=  1.2889
V l=2 = -2*Zval/r beyond r=  3.4178
V l=3 = -2*Zval/r beyond r=  2.4084
All V_l potentials equal beyond r=  3.3753
This should be close to max(r_c) in ps generation
All pots = -2*Zval/r beyond r=  3.4178

VLOCAL1: 99.0% of the norm of Vloc inside      3.810 Ry
VLOCAL1: 99.9% of the norm of Vloc inside      8.683 Ry
atom: Maximum radius for 4*pi*r*r*local-pseudopot. charge    4.02088
atom: Maximum radius for r*vlocal+2*Zval:    3.54838
GHOST: No ghost state for L =  0
GHOST: No ghost state for L =  1
GHOST: No ghost state for L =  2
GHOST: No ghost state for L =  3

KBgen: Kleinman-Bylander projectors: 
   l= 0   rc=  3.417763   el= -1.365098   Ekb= -4.433130   kbcos= -0.707855
   l= 1   rc=  3.375302   el= -0.521201   Ekb=-13.264039   kbcos= -0.535594
   l= 2   rc=  3.872880   el=  0.001991   Ekb= -0.641094   kbcos= -0.062456
   l= 3   rc=  3.970931   el=  0.003093   Ekb= -0.474517   kbcos= -0.018236

KBgen: Total number of Kleinman-Bylander projectors:   16
atom: -------------------------------------------------------------------------

atom: SANKEY-TYPE ORBITALS:
atom: Selected multiple-zeta basis: split     

SPLIT: Orbitals with angular momentum L= 0

SPLIT: Basis orbitals for state 2s

SPLIT: PAO cut-off radius determined from an
SPLIT: energy shift=  0.002000 Ry

   izeta = 1
                 lambda =    1.000000
                     rc =    4.730425
                 energy =   -1.363399
                kinetic =    1.245246
    potential(screened) =   -2.608645
       potential(ionic) =   -8.121105

   izeta = 2
                 rmatch =    2.531849
              splitnorm =    0.280000
                 energy =   -0.959908
                kinetic =    2.409435
    potential(screened) =   -3.369343
       potential(ionic) =   -9.427975

SPLIT: Orbitals with angular momentum L= 1

SPLIT: Basis orbitals for state 2p

SPLIT: PAO cut-off radius determined from an
SPLIT: energy shift=  0.002000 Ry

   izeta = 1
                 lambda =    1.000000
                     rc =    5.924108
                 energy =   -0.519262
                kinetic =    3.672940
    potential(screened) =   -4.192202
       potential(ionic) =   -9.518354

   izeta = 2
                 rmatch =    2.531849
              splitnorm =    0.280000
                 energy =   -0.104258
                kinetic =    6.807538
    potential(screened) =   -6.911796
       potential(ionic) =  -13.149920

POLgen: Perturbative polarization orbital with L=  2

POLgen: Polarization orbital for state 2p

   izeta = 1
                     rc =    5.924108
                 energy =    1.427508
                kinetic =    2.872379
    potential(screened) =   -1.444871
       potential(ionic) =   -5.563644
atom: Total number of Sankey-type orbitals: 13

atm_pop: Valence configuration (for local Pseudopot. screening):
 2s( 2.00)                                                            
 2p( 3.00)                                                            
Vna: chval, zval:    5.00000   5.00000

Vna:  Cut-off radius for the neutral-atom potential:   5.924108

atom: _________________________________________________________________________

<basis_specs>
===============================================================================
Si                   Z=  14    Mass=  28.090        Charge= 0.17977+309
Lmxo=1 Lmxkb= 3    BasisType=split      Semic=F
L=0  Nsemic=0  Cnfigmx=3
          i=1  nzeta=2  polorb=0  (3s)
            splnorm:   0.28000    
               vcte:    0.0000    
               rinn:    0.0000    
               qcoe:    0.0000    
               qyuk:    0.0000    
               qwid:   0.10000E-01
                rcs:    0.0000      0.0000    
            lambdas:    1.0000      1.0000    
L=1  Nsemic=0  Cnfigmx=3
          i=1  nzeta=2  polorb=1  (3p)
            splnorm:   0.28000    
               vcte:    0.0000    
               rinn:    0.0000    
               qcoe:    0.0000    
               qyuk:    0.0000    
               qwid:   0.10000E-01
                rcs:    0.0000      0.0000    
            lambdas:    1.0000      1.0000    
-------------------------------------------------------------------------------
L=0  Nkbl=1  erefs: 0.17977+309
L=1  Nkbl=1  erefs: 0.17977+309
L=2  Nkbl=1  erefs: 0.17977+309
L=3  Nkbl=1  erefs: 0.17977+309
===============================================================================
</basis_specs>

atom: Called for Si                    (Z =  14)

read_vps: Pseudopotential generation method:
read_vps: ATM4.2.7  Troullier-Martins                       
Valence charge for ps generation:    4.00000

xc_check: Exchange-correlation functional:
xc_check: GGA Perdew, Burke & Ernzerhof 1996
V l=0 = -2*Zval/r beyond r=  2.7826
V l=1 = -2*Zval/r beyond r=  2.7826
V l=2 = -2*Zval/r beyond r=  2.9253
V l=3 = -2*Zval/r beyond r=  2.7826
All V_l potentials equal beyond r=  2.8530
This should be close to max(r_c) in ps generation
All pots = -2*Zval/r beyond r=  2.9253

VLOCAL1: 99.0% of the norm of Vloc inside      5.333 Ry
VLOCAL1: 99.9% of the norm of Vloc inside     12.154 Ry
atom: Maximum radius for 4*pi*r*r*local-pseudopot. charge    3.39869
atom: Maximum radius for r*vlocal+2*Zval:    2.96205
GHOST: No ghost state for L =  0
GHOST: No ghost state for L =  1
GHOST: No ghost state for L =  2
GHOST: No ghost state for L =  3

KBgen: Kleinman-Bylander projectors: 
   l= 0   rc=  3.075247   el= -0.794092   Ekb=  5.879390   kbcos=  0.167461
   l= 1   rc=  3.153101   el= -0.300068   Ekb=  2.642817   kbcos=  0.058301
   l= 2   rc=  3.273594   el=  0.001958   Ekb= -1.185135   kbcos= -0.104411
   l= 3   rc=  3.232927   el=  0.003046   Ekb= -0.497174   kbcos= -0.015889

KBgen: Total number of Kleinman-Bylander projectors:   16
atom: -------------------------------------------------------------------------

atom: SANKEY-TYPE ORBITALS:
atom: Selected multiple-zeta basis: split     

SPLIT: Orbitals with angular momentum L= 0

SPLIT: Basis orbitals for state 3s

SPLIT: PAO cut-off radius determined from an
SPLIT: energy shift=  0.002000 Ry

   izeta = 1
                 lambda =    1.000000
                     rc =    6.429618
                 energy =   -0.792283
                kinetic =    0.525293
    potential(screened) =   -1.317576
       potential(ionic) =   -3.744923

   izeta = 2
                 rmatch =    3.998416
              splitnorm =    0.280000
                 energy =   -0.583081
                kinetic =    1.069570
    potential(screened) =   -1.652651
       potential(ionic) =   -4.235185

SPLIT: Orbitals with angular momentum L= 1

SPLIT: Basis orbitals for state 3p

SPLIT: PAO cut-off radius determined from an
SPLIT: energy shift=  0.002000 Ry

   izeta = 1
                 lambda =    1.000000
                     rc =    8.464845
                 energy =   -0.298236
                kinetic =    0.785360
    potential(screened) =   -1.083596
       potential(ionic) =   -3.273779

   izeta = 2
                 rmatch =    4.587816
              splitnorm =    0.280000
                 energy =   -0.131871
                kinetic =    1.403687
    potential(screened) =   -1.535557
       potential(ionic) =   -4.015310

POLgen: Perturbative polarization orbital with L=  2

POLgen: Polarization orbital for state 3p

   izeta = 1
                     rc =    8.464845
                 energy =    0.321949
                kinetic =    1.055677
    potential(screened) =   -0.733728
       potential(ionic) =   -2.672950
atom: Total number of Sankey-type orbitals: 13

atm_pop: Valence configuration (for local Pseudopot. screening):
 3s( 2.00)                                                            
 3p( 2.00)                                                            
Vna: chval, zval:    4.00000   4.00000

Vna:  Cut-off radius for the neutral-atom potential:   8.464845

atom: _________________________________________________________________________

<basis_specs>
===============================================================================
H                    Z=   1    Mass=  1.0100        Charge= 0.17977+309
Lmxo=0 Lmxkb= 2    BasisType=split      Semic=F
L=0  Nsemic=0  Cnfigmx=1
          i=1  nzeta=2  polorb=1  (1s)
            splnorm:   0.62000    
               vcte:    0.0000    
               rinn:    0.0000    
               qcoe:    0.0000    
               qyuk:    0.0000    
               qwid:   0.10000E-01
                rcs:    0.0000      0.0000    
            lambdas:    1.0000      1.0000    
-------------------------------------------------------------------------------
L=0  Nkbl=1  erefs: 0.17977+309
L=1  Nkbl=1  erefs: 0.17977+309
L=2  Nkbl=1  erefs: 0.17977+309
===============================================================================
</basis_specs>

atom: Called for H                     (Z =   1)

read_vps: Pseudopotential generation method:
read_vps: ATM4.2.7  Troullier-Martins                       
Valence charge for ps generation:    1.00000

xc_check: Exchange-correlation functional:
xc_check: GGA Perdew, Burke & Ernzerhof 1996
V l=0 = -2*Zval/r beyond r=  0.0098
V l=1 = -2*Zval/r beyond r=  0.5817
V l=2 = -2*Zval/r beyond r=  1.9372
All V_l potentials equal beyond r=  1.9372
This should be close to max(r_c) in ps generation
All pots = -2*Zval/r beyond r=  1.9372

VLOCAL1: 99.0% of the norm of Vloc inside     11.567 Ry
VLOCAL1: 99.9% of the norm of Vloc inside     26.362 Ry
atom: Maximum radius for 4*pi*r*r*local-pseudopot. charge    2.25106
atom: Maximum radius for r*vlocal+2*Zval:    1.91306
GHOST: No ghost state for L =  0
GHOST: No ghost state for L =  1
GHOST: No ghost state for L =  2

KBgen: Kleinman-Bylander projectors: 
   l= 0   rc=  2.036604   el= -0.477180   Ekb= -6.081590   kbcos= -0.277285
   l= 1   rc=  2.195416   el=  0.001076   Ekb= -0.926943   kbcos= -0.034643
   l= 2   rc=  2.251056   el=  0.002010   Ekb= -0.130941   kbcos= -0.009788

KBgen: Total number of Kleinman-Bylander projectors:    9
atom: -------------------------------------------------------------------------

atom: SANKEY-TYPE ORBITALS:
atom: Selected multiple-zeta basis: split     

SPLIT: Orbitals with angular momentum L= 0

SPLIT: Basis orbitals for state 1s

SPLIT: PAO cut-off radius determined from an
SPLIT: energy shift=  0.002000 Ry

   izeta = 1
                 lambda =    1.000000
                     rc =    6.518340
                 energy =   -0.475305
                kinetic =    0.912139
    potential(screened) =   -1.387444
       potential(ionic) =   -1.907295

   izeta = 2
                 rmatch =    2.141150
              splitnorm =    0.620000
                 energy =    0.566467
                kinetic =    3.772856
    potential(screened) =   -3.206389
       potential(ionic) =   -3.759093

POLgen: Perturbative polarization orbital with L=  1

POLgen: Polarization orbital for state 1s

   izeta = 1
                     rc =    6.518340
                 energy =    0.533861
                kinetic =    1.121086
    potential(screened) =   -0.587225
       potential(ionic) =   -1.053027
atom: Total number of Sankey-type orbitals:  5

atm_pop: Valence configuration (for local Pseudopot. screening):
 1s( 1.00)                                                            
Vna: chval, zval:    1.00000   1.00000

Vna:  Cut-off radius for the neutral-atom potential:   6.518340

atom: _________________________________________________________________________

prinput: Basis input ----------------------------------------------------------

PAO.BasisType split     

%block ChemicalSpeciesLabel
    1    8 O                       # Species index, atomic number, species label
    2    7 N                       # Species index, atomic number, species label
    3   14 Si                      # Species index, atomic number, species label
    4    1 H                       # Species index, atomic number, species label
%endblock ChemicalSpeciesLabel

%block PAO.Basis                 # Define Basis set
O                     2                    # Species label, number of l-shells
 n=2   0   2                         # n, l, Nzeta 
   4.244      2.188   
   1.000      1.000   
 n=2   1   2 P   1                   # n, l, Nzeta, Polarization, NzetaPol
   5.315      2.161   
   1.000      1.000   
N                     2                    # Species label, number of l-shells
 n=2   0   2                         # n, l, Nzeta 
   4.730      2.532   
   1.000      1.000   
 n=2   1   2 P   1                   # n, l, Nzeta, Polarization, NzetaPol
   5.924      2.532   
   1.000      1.000   
Si                    2                    # Species label, number of l-shells
 n=3   0   2                         # n, l, Nzeta 
   6.430      3.998   
   1.000      1.000   
 n=3   1   2 P   1                   # n, l, Nzeta, Polarization, NzetaPol
   8.465      4.588   
   1.000      1.000   
H                     1                    # Species label, number of l-shells
 n=1   0   2 P   1                   # n, l, Nzeta, Polarization, NzetaPol
   6.518      2.141   
   1.000      1.000   
%endblock PAO.Basis

prinput: ----------------------------------------------------------------------

Dumping basis to NetCDF file O.ion.nc
Dumping basis to NetCDF file N.ion.nc
Dumping basis to NetCDF file Si.ion.nc
Dumping basis to NetCDF file H.ion.nc
coor:   Atomic-coordinates input format  =     Cartesian coordinates
coor:                                          (in Angstroms)

siesta: Atomic coordinates (Bohr) and species
siesta:      1.97217   7.44407   0.00000  1        1
siesta:     -5.74598   2.02405   0.00000  2        2
siesta:      3.88264   2.29334   0.00000  2        3
siesta:      1.88786  -3.27422   0.00000  2        4
siesta:     -4.02956  -3.42601   0.00000  2        5
siesta:      7.29471  -2.10194   0.00000  2        6
siesta:     -2.33605   2.17879   0.00000  3        7
siesta:     -1.00708  -1.77447   0.00000  3        8
siesta:      1.20122   4.48719   0.00000  3        9
siesta:      4.24276  -1.03929   0.00000  3       10
siesta:     -6.51921  -1.10297   0.00000  3       11
siesta:      5.60061   3.38449   0.00000  4       12
siesta:     -9.15684  -2.12320   0.00000  4       13
siesta:      7.57218  -4.06728   0.00000  4       14
siesta:      9.01814  -0.94924   0.00000  4       15
siesta:     -4.28099  -5.41332   0.00000  4       16
siesta:     12.02392  11.09814   0.00000  3       17
siesta:     15.62363  13.37836   0.00000  3       18
siesta:     14.68679   5.87052   0.00000  3       19
siesta:     18.61264  10.53667   0.00000  3       20
siesta:     12.13659   7.85267   0.00000  2       21
siesta:      9.11537  12.52239   0.00000  2       22
siesta:     17.80918   7.24972   0.00000  2       23
siesta:     15.98522  16.19812   0.00000  4       24
siesta:     21.41769  10.95001   0.00000  4       25
siesta:      8.90496  14.50508   0.00000  4       26
siesta:      7.35309  11.34147   0.00000  4       27
siesta:     14.66746   2.83163   0.00000  1       28
siesta:     19.27452   5.87647   0.00000  4       29

siesta: Automatic unit cell vectors (Ang):
siesta:   25.385857    0.000000    0.000000
siesta:    0.000000   20.168490    0.000000
siesta:    0.000000    0.000000    9.854683

siesta: System type = molecule  

initatomlists: Number of atoms, orbitals, and projectors:     29   297   394

siesta: ******************** Simulation parameters ****************************
siesta:
siesta: The following are some of the parameters of the simulation.
siesta: A complete list of the parameters used, including default values,
siesta: can be found in file out.fdf
siesta:
redata: Spin configuration                          = spin-orbit
redata: Number of spin components                   = 8
redata: Time-Reversal Symmetry                      = F
redata: Spin spiral                                 = F
############################################################
This spin-orbit implementation uses a local approximation.
From 4.2 and onwards the full non-local approximation is implemented
You are strongly advised to use >=4.2 versions!
############################################################
redata: Long output                                 =   F
redata: Number of Atomic Species                    =        4
redata: Charge density info will appear in .RHO file
redata: Write Mulliken Pop.                         = Atomic and Orbital charges
redata: Matel table size (NRTAB)                    =     1024
redata: Mesh Cutoff                                 =   340.0000 Ry
redata: Net charge of the system                    =     0.0000 |e|
redata: Min. number of SCF Iter                     =        1
redata: Max. number of SCF Iter                     =      200
redata: SCF mix quantity                            = Hamiltonian
redata: Mix DM or H after convergence               =   F
redata: Recompute H after scf cycle                 =   F
redata: Mix DM in first SCF step                    =   T
redata: Write Pulay info on disk                    =   F
redata: New DM Occupancy tolerance                  = 0.000000000001
redata: No kicks to SCF
redata: DM Mixing Weight for Kicks                  =     0.5000
redata: Require Harris convergence for SCF          =   F
redata: Harris energy tolerance for SCF             =     0.000100 eV
redata: Require DM convergence for SCF              =   T
redata: DM tolerance for SCF                        =     0.000008
redata: Require EDM convergence for SCF             =   F
redata: EDM tolerance for SCF                       =     0.001000 eV
redata: Require H convergence for SCF               =   T
redata: Hamiltonian tolerance for SCF               =     0.000001 eV
redata: Require (free) Energy convergence for SCF   =   F
redata: (free) Energy tolerance for SCF             =     0.000100 eV
redata: Using Saved Data (generic)                  =   F
redata: Use continuation files for DM               =   F
redata: Neglect nonoverlap interactions             =   F
redata: Method of Calculation                       = Diagonalization
redata: Electronic Temperature                      =   299.9978 K
redata: Fix the spin of the system                  =   F
redata: Dynamics option                             = Single-point calculation
mix.SCF: Pulay mixing                            = Pulay
mix.SCF:    Variant                              = stable
mix.SCF:    History steps                        = 6
mix.SCF:    Linear mixing weight                 =     0.250000
mix.SCF:    Mixing weight                        =     0.250000
mix.SCF:    SVD condition                        = 0.1000E-07
mix.SCF:    Restart steps                        = 24
mix.SCF:    Restart save steps                   = 3
mix.SCF: Spin-component mixing                   all
redata: Save all siesta data in one NC              =   F
redata: ***********************************************************************

%block SCF.Mixers
  Pulay
%endblock SCF.Mixers

%block SCF.Mixer.Pulay
  # Mixing method
  method pulay
  variant stable

  # Mixing options
  weight 0.2500
  weight.linear 0.2500
  history 6
  restart 24
  restart.save 3
%endblock SCF.Mixer.Pulay

DM_history_depth set to one: no extrapolation allowed by default for geometry relaxation
Size of DM history Fstack: 1
Total number of electrons:    98.000000
Total ionic charge:    98.000000

* ProcessorY, Blocksize:    2  24


* Orbital distribution balance (max,min):    81    72


Time-reversal symmetry not used.

siesta: k-grid: Number of k-points =     1
siesta: k-grid: Cutoff (effective) =     4.927 Ang
siesta: k-grid: Supercell and displacements
siesta: k-grid:    1   0   0      0.000
siesta: k-grid:    0   1   0      0.000
siesta: k-grid:    0   0   1      0.000

diag: Algorithm                                     = ELPA-1stage
diag: Parallel over k                               =   F
diag: Use parallel 2D distribution                  =   T
diag: Parallel block-size                           = 24
diag: Parallel distribution                         =     2 x     2
diag: Used triangular part                          = Lower
diag: Absolute tolerance                            =  0.100E-15
diag: Orthogonalization factor                      =  0.100E-05
diag: Memory factor                                 =  1.0000


ts: **************************************************************
ts: Save H and S matrices                           =    F
ts: Save DM and EDM matrices                        =    F
ts: Only save the overlap matrix S                  =    F
ts: **************************************************************

************************ Begin: TS CHECKS AND WARNINGS ************************
************************ End: TS CHECKS AND WARNINGS **************************


                     ====================================
                        Single-point calculation
                     ====================================

outcoor: Atomic coordinates (Ang):                          
    1.04362488    3.93922861    0.00000000   1       1  O
   -3.04064129    1.07107817    0.00000000   2       2  N
    2.05460145    1.21358207    0.00000000   2       3  N
    0.99901410   -1.73264380    0.00000000   2       4  N
   -2.13235164   -1.81296822    0.00000000   2       5  N
    3.86019055   -1.11229818    0.00000000   2       6  N
   -1.23618322    1.15296446    0.00000000   3       7  Si
   -0.53292426   -0.93900627    0.00000000   3       8  Si
    0.63566047    2.37451677    0.00000000   3       9  Si
    2.24517024   -0.54996710    0.00000000   3      10  Si
   -3.44981666   -0.58366503    0.00000000   3      11  Si
    2.96371409    1.79099263    0.00000000   4      12  H
   -4.84559135   -1.12354966    0.00000000   4      13  H
    4.00702091   -2.15230856    0.00000000   4      14  H
    4.77219438   -0.50231816    0.00000000   4      15  H
   -2.26539909   -2.86460511    0.00000000   4      16  H
    6.36278088    5.87288159    0.00000000   3      17  Si
    8.26766485    7.07952053    0.00000000   3      18  Si
    7.77191071    3.10654662    0.00000000   3      19  Si
    9.84938100    5.57576378    0.00000000   3      20  Si
    6.42240355    4.15545402    0.00000000   2      21  N
    4.82364582    6.62655890    0.00000000   2      22  N
    9.42420597    3.83638384    0.00000000   2      23  N
    8.45900965    8.57167428    0.00000000   4      24  H
   11.33374898    5.79449460    0.00000000   4      25  H
    4.71230054    7.67575401    0.00000000   4      26  H
    3.89108811    6.00164472    0.00000000   4      27  H
    7.76168388    1.49843550    0.00000000   1      28  O
   10.19963185    3.10969228    0.00000000   4      29  H

outcell: Unit cell vectors (Ang):
       25.385857    0.000000    0.000000
        0.000000   20.168490    0.000000
        0.000000    0.000000    9.854683

outcell: Cell vector modules (Ang)   :   25.385857   20.168490    9.854683
outcell: Cell angles (23,13,12) (deg):     90.0000     90.0000     90.0000
outcell: Cell volume (Ang**3)        :   5045.5427
<dSpData1D:S at geom step 0
  <sparsity:sparsity for geom step 0
    nrows_g=297 nrows=81 sparsity=.1887 nnzs=16647, refcount: 8>
  <dData1D:(new from dSpData1D) n=16647, refcount: 1>
refcount: 1>
new_DM -- step:     1
Initializing Density Matrix...
DM filled with atomic data:
<dSpData2D:DM initialized from atoms
  <sparsity:sparsity for geom step 0
    nrows_g=297 nrows=81 sparsity=.1887 nnzs=16647, refcount: 9>
  <dData2D:DM n=16647 m=8, refcount: 1>
refcount: 1>
     spin moment: S , {S} =   56.00000   0.00000   0.00000  56.00000
No. of atoms with KB's overlaping orbs in proc 0. Max # of overlaps:      29     162

Initializing spin-orbit part of the Hamiltonian
  Adding spin-orbit effects for O 
  Adding spin-orbit effects for N 
  Adding spin-orbit effects for Si
  Adding spin-orbit effects for H 


New grid distribution:   1
           1       1:  144    1:   60    1:   30
           2       1:  144    1:   60   31:   60
           3       1:  144   61:  120    1:   30
           4       1:  144   61:  120   31:   60

InitMesh: MESH =   288 x   240 x   120 =     8294400
InitMesh: (bp) =   144 x   120 x    60 =     1036800
InitMesh: Mesh cutoff (required, used) =   340.000   355.716 Ry
ExtMesh (bp) on 0 =   248 x   168 x   142 =     5916288
New grid distribution:   2
           1      44:  144    1:   31    1:   60
           2       1:   43    1:   31    1:   60
           3      44:  144   32:  120    1:   60
           4       1:   43   32:  120    1:   60
New grid distribution:   3
           1      49:  144    1:   36    1:   60
           2       1:   48    1:   40    1:   60
           3      49:  144   37:  120    1:   60
           4       1:   48   41:  120    1:   60
Setting up quadratic distribution...
ExtMesh (bp) on 0 =   205 x   139 x   172 =     4901140
PhiOnMesh: Number of (b)points on node 0 =               187860
PhiOnMesh: nlist on node 0 =              2614562

stepf: Fermi-Dirac step function

siesta: Program's energy decomposition (eV):
siesta: Ebs     =      -616.536808
siesta: Eions   =      3585.165840
siesta: Ena     =       382.017184
siesta: Ekin    =      3369.130017
siesta: Enl     =     -3297.752987
siesta: Eso     =        -0.003411
siesta: Edftu   =         0.000000
siesta: DEna    =       153.527485
siesta: DUscf   =        81.140902
siesta: DUext   =         0.000000
siesta: Exc     =     -1204.072807
siesta: eta*DQ  =         0.000000
siesta: Emadel  =         0.000000
siesta: Emeta   =         0.000000
siesta: Emolmec =         0.000000
siesta: Ekinion =         0.000000
siesta: Eharris =     -4022.637343
siesta: Etot    =     -4101.179457
siesta: FreeEng =     -4101.180872

        iscf     Eharris(eV)        E_KS(eV)     FreeEng(eV)     dDmax    Ef(eV) dHmax(eV)
   scf:    1    -4022.637343    -4101.179457    -4101.180872  0.964740 -4.904681 21.735401
     spin moment: S , {S} =    2.00726   0.00000   0.00000   2.00726
timer: Routine,Calls,Time,% = IterSCF        1      12.747  17.99
   scf:    2    -4148.309031    -4136.679052    -4136.680550  0.454622 -4.214198 11.411892
     spin moment: S , {S} =    1.99126  -0.00000   0.00000   1.99126
   scf:    3    -4110.130112    -4134.435833    -4134.449115  0.424395 -4.305947 11.532308
     spin moment: S , {S} =    2.00367   0.00000   0.00000   2.00367
   scf:    4    -4149.922804    -4145.338628    -4145.338628  0.308476 -3.897557  6.346415
     spin moment: S , {S} =    0.00010  -0.00000  -0.00000   0.00010
   scf:    5    -4146.576085    -4146.053996    -4146.053996  0.035254 -3.677914  4.290541
     spin moment: S , {S} =    0.00006   0.00000  -0.00000   0.00006
   scf:    6    -4146.819250    -4146.444803    -4146.444803  0.024593 -3.622683  2.089687
     spin moment: S , {S} =    0.00003   0.00000  -0.00000   0.00003
   scf:    7    -4146.788315    -4146.613434    -4146.613434  0.021094 -3.640344  0.891775
     spin moment: S , {S} =    0.00001   0.00000   0.00000   0.00001
   scf:    8    -4146.735186    -4146.672216    -4146.672216  0.012762 -3.711622  0.489580
     spin moment: S , {S} =    0.00000   0.00000  -0.00000   0.00000
   scf:    9    -4146.709780    -4146.690342    -4146.690342  0.006488 -3.752599  0.357725
     spin moment: S , {S} =    0.00000   0.00000  -0.00000   0.00000
   scf:   10    -4146.740769    -4146.710092    -4146.710092  0.020367 -3.791554  0.206494
     spin moment: S , {S} =    0.00000  -0.00000  -0.00000  -0.00000
   scf:   11    -4146.713416    -4146.711715    -4146.711715  0.005473 -3.782461  0.058050
     spin moment: S , {S} =    0.00000  -0.00000  -0.00000  -0.00000
   scf:   12    -4146.712587    -4146.712162    -4146.712162  0.001132 -3.777908  0.023215
     spin moment: S , {S} =    0.00000  -0.00000  -0.00000   0.00000
   scf:   13    -4146.712561    -4146.712358    -4146.712358  0.001339 -3.775798  0.016229
     spin moment: S , {S} =    0.00000  -0.00000  -0.00000   0.00000
   scf:   14    -4146.712595    -4146.712470    -4146.712470  0.001266 -3.774547  0.012951
     spin moment: S , {S} =    0.00000  -0.00000  -0.00000   0.00000
   scf:   15    -4146.712601    -4146.712529    -4146.712529  0.001162 -3.774367  0.009546
     spin moment: S , {S} =    0.00000  -0.00000  -0.00000   0.00000
   scf:   16    -4146.712620    -4146.712568    -4146.712568  0.001210 -3.774590  0.006047
     spin moment: S , {S} =    0.00000  -0.00000  -0.00000   0.00000
   scf:   17    -4146.712596    -4146.712580    -4146.712580  0.000680 -3.774548  0.004140
     spin moment: S , {S} =    0.00000  -0.00000  -0.00000   0.00000
   scf:   18    -4146.712591    -4146.712585    -4146.712585  0.000436 -3.774577  0.002237
     spin moment: S , {S} =    0.00000  -0.00000  -0.00000   0.00000
   scf:   19    -4146.712590    -4146.712587    -4146.712587  0.000281 -3.774605  0.001230
     spin moment: S , {S} =    0.00000  -0.00000  -0.00000   0.00000
   scf:   20    -4146.712588    -4146.712588    -4146.712588  0.000140 -3.774623  0.000740
     spin moment: S , {S} =    0.00000  -0.00000  -0.00000   0.00000
   scf:   21    -4146.712588    -4146.712588    -4146.712588  0.000125 -3.774631  0.000252
     spin moment: S , {S} =    0.00000  -0.00000  -0.00000   0.00000
   scf:   22    -4146.712588    -4146.712588    -4146.712588  0.000041 -3.774615  0.000111
     spin moment: S , {S} =    0.00000  -0.00000  -0.00000   0.00000
   scf:   23    -4146.712588    -4146.712588    -4146.712588  0.000009 -3.774611  0.000074
     spin moment: S , {S} =    0.00000  -0.00000  -0.00000   0.00000
   scf:   24    -4146.712588    -4146.712588    -4146.712588  0.000003 -3.774608  0.000047
     spin moment: S , {S} =    0.00000  -0.00000  -0.00000  -0.00000
mix: Pulay -- resetting history
   scf:   25    -4146.712588    -4146.712588    -4146.712588  0.000004 -3.774606  0.000032
     spin moment: S , {S} =    0.00000  -0.00000  -0.00000  -0.00000
   scf:   26    -4146.712588    -4146.712588    -4146.712588  0.000003 -3.774606  0.000017
     spin moment: S , {S} =    0.00000  -0.00000  -0.00000  -0.00000
   scf:   27    -4146.712588    -4146.712588    -4146.712588  0.000002 -3.774606  0.000008
     spin moment: S , {S} =    0.00000  -0.00000  -0.00000  -0.00000
   scf:   28    -4146.712588    -4146.712588    -4146.712588  0.000001 -3.774606  0.000005
     spin moment: S , {S} =    0.00000  -0.00000  -0.00000  -0.00000
   scf:   29    -4146.712588    -4146.712588    -4146.712588  0.000001 -3.774606  0.000003
     spin moment: S , {S} =    0.00000  -0.00000  -0.00000  -0.00000
   scf:   30    -4146.712588    -4146.712588    -4146.712588  0.000000 -3.774606  0.000001
     spin moment: S , {S} =    0.00000  -0.00000  -0.00000  -0.00000
   scf:   31    -4146.712588    -4146.712588    -4146.712588  0.000000 -3.774606  0.000001
     spin moment: S , {S} =    0.00000  -0.00000  -0.00000  -0.00000

SCF Convergence by DM+H criterion
max |DM_out - DM_in|         :     0.0000001929
max |H_out - H_in|      (eV) :     0.0000006306
SCF cycle converged after 31 iterations

Using DM_out to compute the final energy and forces
No. of atoms with KB's overlaping orbs in proc 0. Max # of overlaps:      29     162

siesta: E_KS(eV) =            -4146.7126

siesta: E_KS - E_eggbox =     -4146.7126
     spin moment: S , {S} =    0.00000  -0.00000  -0.00000  -0.00000

siesta: Atomic forces (eV/Ang):
     1    2.220392    0.776495   -0.000000
     2   -0.004573    0.028952    0.000000
     3    0.715244   -0.334196   -0.000000
     4    0.677374   -0.014381   -0.000000
     5    0.034236   -0.087646   -0.000000
     6    1.719062    0.663141    0.000000
     7    0.041770   -0.238213    0.000000
     8   -0.374765    0.262933    0.000000
     9   -0.154413    1.169304   -0.000000
    10   -0.915328    0.343971    0.000000
    11   -0.020078   -0.019160   -0.000000
    12   -0.295911   -0.247061    0.000000
    13    0.014570    0.047978    0.000000
    14    0.190464   -0.087333    0.000000
    15   -1.364281   -0.848122   -0.000000
    16   -0.127358    0.155819    0.000000
    17    0.917056   -1.031652   -0.000000
    18   -0.199039    0.186054    0.000000
    19   -0.184108   -1.131541   -0.000000
    20   -0.017327   -0.380610   -0.000000
    21   -0.281715    0.936931   -0.000000
    22   -2.140607   -0.923153    0.000000
    23    0.230449    0.491303    0.000000
    24    0.256737   -0.045140    0.000000
    25    0.105884    0.019881    0.000000
    26   -0.263048   -0.205580   -0.000000
    27    1.542308    1.293662   -0.000000
    28   -1.066490    2.211382    0.000000
    29    0.025102    0.104382    0.000000
----------------------------------------
   Tot    1.281608    3.098401   -0.000000
----------------------------------------
   Max    2.220392
   Res    0.642013    sqrt( Sum f_i^2 / 3N )
----------------------------------------
   Max    2.220392    constrained

Stress tensor Voigt[x,y,z,yz,xz,xy] (kbar):        0.15        1.55       -0.11        0.00       -0.00        1.52
(Free)E + p*V (eV/cell)    -4148.3809
Target enthalpy (eV/cell)    -4146.7126

mulliken: Atomic and Orbital Populations:

Species: O                   

Atom      Orb        Charge      Spin       Svec
----------------------------------------------------------------
    1  1 2s         1.74566   0.00000     -0.000   0.000  -0.000
    1  2 2s         0.06660   0.00000      0.000  -0.000  -0.000
    1  3 2py        1.43459   0.00000     -0.000   0.000  -0.000
    1  4 2pz        1.55271   0.00000      0.000  -0.000  -0.000
    1  5 2px        1.62923   0.00000      0.000  -0.000  -0.000
    1  6 2py        0.03575   0.00000      0.000  -0.000   0.000
    1  7 2pz       -0.00750   0.00000      0.000  -0.000   0.000
    1  8 2px        0.00312   0.00000     -0.000   0.000   0.000
    1  9 3Pdxy      0.00679   0.00000      0.000   0.000   0.000
    1 10 3Pdyz      0.00882   0.00000     -0.000  -0.000   0.000
    1 11 3Pdz2      0.00153   0.00000     -0.000  -0.000  -0.000
    1 12 3Pdxz      0.00034   0.00000     -0.000  -0.000   0.000
    1 13 3Pdx2-y2   0.00680   0.00000      0.000  -0.000  -0.000
    1     Total     6.48444   0.00000      0.000   0.000  -0.000

   28  1 2s         1.74310   0.00000     -0.000  -0.000   0.000
   28  2 2s         0.06824   0.00000      0.000   0.000   0.000
   28  3 2py        1.41672   0.00000      0.000   0.000   0.000
   28  4 2pz        1.55164   0.00000      0.000   0.000  -0.000
   28  5 2px        1.64708   0.00000      0.000   0.000   0.000
   28  6 2py        0.03921   0.00000     -0.000  -0.000   0.000
   28  7 2pz       -0.00589   0.00000     -0.000  -0.000   0.000
   28  8 2px        0.00765   0.00000     -0.000  -0.000   0.000
   28  9 3Pdxy      0.00627   0.00000      0.000  -0.000   0.000
   28 10 3Pdyz      0.00956   0.00000     -0.000  -0.000  -0.000
   28 11 3Pdz2      0.00121   0.00000      0.000   0.000  -0.000
   28 12 3Pdxz     -0.00019   0.00000     -0.000   0.000  -0.000
   28 13 3Pdx2-y2   0.00763   0.00000      0.000  -0.000   0.000
   28     Total     6.49223   0.00000      0.000   0.000  -0.000

----------------------------------------------------------------
Total              12.97667   0.00000      0.000   0.000  -0.000


Species: N                   

Atom      Orb        Charge      Spin       Svec
----------------------------------------------------------------
    2  1 2s         1.55060   0.00000     -0.000   0.000  -0.000
    2  2 2s         0.08442   0.00000      0.000  -0.000   0.000
    2  3 2py        1.04432   0.00000      0.000  -0.000  -0.000
    2  4 2pz        1.22432   0.00000      0.000   0.000  -0.000
    2  5 2px        0.99072   0.00000      0.000  -0.000  -0.000
    2  6 2py        0.18822   0.00000     -0.000   0.000   0.000
    2  7 2pz        0.05533   0.00000     -0.000  -0.000   0.000
    2  8 2px        0.19561   0.00000     -0.000   0.000   0.000
    2  9 3Pdxy      0.00837   0.00000      0.000   0.000   0.000
    2 10 3Pdyz      0.01098   0.00000      0.000  -0.000   0.000
    2 11 3Pdz2      0.00194   0.00000      0.000  -0.000   0.000
    2 12 3Pdxz      0.00758   0.00000     -0.000  -0.000   0.000
    2 13 3Pdx2-y2   0.00907   0.00000     -0.000   0.000  -0.000
    2     Total     5.37149   0.00000      0.000   0.000  -0.000

    3  1 2s         1.39876   0.00000      0.000   0.000  -0.000
    3  2 2s         0.11726   0.00000     -0.000  -0.000   0.000
    3  3 2py        0.94204   0.00000     -0.000   0.000  -0.000
    3  4 2pz        1.54411   0.00000      0.000   0.000  -0.000
    3  5 2px        1.08434   0.00000      0.000   0.000  -0.000
    3  6 2py        0.24850   0.00000      0.000  -0.000   0.000
    3  7 2pz        0.00670   0.00000     -0.000  -0.000   0.000
    3  8 2px        0.17771   0.00000     -0.000   0.000   0.000
    3  9 3Pdxy      0.00393   0.00000      0.000   0.000   0.000
    3 10 3Pdyz      0.00411   0.00000     -0.000  -0.000  -0.000
    3 11 3Pdz2      0.00073   0.00000     -0.000  -0.000   0.000
    3 12 3Pdxz      0.00275   0.00000      0.000  -0.000  -0.000
    3 13 3Pdx2-y2   0.00275   0.00000      0.000  -0.000  -0.000
    3     Total     5.53371   0.00000      0.000   0.000  -0.000

    4  1 2s         1.46026   0.00000      0.000  -0.000  -0.000
    4  2 2s         0.11878   0.00000     -0.000   0.000   0.000
    4  3 2py        1.13019   0.00000     -0.000   0.000  -0.000
    4  4 2pz        1.29505   0.00000      0.000  -0.000  -0.000
    4  5 2px        0.82612   0.00000     -0.000   0.000  -0.000
    4  6 2py        0.14972   0.00000     -0.000  -0.000   0.000
    4  7 2pz        0.05339   0.00000     -0.000  -0.000   0.000
    4  8 2px        0.29231   0.00000     -0.000  -0.000   0.000
    4  9 3Pdxy      0.00870   0.00000      0.000  -0.000   0.000
    4 10 3Pdyz      0.01045   0.00000      0.000   0.000  -0.000
    4 11 3Pdz2      0.00126   0.00000      0.000  -0.000  -0.000
    4 12 3Pdxz      0.00493   0.00000     -0.000  -0.000   0.000
    4 13 3Pdx2-y2   0.00798   0.00000      0.000   0.000  -0.000
    4     Total     5.35917   0.00000     -0.000   0.000  -0.000

    5  1 2s         1.37615   0.00000      0.000  -0.000  -0.000
    5  2 2s         0.12799   0.00000     -0.000   0.000   0.000
    5  3 2py        1.02628   0.00000     -0.000  -0.000  -0.000
    5  4 2pz        1.50078   0.00000      0.000   0.000  -0.000
    5  5 2px        1.06007   0.00000      0.000  -0.000  -0.000
    5  6 2py        0.20365   0.00000      0.000   0.000   0.000
    5  7 2pz        0.01341   0.00000     -0.000   0.000   0.000
    5  8 2px        0.20105   0.00000     -0.000   0.000   0.000
    5  9 3Pdxy      0.00393   0.00000      0.000  -0.000   0.000
    5 10 3Pdyz      0.00242   0.00000     -0.000  -0.000   0.000
    5 11 3Pdz2      0.00142   0.00000      0.000  -0.000   0.000
    5 12 3Pdxz      0.00682   0.00000     -0.000  -0.000   0.000
    5 13 3Pdx2-y2   0.00560   0.00000     -0.000  -0.000   0.000
    5     Total     5.52957   0.00000      0.000   0.000  -0.000

    6  1 2s         1.26875   0.00000     -0.000   0.000  -0.000
    6  2 2s         0.17979   0.00000      0.000  -0.000   0.000
    6  3 2py        1.07882   0.00000     -0.000   0.000  -0.000
    6  4 2pz        1.56872   0.00000      0.000   0.000  -0.000
    6  5 2px        0.95929   0.00000     -0.000  -0.000  -0.000
    6  6 2py        0.18763   0.00000      0.000  -0.000   0.000
    6  7 2pz        0.03013   0.00000     -0.000  -0.000   0.000
    6  8 2px        0.25538   0.00000      0.000   0.000   0.000
    6  9 3Pdxy      0.00228   0.00000      0.000   0.000   0.000
    6 10 3Pdyz      0.00014   0.00000     -0.000   0.000  -0.000
    6 11 3Pdz2      0.00172   0.00000      0.000  -0.000   0.000
    6 12 3Pdxz      0.00332   0.00000     -0.000  -0.000   0.000
    6 13 3Pdx2-y2   0.00399   0.00000      0.000  -0.000   0.000
    6     Total     5.53995   0.00000     -0.000  -0.000  -0.000

   21  1 2s         1.42101   0.00000      0.000   0.000   0.000
   21  2 2s         0.12920   0.00000     -0.000  -0.000  -0.000
   21  3 2py        0.87304   0.00000     -0.000  -0.000  -0.000
   21  4 2pz        1.29745   0.00000     -0.000   0.000   0.000
   21  5 2px        1.15901   0.00000     -0.000   0.000  -0.000
   21  6 2py        0.27496   0.00000      0.000   0.000   0.000
   21  7 2pz        0.04845   0.00000     -0.000  -0.000   0.000
   21  8 2px        0.16182   0.00000     -0.000  -0.000   0.000
   21  9 3Pdxy      0.00634   0.00000     -0.000   0.000   0.000
   21 10 3Pdyz      0.00495   0.00000      0.000   0.000  -0.000
   21 11 3Pdz2      0.00015   0.00000     -0.000   0.000  -0.000
   21 12 3Pdxz      0.00579   0.00000      0.000  -0.000  -0.000
   21 13 3Pdx2-y2   0.00561   0.00000     -0.000  -0.000  -0.000
   21     Total     5.38778   0.00000     -0.000   0.000   0.000

   22  1 2s         1.29352   0.00000      0.000   0.000   0.000
   22  2 2s         0.16856   0.00000     -0.000  -0.000  -0.000
   22  3 2py        1.05940   0.00000     -0.000   0.000  -0.000
   22  4 2pz        1.55030   0.00000     -0.000   0.000  -0.000
   22  5 2px        0.98783   0.00000      0.000  -0.000  -0.000
   22  6 2py        0.19614   0.00000      0.000  -0.000   0.000
   22  7 2pz        0.02863   0.00000      0.000  -0.000   0.000
   22  8 2px        0.23432   0.00000     -0.000   0.000   0.000
   22  9 3Pdxy      0.00316   0.00000     -0.000  -0.000  -0.000
   22 10 3Pdyz      0.00033   0.00000     -0.000   0.000  -0.000
   22 11 3Pdz2      0.00250   0.00000     -0.000  -0.000   0.000
   22 12 3Pdxz      0.00325   0.00000     -0.000   0.000   0.000
   22 13 3Pdx2-y2   0.00474   0.00000      0.000  -0.000  -0.000
   22     Total     5.53268   0.00000      0.000   0.000  -0.000

   23  1 2s         1.39540   0.00000     -0.000   0.000   0.000
   23  2 2s         0.11874   0.00000      0.000  -0.000  -0.000
   23  3 2py        1.00783   0.00000      0.000   0.000   0.000
   23  4 2pz        1.52667   0.00000      0.000  -0.000  -0.000
   23  5 2px        1.06382   0.00000      0.000   0.000  -0.000
   23  6 2py        0.21131   0.00000     -0.000  -0.000   0.000
   23  7 2pz        0.00482   0.00000     -0.000   0.000  -0.000
   23  8 2px        0.19813   0.00000     -0.000  -0.000   0.000
   23  9 3Pdxy      0.00527   0.00000      0.000   0.000   0.000
   23 10 3Pdyz      0.00446   0.00000     -0.000  -0.000  -0.000
   23 11 3Pdz2      0.00066   0.00000     -0.000   0.000   0.000
   23 12 3Pdxz      0.00244   0.00000     -0.000  -0.000  -0.000
   23 13 3Pdx2-y2   0.00137   0.00000     -0.000  -0.000  -0.000
   23     Total     5.54093   0.00000      0.000  -0.000  -0.000

----------------------------------------------------------------
Total              56.77194   0.00000      0.000   0.000  -0.000


Species: Si                  

Atom      Orb        Charge      Spin       Svec
----------------------------------------------------------------
    7  1 3s         0.66804   0.00000      0.000   0.000   0.000
    7  2 3s         0.36459   0.00000     -0.000  -0.000   0.000
    7  3 3py        0.48759   0.00000     -0.000  -0.000   0.000
    7  4 3pz        0.69353   0.00000      0.000  -0.000  -0.000
    7  5 3px        0.12501   0.00000     -0.000  -0.000  -0.000
    7  6 3py        0.26483   0.00000      0.000   0.000   0.000
    7  7 3pz        0.25888   0.00000     -0.000   0.000   0.000
    7  8 3px        0.43806   0.00000      0.000   0.000   0.000
    7  9 3Pdxy      0.24544   0.00000      0.000  -0.000   0.000
    7 10 3Pdyz      0.02919   0.00000     -0.000  -0.000   0.000
    7 11 3Pdz2      0.01173   0.00000      0.000   0.000   0.000
    7 12 3Pdxz      0.14551   0.00000      0.000   0.000  -0.000
    7 13 3Pdx2-y2   0.11287   0.00000      0.000  -0.000  -0.000
    7     Total     3.84526   0.00000      0.000  -0.000   0.000

    8  1 3s         0.65641   0.00000      0.000   0.000  -0.000
    8  2 3s         0.36861   0.00000     -0.000   0.000   0.000
    8  3 3py        0.38858   0.00000     -0.000  -0.000  -0.000
    8  4 3pz        0.52226   0.00000     -0.000   0.000   0.000
    8  5 3px       -0.02988   0.00000      0.000  -0.000  -0.000
    8  6 3py        0.30868   0.00000      0.000   0.000   0.000
    8  7 3pz        0.20248   0.00000      0.000  -0.000   0.000
    8  8 3px        0.51475   0.00000     -0.000   0.000   0.000
    8  9 3Pdxy      0.24637   0.00000      0.000   0.000   0.000
    8 10 3Pdyz      0.11220   0.00000     -0.000   0.000  -0.000
    8 11 3Pdz2      0.01437   0.00000      0.000  -0.000   0.000
    8 12 3Pdxz      0.15386   0.00000     -0.000  -0.000   0.000
    8 13 3Pdx2-y2   0.20050   0.00000     -0.000  -0.000  -0.000
    8     Total     3.65920   0.00000      0.000   0.000   0.000

    9  1 3s         0.60389   0.00000     -0.000   0.000   0.000
    9  2 3s         0.36657   0.00000      0.000  -0.000  -0.000
    9  3 3py        0.07630   0.00000     -0.000  -0.000   0.000
    9  4 3pz        0.48496   0.00000     -0.000   0.000  -0.000
    9  5 3px        0.37961   0.00000     -0.000   0.000   0.000
    9  6 3py        0.44622   0.00000      0.000  -0.000   0.000
    9  7 3pz        0.18652   0.00000      0.000  -0.000   0.000
    9  8 3px        0.27354   0.00000      0.000  -0.000   0.000
    9  9 3Pdxy      0.31101   0.00000      0.000  -0.000   0.000
    9 10 3Pdyz      0.19075   0.00000      0.000  -0.000  -0.000
    9 11 3Pdz2      0.01623   0.00000      0.000  -0.000   0.000
    9 12 3Pdxz      0.09872   0.00000     -0.000  -0.000  -0.000
    9 13 3Pdx2-y2   0.17291   0.00000      0.000   0.000   0.000
    9     Total     3.60724   0.00000     -0.000  -0.000   0.000

   10  1 3s         0.48138   0.00000     -0.000  -0.000   0.000
   10  2 3s         0.37831   0.00000      0.000   0.000   0.000
   10  3 3py        0.24032   0.00000     -0.000   0.000   0.000
   10  4 3pz        0.40758   0.00000     -0.000   0.000   0.000
   10  5 3px        0.10097   0.00000     -0.000   0.000  -0.000
   10  6 3py        0.32741   0.00000     -0.000   0.000  -0.000
   10  7 3pz        0.22279   0.00000     -0.000  -0.000   0.000
   10  8 3px        0.42999   0.00000      0.000   0.000   0.000
   10  9 3Pdxy      0.16951   0.00000     -0.000   0.000  -0.000
   10 10 3Pdyz      0.13875   0.00000     -0.000   0.000   0.000
   10 11 3Pdz2      0.01018   0.00000     -0.000   0.000   0.000
   10 12 3Pdxz      0.17535   0.00000     -0.000  -0.000   0.000
   10 13 3Pdx2-y2   0.30952   0.00000      0.000  -0.000   0.000
   10     Total     3.39207   0.00000     -0.000   0.000   0.000

   11  1 3s         0.55272   0.00000     -0.000   0.000   0.000
   11  2 3s         0.38520   0.00000      0.000  -0.000   0.000
   11  3 3py        0.32214   0.00000     -0.000   0.000   0.000
   11  4 3pz        0.54154   0.00000     -0.000  -0.000   0.000
   11  5 3px        0.12490   0.00000     -0.000   0.000   0.000
   11  6 3py        0.28667   0.00000      0.000  -0.000   0.000
   11  7 3pz        0.17720   0.00000      0.000  -0.000   0.000
   11  8 3px        0.44597   0.00000     -0.000   0.000  -0.000
   11  9 3Pdxy      0.22545   0.00000      0.000   0.000   0.000
   11 10 3Pdyz      0.12647   0.00000     -0.000  -0.000   0.000
   11 11 3Pdz2      0.00960   0.00000     -0.000   0.000   0.000
   11 12 3Pdxz      0.05290   0.00000     -0.000   0.000   0.000
   11 13 3Pdx2-y2   0.20399   0.00000      0.000  -0.000   0.000
   11     Total     3.45475   0.00000     -0.000   0.000   0.000

   17  1 3s         0.63740   0.00000      0.000  -0.000   0.000
   17  2 3s         0.36138   0.00000     -0.000  -0.000  -0.000
   17  3 3py        0.22492   0.00000      0.000  -0.000  -0.000
   17  4 3pz        0.42073   0.00000      0.000  -0.000  -0.000
   17  5 3px        0.24463   0.00000     -0.000  -0.000   0.000
   17  6 3py        0.38758   0.00000     -0.000   0.000  -0.000
   17  7 3pz        0.21226   0.00000     -0.000  -0.000   0.000
   17  8 3px        0.36999   0.00000     -0.000   0.000  -0.000
   17  9 3Pdxy      0.30032   0.00000     -0.000  -0.000  -0.000
   17 10 3Pdyz      0.14216   0.00000     -0.000  -0.000   0.000
   17 11 3Pdz2      0.00895   0.00000     -0.000  -0.000   0.000
   17 12 3Pdxz      0.14344   0.00000      0.000  -0.000   0.000
   17 13 3Pdx2-y2   0.16413   0.00000      0.000  -0.000  -0.000
   17     Total     3.61788   0.00000      0.000  -0.000   0.000

   18  1 3s         0.74358   0.00000      0.000   0.000   0.000
   18  2 3s         0.34020   0.00000     -0.000  -0.000   0.000
   18  3 3py        0.07759   0.00000      0.000  -0.000   0.000
   18  4 3pz        0.81802   0.00000     -0.000   0.000   0.000
   18  5 3px        0.55535   0.00000     -0.000   0.000   0.000
   18  6 3py        0.51934   0.00000     -0.000   0.000   0.000
   18  7 3pz        0.19815   0.00000      0.000  -0.000   0.000
   18  8 3px        0.25072   0.00000      0.000  -0.000   0.000
   18  9 3Pdxy      0.10317   0.00000     -0.000   0.000  -0.000
   18 10 3Pdyz      0.02756   0.00000      0.000  -0.000  -0.000
   18 11 3Pdz2      0.00865   0.00000     -0.000  -0.000  -0.000
   18 12 3Pdxz      0.03041   0.00000     -0.000  -0.000  -0.000
   18 13 3Pdx2-y2   0.11242   0.00000     -0.000   0.000  -0.000
   18     Total     3.78518   0.00000     -0.000   0.000   0.000

   19  1 3s         0.46060   0.00000     -0.000   0.000   0.000
   19  2 3s         0.36458   0.00000     -0.000  -0.000  -0.000
   19  3 3py        0.08449   0.00000     -0.000  -0.000   0.000
   19  4 3pz        0.42888   0.00000      0.000  -0.000  -0.000
   19  5 3px        0.35830   0.00000      0.000  -0.000   0.000
   19  6 3py        0.46857   0.00000      0.000   0.000  -0.000
   19  7 3pz        0.18242   0.00000      0.000  -0.000   0.000
   19  8 3px        0.23898   0.00000      0.000   0.000  -0.000
   19  9 3Pdxy      0.34194   0.00000     -0.000  -0.000  -0.000
   19 10 3Pdyz      0.18932   0.00000      0.000  -0.000   0.000
   19 11 3Pdz2      0.01591   0.00000      0.000   0.000  -0.000
   19 12 3Pdxz      0.08958   0.00000     -0.000   0.000   0.000
   19 13 3Pdx2-y2   0.23963   0.00000      0.000  -0.000   0.000
   19     Total     3.46320   0.00000     -0.000  -0.000   0.000

   20  1 3s         0.67385   0.00000     -0.000  -0.000  -0.000
   20  2 3s         0.37775   0.00000      0.000  -0.000  -0.000
   20  3 3py        0.32984   0.00000     -0.000  -0.000  -0.000
   20  4 3pz        0.59318   0.00000     -0.000  -0.000  -0.000
   20  5 3px        0.13848   0.00000     -0.000  -0.000  -0.000
   20  6 3py        0.29188   0.00000      0.000   0.000  -0.000
   20  7 3pz        0.16359   0.00000      0.000  -0.000  -0.000
   20  8 3px        0.49971   0.00000     -0.000   0.000   0.000
   20  9 3Pdxy      0.09988   0.00000     -0.000  -0.000  -0.000
   20 10 3Pdyz      0.13327   0.00000     -0.000   0.000  -0.000
   20 11 3Pdz2      0.00738   0.00000     -0.000  -0.000   0.000
   20 12 3Pdxz      0.02687   0.00000     -0.000   0.000   0.000
   20 13 3Pdx2-y2   0.17252   0.00000     -0.000   0.000  -0.000
   20     Total     3.50821   0.00000     -0.000  -0.000  -0.000

----------------------------------------------------------------
Total              89.10494   0.00000     -0.000   0.000   0.000


Species: H                   

Atom      Orb        Charge      Spin       Svec
----------------------------------------------------------------
   12  1 1s         0.49247   0.00000     -0.000  -0.000   0.000
   12  2 1s         0.18229   0.00000      0.000  -0.000   0.000
   12  3 2Ppy       0.02901   0.00000      0.000   0.000   0.000
   12  4 2Ppz       0.03319   0.00000      0.000  -0.000  -0.000
   12  5 2Ppx       0.02314   0.00000      0.000  -0.000   0.000
   12     Total     0.76009   0.00000     -0.000  -0.000   0.000

   13  1 1s         1.01935   0.00000      0.000  -0.000  -0.000
   13  2 1s         0.09544   0.00000      0.000   0.000   0.000
   13  3 2Ppy       0.01808   0.00000      0.000  -0.000  -0.000
   13  4 2Ppz       0.02012   0.00000      0.000   0.000   0.000
   13  5 2Ppx       0.03509   0.00000     -0.000   0.000   0.000
   13     Total     1.18808   0.00000      0.000  -0.000  -0.000

   14  1 1s         0.46122   0.00000      0.000  -0.000   0.000
   14  2 1s         0.19993   0.00000     -0.000   0.000   0.000
   14  3 2Ppy       0.01804   0.00000      0.000  -0.000  -0.000
   14  4 2Ppz       0.04551   0.00000     -0.000  -0.000   0.000
   14  5 2Ppx       0.01721   0.00000     -0.000  -0.000   0.000
   14     Total     0.74191   0.00000     -0.000  -0.000   0.000

   15  1 1s         0.48819   0.00000     -0.000   0.000   0.000
   15  2 1s         0.17936   0.00000     -0.000  -0.000   0.000
   15  3 2Ppy       0.00549   0.00000     -0.000   0.000   0.000
   15  4 2Ppz       0.04010   0.00000     -0.000  -0.000  -0.000
   15  5 2Ppx       0.03013   0.00000     -0.000   0.000   0.000
   15     Total     0.74326   0.00000     -0.000   0.000   0.000

   16  1 1s         0.50979   0.00000      0.000   0.000   0.000
   16  2 1s         0.18732   0.00000     -0.000  -0.000   0.000
   16  3 2Ppy       0.02981   0.00000     -0.000   0.000   0.000
   16  4 2Ppz       0.03979   0.00000     -0.000  -0.000  -0.000
   16  5 2Ppx       0.02359   0.00000     -0.000   0.000  -0.000
   16     Total     0.79029   0.00000     -0.000   0.000   0.000

   24  1 1s         1.06245   0.00000      0.000  -0.000  -0.000
   24  2 1s         0.07466   0.00000     -0.000   0.000   0.000
   24  3 2Ppy       0.03219   0.00000     -0.000  -0.000  -0.000
   24  4 2Ppz       0.03057   0.00000     -0.000   0.000   0.000
   24  5 2Ppx       0.01729   0.00000      0.000   0.000  -0.000
   24     Total     1.21716   0.00000      0.000   0.000  -0.000

   25  1 1s         1.04302   0.00000      0.000   0.000   0.000
   25  2 1s         0.08651   0.00000     -0.000   0.000  -0.000
   25  3 2Ppy       0.01225   0.00000      0.000  -0.000   0.000
   25  4 2Ppz       0.01855   0.00000      0.000  -0.000  -0.000
   25  5 2Ppx       0.03568   0.00000      0.000   0.000   0.000
   25     Total     1.19602   0.00000      0.000  -0.000  -0.000

   26  1 1s         0.47425   0.00000      0.000  -0.000  -0.000
   26  2 1s         0.19637   0.00000     -0.000  -0.000   0.000
   26  3 2Ppy       0.02111   0.00000      0.000   0.000  -0.000
   26  4 2Ppz       0.04848   0.00000      0.000   0.000  -0.000
   26  5 2Ppx       0.01602   0.00000      0.000   0.000  -0.000
   26     Total     0.75623   0.00000      0.000  -0.000  -0.000

   27  1 1s         0.50154   0.00000      0.000  -0.000  -0.000
   27  2 1s         0.16987   0.00000     -0.000  -0.000   0.000
   27  3 2Ppy       0.00755   0.00000     -0.000  -0.000  -0.000
   27  4 2Ppz       0.03540   0.00000      0.000  -0.000  -0.000
   27  5 2Ppx       0.03095   0.00000     -0.000  -0.000  -0.000
   27     Total     0.74531   0.00000     -0.000  -0.000  -0.000

   29  1 1s         0.48523   0.00000     -0.000   0.000   0.000
   29  2 1s         0.18763   0.00000      0.000  -0.000   0.000
   29  3 2Ppy       0.02509   0.00000     -0.000  -0.000  -0.000
   29  4 2Ppz       0.03448   0.00000      0.000  -0.000  -0.000
   29  5 2Ppx       0.02428   0.00000      0.000  -0.000   0.000
   29     Total     0.75671   0.00000     -0.000   0.000   0.000

----------------------------------------------------------------
Total              98.00000   0.00000     -0.000  -0.000  -0.000


siesta: Eigenvalues (eV):
ik =     1
  -21.9023  -21.9023  -21.7928  -21.7928  -21.5707  -21.5707  -21.4986  -21.4986  -21.2220  -21.2220
  -21.0680  -21.0680  -20.7696  -20.7696  -19.7781  -19.7781  -19.4221  -19.4221  -19.3560  -19.3560
  -14.7575  -14.7575  -13.8507  -13.8507  -13.3319  -13.3319  -13.1234  -13.1234  -13.0840  -13.0840
  -12.8435  -12.8435  -12.7344  -12.7344  -12.3783  -12.3783  -12.3526  -12.3526  -12.0246  -12.0245
  -11.3754  -11.3754  -10.8143  -10.8143  -10.7221  -10.7221  -10.6713  -10.6713  -10.1122  -10.1122
   -9.5584   -9.5584   -9.2004   -9.2004   -8.8540   -8.8540   -8.7043   -8.7043   -8.6660   -8.6660
   -8.5893   -8.5893   -8.4220   -8.4220   -8.1563   -8.1563   -7.8044   -7.8044   -7.6851   -7.6851
   -7.6439   -7.6439   -7.3218   -7.3218   -7.2684   -7.2684   -6.8254   -6.8254   -6.7838   -6.7838
   -6.5476   -6.5476   -6.5021   -6.5021   -6.1435   -6.1435   -6.1060   -6.1060   -6.0948   -6.0948
   -5.8442   -5.8442   -5.6896   -5.6896   -5.4829   -5.4829   -4.3018   -4.3018   -3.2480   -3.2480
   -2.3173   -2.3173   -2.3041   -2.3041   -2.2242   -2.2242   -1.8544   -1.8544   -1.8496   -1.8496
   -1.8231   -1.8231   -1.7880   -1.7880   -1.5775   -1.5775   -1.4748   -1.4748   -1.0282   -1.0282
   -0.9480   -0.9480   -0.7758   -0.7758   -0.3629   -0.3629   -0.2196   -0.2196    0.0679    0.0679
    0.4296    0.4296    0.4518    0.4518    0.5814    0.5814    0.7181    0.7181    0.8159    0.8159
    1.0417    1.0417    1.2471    1.2471    1.3297    1.3297    1.4327    1.4327    1.4485    1.4485
    1.7095    1.7095    1.8595    1.8595    1.9460    1.9460    2.3814    2.3814    2.7508    2.7508
    2.7569    2.7569    2.8262    2.8262    2.9516    2.9516    3.2140    3.2140    3.4118    3.4118
    3.4150    3.4150    3.8016    3.8016    3.9234    3.9234    4.0769    4.0769    4.3664    4.3664
    4.4025    4.4025    4.5317    4.5317    4.5781    4.5781    4.6193    4.6193    4.8992    4.8992
    4.9200    4.9200    5.0629    5.0629    5.2680    5.2680    5.4989    5.4989    5.6699    5.6699
    5.7414    5.7414    5.7889    5.7889    5.9941    5.9941    6.0342    6.0342    6.1631    6.1631
    6.1769    6.1769    6.3597    6.3597    6.5946    6.5946    6.7548    6.7548    6.8236    6.8236
    7.0351    7.0351    7.2154    7.2154    7.4255    7.4255    7.5902    7.5902    7.7372    7.7372
    7.8387    7.8387    8.0476    8.0476    8.0720    8.0720    8.2725    8.2725    8.3256    8.3256
    8.5922    8.5922    8.7167    8.7167    8.8086    8.8086    8.9423    8.9423    9.2039    9.2039
    9.2590    9.2590    9.3529    9.3529    9.7562    9.7562    9.8376    9.8376    9.8494    9.8494
   10.0251   10.0251   10.1536   10.1536   10.4588   10.4588   10.8283   10.8283   10.9848   10.9848
   11.1055   11.1055   11.1147   11.1147   11.1623   11.1623   11.7374   11.7374   11.8297   11.8297
   11.9240   11.9240   12.0277   12.0277   12.3242   12.3242   12.4486   12.4486   12.5373   12.5373
   12.6929   12.6929   12.7264   12.7264   13.4689   13.4689   13.5076   13.5076   13.6961   13.6961
   13.8484   13.8484   14.0355   14.0355   14.2804   14.2804   14.5939   14.5939   14.8514   14.8514
   14.8527   14.8527   15.3090   15.3090   16.0044   16.0044   16.4470   16.4470   16.6582   16.6582
   16.9722   16.9722   17.4736   17.4736   17.6140   17.6140   18.3493   18.3493   18.3867   18.3867
   18.5788   18.5788   19.0393   19.0393   19.3948   19.3948   19.9869   19.9869   20.2353   20.2353
   20.8929   20.8929   21.3185   21.3185   21.8343   21.8343   22.0892   22.0892   22.5298   22.5298
   23.1298   23.1298   23.4107   23.4107   23.7559   23.7559   23.9481   23.9481   24.0018   24.0018
   24.8872   24.8872   25.2358   25.2358   26.0298   26.0298   26.8835   26.8835   27.8427   27.8427
   28.8780   28.8780   28.9858   28.9858   29.1644   29.1644   29.5148   29.5148   29.7688   29.7688
   30.1155   30.1155   30.3344   30.3344   30.4566   30.4566   30.7858   30.7858   31.0171   31.0171
   31.1025   31.1025   31.2111   31.2111   31.4790   31.4790   31.9370   31.9370   32.2133   32.2133
   33.2263   33.2263   33.9411   33.9411   34.5439   34.5439   34.5784   34.5784   34.7777   34.7777
   34.9266   34.9266   35.0286   35.0286   35.3847   35.3847   35.6659   35.6659   35.6884   35.6884
   36.9295   36.9295   36.9797   36.9797   37.1995   37.1995   37.3636   37.3636   37.9466   37.9466
   38.3097   38.3097   38.7109   38.7109   39.2740   39.2740   39.5663   39.5663   40.0458   40.0458
   40.4443   40.4443   40.4918   40.4918   40.7602   40.7602   40.9258   40.9258   41.4874   41.4874
   41.5232   41.5232   41.9593   41.9593   42.5918   42.5918   42.8820   42.8820   42.9725   42.9725
   43.3198   43.3198   43.7577   43.7577   44.1329   44.1329   44.2230   44.2230   44.2612   44.2612
   44.7083   44.7083   44.8464   44.8464   45.2005   45.2005   45.5835   45.5835   46.0396   46.0396
   46.6601   46.6601   47.1738   47.1738   47.2199   47.2199   48.5779   48.5779   49.4302   49.4302
   49.5314   49.5314   50.2605   50.2605   50.5814   50.5814   50.6655   50.6655   51.0377   51.0377
   51.4304   51.4304   51.8732   51.8732   52.5201   52.5201   53.1792   53.1792   54.1765   54.1765
   54.5667   54.5667   54.6591   54.6591   55.3560   55.3560   55.7766   55.7766   56.0936   56.0936
   56.3354   56.3354   56.5076   56.5076   56.6414   56.6414   58.3606   58.3606   58.5796   58.5796
   59.2596   59.2596   60.3178   60.3178   60.5667   60.5667   61.2007   61.2007   61.7540   61.7540
   61.7664   61.7664   62.2611   62.2611   62.5741   62.5741   64.5859   64.5859   66.4797   66.4797
   67.2513   67.2513   67.4912   67.4912   68.1260   68.1260   69.0316   69.0316   70.8826   70.8826
   74.2235   74.2235   80.8067   80.8067   91.2247   91.2247   91.9209   91.9209   93.4823   93.4823
   98.4791   98.4791   99.5193   99.5193   99.7227   99.7227  103.4590  103.4590  104.0373  104.0373
  110.3474  110.3474  112.2114  112.2114  123.7305  123.7305  125.7689  125.7689  130.4281  130.4281
  135.3458  135.3458  138.6270  138.6270
siesta: Fermi energy =      -3.774606 eV

siesta: Program's energy decomposition (eV):
siesta: Ebs     =     -1133.504633
siesta: Eions   =      3585.165840
siesta: Ena     =       382.017184
siesta: Ekin    =      2903.489451
siesta: Enl     =     -2788.488674
siesta: Eso     =        -0.004278
siesta: Edftu   =         0.000000
siesta: DEna    =        47.111161
siesta: DUscf   =        14.255353
siesta: DUext   =         0.000000
siesta: Exc     =     -1119.926946
siesta: eta*DQ  =         0.000000
siesta: Emadel  =         0.000000
siesta: Emeta   =         0.000000
siesta: Emolmec =         0.000000
siesta: Ekinion =         0.000000
siesta: Eharris =     -4146.712588
siesta: Etot    =     -4146.712588
siesta: FreeEng =     -4146.712588

siesta: Final energy (eV):
siesta:  Band Struct. =   -1133.504633
siesta:       Kinetic =    2903.489451
siesta:       Hartree =    8361.868900
siesta:       Edftu   =       0.000000
siesta:       Eso     =      -0.004278
siesta:    Ext. field =       0.000000
siesta:   Exch.-corr. =   -1119.926946
siesta:  Ion-electron =  -19306.938759
siesta:       Ion-ion =    5014.799044
siesta:       Ekinion =       0.000000
siesta:         Total =   -4146.712588
siesta:         Fermi =      -3.774606

siesta: Atomic forces (eV/Ang):
siesta:      1    2.220392    0.776495   -0.000000
siesta:      2   -0.004573    0.028952    0.000000
siesta:      3    0.715244   -0.334196   -0.000000
siesta:      4    0.677374   -0.014381   -0.000000
siesta:      5    0.034236   -0.087646   -0.000000
siesta:      6    1.719062    0.663141    0.000000
siesta:      7    0.041770   -0.238213    0.000000
siesta:      8   -0.374765    0.262933    0.000000
siesta:      9   -0.154413    1.169304   -0.000000
siesta:     10   -0.915328    0.343971    0.000000
siesta:     11   -0.020078   -0.019160   -0.000000
siesta:     12   -0.295911   -0.247061    0.000000
siesta:     13    0.014570    0.047978    0.000000
siesta:     14    0.190464   -0.087333    0.000000
siesta:     15   -1.364281   -0.848122   -0.000000
siesta:     16   -0.127358    0.155819    0.000000
siesta:     17    0.917056   -1.031652   -0.000000
siesta:     18   -0.199039    0.186054    0.000000
siesta:     19   -0.184108   -1.131541   -0.000000
siesta:     20   -0.017327   -0.380610   -0.000000
siesta:     21   -0.281715    0.936931   -0.000000
siesta:     22   -2.140607   -0.923153    0.000000
siesta:     23    0.230449    0.491303    0.000000
siesta:     24    0.256737   -0.045140    0.000000
siesta:     25    0.105884    0.019881    0.000000
siesta:     26   -0.263048   -0.205580   -0.000000
siesta:     27    1.542308    1.293662   -0.000000
siesta:     28   -1.066490    2.211382    0.000000
siesta:     29    0.025102    0.104382    0.000000
siesta: ----------------------------------------
siesta:    Tot    1.281608    3.098401   -0.000000

siesta: Stress tensor (static) (eV/Ang**3):
siesta:     0.000092    0.000950   -0.000000
siesta:     0.000950    0.000966   -0.000000
siesta:    -0.000000    0.000000   -0.000066

siesta: Cell volume =       5045.542747 Ang**3

siesta: Pressure (static):
siesta:                Solid            Molecule  Units
siesta:          -0.00000360          0.00000621  Ry/Bohr**3
siesta:          -0.00033065          0.00056984  eV/Ang**3
siesta:          -0.52976517          0.91299727  kBar
(Free)E+ p_basis*V_orbitals  =       -4126.862170
(Free)Eharris+ p_basis*V_orbitals  =       -4126.862170
     spin moment: S , {S} =    0.00000  -0.00000  -0.00000  -0.00000

siesta: Electric dipole (a.u.)  =    1.606854    0.080429    0.000000
siesta: Electric dipole (Debye) =    4.084218    0.204431    0.000000

cite: Please see "GC.bib" for an exhaustive BiBTeX file.
cite: Please clearly indicate Siesta version in published work: v4.1.5-1-g384057250
cite: This calculation has made use of the following articles
cite: which are encouraged to be cited in a published work.
        Primary SIESTA paper
          DOI: www.doi.org/10.1088/0953-8984/14/11/302
        Spin-orbit coupling (on-site approximation)
          DOI: www.doi.org/10.1088/0953-8984/19/19/489001


WARNING: alloc-realloc-dealloc name mismatch
         Name: atomlist isa
         Size:              -116. Bytes
         Node:     0
         Subsequent mismatches will not be reported
>> End of run:  28-JUN-2023  15:39:00
Job completed
