Siesta Version  : v4.1.5-1-g384057250
Architecture    : gcc
Compiler version: GNU Fortran (Debian 12.2.0-14) 12.2.0
Compiler flags  : mpifort -O2 -fPIC -ftree-vectorize -fallow-argument-mismatch
PP flags        : -DFC_HAVE_ABORT -DMPI -DSIESTA__FLOOK -DSIESTA__METIS -DSIESTA__MUMPS -DCDF -DNCDF -DNCDF_4 -DNCDF_PARALLEL -DSIESTA__MRRR -DSIESTA__ELPA
Libraries       : libncdf.a libfdict.a  -lflookall -ldl -lnetcdff -lnetcdf -lz -lscalapack-openmpi -lopenblas -lmetis -lzmumps -lcmumps -ldmumps -lmumps_common -lpord -lsmumps -lesmumps -lscotch -lscotcherr -fopenmp -lelpa
PARALLEL version
NetCDF support
NetCDF-4 support
NetCDF-4 MPI-IO support
METIS ordering support
Lua support

* Running on 32 nodes in parallel
>> Start of run:  19-FEB-2024  17:48:19

                           ***********************       
                           *  WELCOME TO SIESTA  *       
                           ***********************       

reinit: Reading from standard input
reinit: Dumped input in INPUT_TMP.96303
************************** Dump of input data file ****************************
SystemLabel      desoxy1
NumberOfAtoms    18
NumberOfSpecies  3
%block ChemicalSpeciesLabel
    1    1  H
    2    8  O
    3   14  Si
%endblock ChemicalSpeciesLabel
############################################
# This overrides Defaults.fdf configuration
############################################
MD.TypeOfRun                Verlet
MD.Steps                    2000
MD.Quench                   True
AtomicCoordinatesFormat NotScaledCartesianAng
%block AtomicCoordinatesAndAtomicSpecies
    -0.708734350     8.716229510     1.791211060    1
    -0.001147630     8.017532680     1.705140280    2
     0.832451180     7.731313970     3.216355310    3
    -0.089000950     6.957657560     4.127151870    1
     1.155146130     9.072092110     3.856709580    1
     2.869439980     6.705710850     2.607403000    3
     3.821810230     6.781892780     3.768138240    1
     2.753473430     5.022082700     2.150036130    2
     2.286012230     4.523505500     0.525965530    3
     3.289147510     3.523368300     0.001010740    1
     0.975396570     3.787598800     0.628322360    1
     3.438988870     7.886973430     0.651918570    3
     3.020022090     9.337733480     0.716934980    1
     2.199394050     6.493802650    -0.796428400    3
     0.784317480     6.963630740    -0.986963950    1
     2.844324290     6.340658440    -2.153186990    1
     5.152233150     7.751556870     0.356905090    2
     5.419235490     7.937240680    -0.581860130    1
%endblock AtomicCoordinatesAndAtomicSpecies
#############
# Unit Cell
#############
LatticeConstant 1.0 Ang
%block LatticeVectors
    14.329350    0.000000     0.000000
    0.000000     14.017284    0.000000
    0.000000     0.000000     14.628130
%endblock LatticeVectors
%include ../../Defaults.fdf
************************** End of input data file *****************************

reinit: -----------------------------------------------------------------------
reinit: System Name: 
reinit: -----------------------------------------------------------------------
reinit: System Label: desoxy1
reinit: -----------------------------------------------------------------------

initatom: Reading input for the pseudopotentials and atomic orbitals ----------
Species number:   1 Atomic number:    1 Label: H
Species number:   2 Atomic number:    8 Label: O
Species number:   3 Atomic number:   14 Label: Si

Ground state valence configuration:   1s01
Reading pseudopotential information in formatted form from H.psf

Pseudopotential generated from a relativistic atomic calculation

Valence configuration for pseudopotential generation:
1s( 1.00) rc: 0.01
2p( 0.00) rc: 0.60
3d( 0.00) rc: 1.99
4f( 0.00) rc: 2.49
Ground state valence configuration:   2s02  2p04
Reading pseudopotential information in formatted form from O.psf

Pseudopotential generated from a relativistic atomic calculation

Valence configuration for pseudopotential generation:
2s( 2.00) rc: 0.45
2p( 4.00) rc: 0.92
3d( 0.00) rc: 2.24
4f( 0.00) rc: 0.25
Ground state valence configuration:   3s02  3p02
Reading pseudopotential information in formatted form from Si.psf

Pseudopotential generated from a relativistic atomic calculation

Valence configuration for pseudopotential generation:
3s( 2.00) rc: 1.67
3p( 2.00) rc: 2.04
3d( 0.00) rc: 2.89
4f( 0.00) rc: 2.49
For H, standard SIESTA heuristics set lmxkb to 2
 (one more than the basis l, including polarization orbitals).
Use PS.lmax or PS.KBprojectors blocks to override.
For O, standard SIESTA heuristics set lmxkb to 3
 (one more than the basis l, including polarization orbitals).
Use PS.lmax or PS.KBprojectors blocks to override.
For Si, standard SIESTA heuristics set lmxkb to 3
 (one more than the basis l, including polarization orbitals).
Use PS.lmax or PS.KBprojectors blocks to override.

<basis_specs>
===============================================================================
H                    Z=   1    Mass=  1.0100        Charge= 0.17977+309
Lmxo=0 Lmxkb= 2    BasisType=split      Semic=F
L=0  Nsemic=0  Cnfigmx=1
          i=1  nzeta=2  polorb=1  (1s)
            splnorm:   0.62000    
               vcte:    0.0000    
               rinn:    0.0000    
               qcoe:    0.0000    
               qyuk:    0.0000    
               qwid:   0.10000E-01
                rcs:    0.0000      0.0000    
            lambdas:    1.0000      1.0000    
-------------------------------------------------------------------------------
L=0  Nkbl=1  erefs: 0.17977+309
L=1  Nkbl=1  erefs: 0.17977+309
L=2  Nkbl=1  erefs: 0.17977+309
===============================================================================
</basis_specs>

atom: Called for H                     (Z =   1)

read_vps: Pseudopotential generation method:
read_vps: ATM4.2.7  Troullier-Martins                       
Valence charge for ps generation:    1.00000

xc_check: Exchange-correlation functional:
xc_check: GGA Perdew, Burke & Ernzerhof 1996
V l=0 = -2*Zval/r beyond r=  0.0098
V l=1 = -2*Zval/r beyond r=  0.5817
V l=2 = -2*Zval/r beyond r=  1.9372
All V_l potentials equal beyond r=  1.9372
This should be close to max(r_c) in ps generation
All pots = -2*Zval/r beyond r=  1.9372

VLOCAL1: 99.0% of the norm of Vloc inside     11.567 Ry
VLOCAL1: 99.9% of the norm of Vloc inside     26.362 Ry
atom: Maximum radius for 4*pi*r*r*local-pseudopot. charge    2.25106
atom: Maximum radius for r*vlocal+2*Zval:    1.91306
GHOST: No ghost state for L =  0
GHOST: No ghost state for L =  1
GHOST: No ghost state for L =  2

KBgen: Kleinman-Bylander projectors: 
   l= 0   rc=  2.036604   el= -0.477180   Ekb= -6.081590   kbcos= -0.277285
   l= 1   rc=  2.195416   el=  0.001076   Ekb= -0.926943   kbcos= -0.034643
   l= 2   rc=  2.251056   el=  0.002010   Ekb= -0.130941   kbcos= -0.009788

KBgen: Total number of Kleinman-Bylander projectors:    9
atom: -------------------------------------------------------------------------

atom: SANKEY-TYPE ORBITALS:
atom: Selected multiple-zeta basis: split     

SPLIT: Orbitals with angular momentum L= 0

SPLIT: Basis orbitals for state 1s

SPLIT: PAO cut-off radius determined from an
SPLIT: energy shift=  0.002000 Ry

   izeta = 1
                 lambda =    1.000000
                     rc =    6.518340
                 energy =   -0.475305
                kinetic =    0.912139
    potential(screened) =   -1.387444
       potential(ionic) =   -1.907295

   izeta = 2
                 rmatch =    2.141150
              splitnorm =    0.620000
                 energy =    0.566467
                kinetic =    3.772856
    potential(screened) =   -3.206389
       potential(ionic) =   -3.759093

POLgen: Perturbative polarization orbital with L=  1

POLgen: Polarization orbital for state 1s

   izeta = 1
                     rc =    6.518340
                 energy =    0.533861
                kinetic =    1.121086
    potential(screened) =   -0.587225
       potential(ionic) =   -1.053027
atom: Total number of Sankey-type orbitals:  5

atm_pop: Valence configuration (for local Pseudopot. screening):
 1s( 1.00)                                                            
Vna: chval, zval:    1.00000   1.00000

Vna:  Cut-off radius for the neutral-atom potential:   6.518340

atom: _________________________________________________________________________

<basis_specs>
===============================================================================
O                    Z=   8    Mass=  16.000        Charge= 0.17977+309
Lmxo=1 Lmxkb= 3    BasisType=split      Semic=F
L=0  Nsemic=0  Cnfigmx=2
          i=1  nzeta=2  polorb=0  (2s)
            splnorm:   0.28000    
               vcte:    0.0000    
               rinn:    0.0000    
               qcoe:    0.0000    
               qyuk:    0.0000    
               qwid:   0.10000E-01
                rcs:    0.0000      0.0000    
            lambdas:    1.0000      1.0000    
L=1  Nsemic=0  Cnfigmx=2
          i=1  nzeta=2  polorb=1  (2p)
            splnorm:   0.28000    
               vcte:    0.0000    
               rinn:    0.0000    
               qcoe:    0.0000    
               qyuk:    0.0000    
               qwid:   0.10000E-01
                rcs:    0.0000      0.0000    
            lambdas:    1.0000      1.0000    
-------------------------------------------------------------------------------
L=0  Nkbl=1  erefs: 0.17977+309
L=1  Nkbl=1  erefs: 0.17977+309
L=2  Nkbl=1  erefs: 0.17977+309
L=3  Nkbl=1  erefs: 0.17977+309
===============================================================================
</basis_specs>

atom: Called for O                     (Z =   8)

read_vps: Pseudopotential generation method:
read_vps: ATM4.2.7  Troullier-Martins                       
Valence charge for ps generation:    6.00000

xc_check: Exchange-correlation functional:
xc_check: GGA Perdew, Burke & Ernzerhof 1996
V l=0 = -2*Zval/r beyond r=  1.1000
V l=1 = -2*Zval/r beyond r=  1.1000
V l=2 = -2*Zval/r beyond r=  2.2154
V l=3 = -2*Zval/r beyond r=  1.1000
All V_l potentials equal beyond r=  2.2154
This should be close to max(r_c) in ps generation
All pots = -2*Zval/r beyond r=  2.2154

VLOCAL1: 99.0% of the norm of Vloc inside      8.845 Ry
VLOCAL1: 99.9% of the norm of Vloc inside     20.157 Ry
atom: Maximum radius for 4*pi*r*r*local-pseudopot. charge    2.67231
atom: Maximum radius for r*vlocal+2*Zval:    2.32897
GHOST: No ghost state for L =  0
GHOST: No ghost state for L =  1
GHOST: No ghost state for L =  2
GHOST: No ghost state for L =  3

KBgen: Kleinman-Bylander projectors: 
   l= 0   rc=  2.243238   el= -1.759686   Ekb=**********   kbcos= -0.171774
   l= 1   rc=  2.328968   el= -0.663873   Ekb=-14.506792   kbcos= -0.519897
   l= 2   rc=  2.573941   el=  0.002031   Ekb= -1.137373   kbcos= -0.019581
   l= 3   rc=  2.606321   el=  0.003153   Ekb= -1.013546   kbcos= -0.003122

KBgen: Total number of Kleinman-Bylander projectors:   16
atom: -------------------------------------------------------------------------

atom: SANKEY-TYPE ORBITALS:
atom: Selected multiple-zeta basis: split     

SPLIT: Orbitals with angular momentum L= 0

SPLIT: Basis orbitals for state 2s

SPLIT: PAO cut-off radius determined from an
SPLIT: energy shift=  0.002000 Ry

   izeta = 1
                 lambda =    1.000000
                     rc =    4.243912
                 energy =   -1.758270
                kinetic =    3.286084
    potential(screened) =   -5.044353
       potential(ionic) =  -12.921184

   izeta = 2
                 rmatch =    2.187845
              splitnorm =    0.280000
                 energy =   -0.885018
                kinetic =    8.134434
    potential(screened) =   -9.019452
       potential(ionic) =  -17.710645

SPLIT: Orbitals with angular momentum L= 1

SPLIT: Basis orbitals for state 2p

SPLIT: PAO cut-off radius determined from an
SPLIT: energy shift=  0.002000 Ry

   izeta = 1
                 lambda =    1.000000
                     rc =    5.314825
                 energy =   -0.661986
                kinetic =    4.917472
    potential(screened) =   -5.579458
       potential(ionic) =  -13.236259

   izeta = 2
                 rmatch =    2.160663
              splitnorm =    0.280000
                 energy =   -0.068760
                kinetic =    9.183374
    potential(screened) =   -9.252135
       potential(ionic) =  -18.274251

POLgen: Perturbative polarization orbital with L=  2

POLgen: Polarization orbital for state 2p

   izeta = 1
                     rc =    5.314825
                 energy =    1.970580
                kinetic =    3.886128
    potential(screened) =   -1.915547
       potential(ionic) =   -7.749584
atom: Total number of Sankey-type orbitals: 13

atm_pop: Valence configuration (for local Pseudopot. screening):
 2s( 2.00)                                                            
 2p( 4.00)                                                            
Vna: chval, zval:    6.00000   6.00000

Vna:  Cut-off radius for the neutral-atom potential:   5.314825

atom: _________________________________________________________________________

<basis_specs>
===============================================================================
Si                   Z=  14    Mass=  28.090        Charge= 0.17977+309
Lmxo=1 Lmxkb= 3    BasisType=split      Semic=F
L=0  Nsemic=0  Cnfigmx=3
          i=1  nzeta=2  polorb=0  (3s)
            splnorm:   0.28000    
               vcte:    0.0000    
               rinn:    0.0000    
               qcoe:    0.0000    
               qyuk:    0.0000    
               qwid:   0.10000E-01
                rcs:    0.0000      0.0000    
            lambdas:    1.0000      1.0000    
L=1  Nsemic=0  Cnfigmx=3
          i=1  nzeta=2  polorb=1  (3p)
            splnorm:   0.28000    
               vcte:    0.0000    
               rinn:    0.0000    
               qcoe:    0.0000    
               qyuk:    0.0000    
               qwid:   0.10000E-01
                rcs:    0.0000      0.0000    
            lambdas:    1.0000      1.0000    
-------------------------------------------------------------------------------
L=0  Nkbl=1  erefs: 0.17977+309
L=1  Nkbl=1  erefs: 0.17977+309
L=2  Nkbl=1  erefs: 0.17977+309
L=3  Nkbl=1  erefs: 0.17977+309
===============================================================================
</basis_specs>

atom: Called for Si                    (Z =  14)

read_vps: Pseudopotential generation method:
read_vps: ATM4.2.7  Troullier-Martins                       
Valence charge for ps generation:    4.00000

xc_check: Exchange-correlation functional:
xc_check: GGA Perdew, Burke & Ernzerhof 1996
V l=0 = -2*Zval/r beyond r=  2.7826
V l=1 = -2*Zval/r beyond r=  2.7826
V l=2 = -2*Zval/r beyond r=  2.9253
V l=3 = -2*Zval/r beyond r=  2.7826
All V_l potentials equal beyond r=  2.8530
This should be close to max(r_c) in ps generation
All pots = -2*Zval/r beyond r=  2.9253

VLOCAL1: 99.0% of the norm of Vloc inside      5.333 Ry
VLOCAL1: 99.9% of the norm of Vloc inside     12.154 Ry
atom: Maximum radius for 4*pi*r*r*local-pseudopot. charge    3.39869
atom: Maximum radius for r*vlocal+2*Zval:    2.96205
GHOST: No ghost state for L =  0
GHOST: No ghost state for L =  1
GHOST: No ghost state for L =  2
GHOST: No ghost state for L =  3

KBgen: Kleinman-Bylander projectors: 
   l= 0   rc=  3.075247   el= -0.794092   Ekb=  5.879390   kbcos=  0.167461
   l= 1   rc=  3.153101   el= -0.300068   Ekb=  2.642817   kbcos=  0.058301
   l= 2   rc=  3.273594   el=  0.001958   Ekb= -1.185135   kbcos= -0.104411
   l= 3   rc=  3.232927   el=  0.003046   Ekb= -0.497174   kbcos= -0.015889

KBgen: Total number of Kleinman-Bylander projectors:   16
atom: -------------------------------------------------------------------------

atom: SANKEY-TYPE ORBITALS:
atom: Selected multiple-zeta basis: split     

SPLIT: Orbitals with angular momentum L= 0

SPLIT: Basis orbitals for state 3s

SPLIT: PAO cut-off radius determined from an
SPLIT: energy shift=  0.002000 Ry

   izeta = 1
                 lambda =    1.000000
                     rc =    6.429618
                 energy =   -0.792283
                kinetic =    0.525293
    potential(screened) =   -1.317576
       potential(ionic) =   -3.744923

   izeta = 2
                 rmatch =    3.998416
              splitnorm =    0.280000
                 energy =   -0.583081
                kinetic =    1.069570
    potential(screened) =   -1.652651
       potential(ionic) =   -4.235185

SPLIT: Orbitals with angular momentum L= 1

SPLIT: Basis orbitals for state 3p

SPLIT: PAO cut-off radius determined from an
SPLIT: energy shift=  0.002000 Ry

   izeta = 1
                 lambda =    1.000000
                     rc =    8.464845
                 energy =   -0.298236
                kinetic =    0.785360
    potential(screened) =   -1.083596
       potential(ionic) =   -3.273779

   izeta = 2
                 rmatch =    4.587816
              splitnorm =    0.280000
                 energy =   -0.131871
                kinetic =    1.403687
    potential(screened) =   -1.535557
       potential(ionic) =   -4.015310

POLgen: Perturbative polarization orbital with L=  2

POLgen: Polarization orbital for state 3p

   izeta = 1
                     rc =    8.464845
                 energy =    0.321949
                kinetic =    1.055677
    potential(screened) =   -0.733728
       potential(ionic) =   -2.672950
atom: Total number of Sankey-type orbitals: 13

atm_pop: Valence configuration (for local Pseudopot. screening):
 3s( 2.00)                                                            
 3p( 2.00)                                                            
Vna: chval, zval:    4.00000   4.00000

Vna:  Cut-off radius for the neutral-atom potential:   8.464845

atom: _________________________________________________________________________

prinput: Basis input ----------------------------------------------------------

PAO.BasisType split     

%block ChemicalSpeciesLabel
    1    1 H                       # Species index, atomic number, species label
    2    8 O                       # Species index, atomic number, species label
    3   14 Si                      # Species index, atomic number, species label
%endblock ChemicalSpeciesLabel

%block PAO.Basis                 # Define Basis set
H                     1                    # Species label, number of l-shells
 n=1   0   2 P   1                   # n, l, Nzeta, Polarization, NzetaPol
   6.518      2.141   
   1.000      1.000   
O                     2                    # Species label, number of l-shells
 n=2   0   2                         # n, l, Nzeta 
   4.244      2.188   
   1.000      1.000   
 n=2   1   2 P   1                   # n, l, Nzeta, Polarization, NzetaPol
   5.315      2.161   
   1.000      1.000   
Si                    2                    # Species label, number of l-shells
 n=3   0   2                         # n, l, Nzeta 
   6.430      3.998   
   1.000      1.000   
 n=3   1   2 P   1                   # n, l, Nzeta, Polarization, NzetaPol
   8.465      4.588   
   1.000      1.000   
%endblock PAO.Basis

prinput: ----------------------------------------------------------------------

Dumping basis to NetCDF file H.ion.nc
Dumping basis to NetCDF file O.ion.nc
Dumping basis to NetCDF file Si.ion.nc
coor:   Atomic-coordinates input format  =     Cartesian coordinates
coor:                                          (in Angstroms)

siesta: Atomic coordinates (Bohr) and species
siesta:     -1.33931  16.47129   3.38490  1        1
siesta:     -0.00217  15.15095   3.22225  2        2
siesta:      1.57311  14.61007   6.07803  3        3
siesta:     -0.16819  13.14807   7.79919  1        4
siesta:      2.18291  17.14378   7.28813  1        5
siesta:      5.42246  12.67196   4.92728  3        6
siesta:      7.22218  12.81593   7.12075  1        7
siesta:      5.20331   9.49036   4.06298  2        8
siesta:      4.31994   8.54819   0.99393  3        9
siesta:      6.21559   6.65820   0.00191  1       10
siesta:      1.84323   7.15753   1.18736  1       11
siesta:      6.49875  14.90423   1.23195  3       12
siesta:      5.70702  17.64577   1.35481  1       13
siesta:      4.15625  12.27151  -1.50503  3       14
siesta:      1.48215  13.15936  -1.86509  1       15
siesta:      5.37500  11.98211  -4.06894  1       16
siesta:      9.73631  14.64833   0.67445  2       17
siesta:     10.24087  14.99922  -1.09956  1       18

siesta: System type = molecule  

initatomlists: Number of atoms, orbitals, and projectors:     18   154   218

siesta: ******************** Simulation parameters ****************************
siesta:
siesta: The following are some of the parameters of the simulation.
siesta: A complete list of the parameters used, including default values,
siesta: can be found in file out.fdf
siesta:
redata: Spin configuration                          = spin-orbit
redata: Number of spin components                   = 8
redata: Time-Reversal Symmetry                      = F
redata: Spin spiral                                 = F
############################################################
This spin-orbit implementation uses a local approximation.
From 4.2 and onwards the full non-local approximation is implemented
You are strongly advised to use >=4.2 versions!
############################################################
redata: Long output                                 =   F
redata: Number of Atomic Species                    =        3
redata: Charge density info will appear in .RHO file
redata: Write Mulliken Pop.                         = NO
redata: Matel table size (NRTAB)                    =     1024
redata: Mesh Cutoff                                 =   340.0000 Ry
redata: Net charge of the system                    =     0.0000 |e|
redata: Min. number of SCF Iter                     =        1
redata: Max. number of SCF Iter                     =      200
redata: SCF convergence failure will abort job
redata: SCF mix quantity                            = Hamiltonian
redata: Mix DM or H after convergence               =   F
redata: Recompute H after scf cycle                 =   F
redata: Mix DM in first SCF step                    =   T
redata: Write Pulay info on disk                    =   F
redata: New DM Occupancy tolerance                  = 0.000000000001
redata: No kicks to SCF
redata: DM Mixing Weight for Kicks                  =     0.5000
redata: Require Harris convergence for SCF          =   F
redata: Harris energy tolerance for SCF             =     0.000100 eV
redata: Require DM convergence for SCF              =   T
redata: DM tolerance for SCF                        =     0.000008
redata: Require EDM convergence for SCF             =   F
redata: EDM tolerance for SCF                       =     0.001000 eV
redata: Require H convergence for SCF               =   T
redata: Hamiltonian tolerance for SCF               =     0.000001 eV
redata: Require (free) Energy convergence for SCF   =   F
redata: (free) Energy tolerance for SCF             =     0.000100 eV
redata: Using Saved Data (generic)                  =   F
redata: Use continuation files for DM               =   T
redata: Neglect nonoverlap interactions             =   F
redata: Method of Calculation                       = Diagonalization
redata: Electronic Temperature                      =   299.9978 K
redata: Fix the spin of the system                  =   F
redata: Dynamics option                             = Verlet MD run
redata: Initial MD time step                        =        1
redata:   Final MD time step                        =     2000
redata: Length of MD time step                      =     0.5000 fs
redata: Initial Temperature of MD run               =     0.0000 K
redata: Perform a MD quench                         =   T
mix.SCF: Pulay mixing                            = Pulay
mix.SCF:    Variant                              = stable
mix.SCF:    History steps                        = 6
mix.SCF:    Linear mixing weight                 =     0.250000
mix.SCF:    Mixing weight                        =     0.250000
mix.SCF:    SVD condition                        = 0.1000E-07
mix.SCF:    Restart steps                        = 24
mix.SCF:    Restart save steps                   = 3
mix.SCF: Spin-component mixing                   all
redata: Save all siesta data in one NC              =   F
redata: ***********************************************************************

%block SCF.Mixers
  Pulay
%endblock SCF.Mixers

%block SCF.Mixer.Pulay
  # Mixing method
  method pulay
  variant stable

  # Mixing options
  weight 0.2500
  weight.linear 0.2500
  history 6
  restart 24
  restart.save 3
%endblock SCF.Mixer.Pulay

Size of DM history Fstack: 3
Total number of electrons:    48.000000
Total ionic charge:    48.000000

* ProcessorY, Blocksize:    4   4


* Orbital distribution balance (max,min):     8     4


Time-reversal symmetry not used.

siesta: k-grid: Number of k-points =     1
siesta: k-grid: Cutoff (effective) =     7.009 Ang
siesta: k-grid: Supercell and displacements
siesta: k-grid:    1   0   0      0.000
siesta: k-grid:    0   1   0      0.000
siesta: k-grid:    0   0   1      0.000

diag: Algorithm                                     = ELPA-1stage
diag: Parallel over k                               =   F
diag: Use parallel 2D distribution                  =   T
diag: Parallel block-size                           = 4
diag: Parallel distribution                         =     4 x     8
diag: Used triangular part                          = Lower
diag: Absolute tolerance                            =  0.100E-15
diag: Orthogonalization factor                      =  0.100E-05
diag: Memory factor                                 =  1.0000


ts: **************************************************************
ts: Save H and S matrices                           =    F
ts: Save DM and EDM matrices                        =    F
ts: Only save the overlap matrix S                  =    F
ts: **************************************************************

************************ Begin: TS CHECKS AND WARNINGS ************************
************************ End: TS CHECKS AND WARNINGS **************************


                     ====================================
                        Begin MD quenched step =      1
                     ====================================

outcoor: Atomic coordinates (Ang):                          
   -0.70873435    8.71622951    1.79121106   1       1  H
   -0.00114763    8.01753268    1.70514028   2       2  O
    0.83245118    7.73131397    3.21635531   3       3  Si
   -0.08900095    6.95765756    4.12715187   1       4  H
    1.15514613    9.07209211    3.85670958   1       5  H
    2.86943998    6.70571085    2.60740300   3       6  Si
    3.82181023    6.78189278    3.76813824   1       7  H
    2.75347343    5.02208270    2.15003613   2       8  O
    2.28601223    4.52350550    0.52596553   3       9  Si
    3.28914751    3.52336830    0.00101074   1      10  H
    0.97539657    3.78759880    0.62832236   1      11  H
    3.43898887    7.88697343    0.65191857   3      12  Si
    3.02002209    9.33773348    0.71693498   1      13  H
    2.19939405    6.49380265   -0.79642840   3      14  Si
    0.78431748    6.96363074   -0.98696395   1      15  H
    2.84432429    6.34065844   -2.15318699   1      16  H
    5.15223315    7.75155687    0.35690509   2      17  O
    5.41923549    7.93724068   -0.58186013   1      18  H

outcell: Unit cell vectors (Ang):
       14.329350    0.000000    0.000000
        0.000000   14.017284    0.000000
        0.000000    0.000000   14.628130

outcell: Cell vector modules (Ang)   :   14.329350   14.017284   14.628130
outcell: Cell angles (23,13,12) (deg):     90.0000     90.0000     90.0000
outcell: Cell volume (Ang**3)        :   2938.1853
<dSpData1D:S at geom step 1
  <sparsity:sparsity for geom step 1
    nrows_g=154 nrows=8 sparsity=.0497 nnzs=1178, refcount: 8>
  <dData1D:(new from dSpData1D) n=1178, refcount: 1>
refcount: 1>
new_DM -- step:     1
Initializing Density Matrix...

Attempting to read DM from file... Succeeded...
DM from file:
<dSpData2D:IO-DM: desoxy1.DM
  <sparsity:IO-DM: desoxy1.DM
    nrows_g=154 nrows=8 sparsity=.0497 nnzs=1178, refcount: 1>
  <dData2D:(new from dSpData2D) n=1178 m=8, refcount: 1>
refcount: 1>
DM to be used:
<dSpData2D:Re-structured SpM
  <sparsity:sparsity for geom step 1
    nrows_g=154 nrows=8 sparsity=.0497 nnzs=1178, refcount: 9>
  <dData2D:(new in restruct) n=1178 m=8, refcount: 1>
refcount: 1>
     spin moment: S , {S} =    0.00000   0.00000  -0.00000  -0.00000
No. of atoms with KB's overlaping orbs in proc 0. Max # of overlaps:      17     138

Initializing spin-orbit part of the Hamiltonian
  Adding spin-orbit effects for H 
  Adding spin-orbit effects for O 
  Adding spin-orbit effects for Si


New grid distribution:   1
           1       1:   80    1:   20    1:   12
           2       1:   80    1:   20   13:   24
           3       1:   80    1:   20   25:   35
           4       1:   80    1:   20   36:   46
           5       1:   80    1:   20   47:   57
           6       1:   80    1:   20   58:   68
           7       1:   80    1:   20   69:   79
           8       1:   80    1:   20   80:   90
           9       1:   80   21:   40    1:   12
          10       1:   80   21:   40   13:   24
          11       1:   80   21:   40   25:   35
          12       1:   80   21:   40   36:   46
          13       1:   80   21:   40   47:   57
          14       1:   80   21:   40   58:   68
          15       1:   80   21:   40   69:   79
          16       1:   80   21:   40   80:   90
          17       1:   80   41:   60    1:   12
          18       1:   80   41:   60   13:   24
          19       1:   80   41:   60   25:   35
          20       1:   80   41:   60   36:   46
          21       1:   80   41:   60   47:   57
          22       1:   80   41:   60   58:   68
          23       1:   80   41:   60   69:   79
          24       1:   80   41:   60   80:   90
          25       1:   80   61:   80    1:   12
          26       1:   80   61:   80   13:   24
          27       1:   80   61:   80   25:   35
          28       1:   80   61:   80   36:   46
          29       1:   80   61:   80   47:   57
          30       1:   80   61:   80   58:   68
          31       1:   80   61:   80   69:   79
          32       1:   80   61:   80   80:   90

InitMesh: MESH =   160 x   160 x   180 =     4608000
InitMesh: (bp) =    80 x    80 x    90 =      576000
InitMesh: Mesh cutoff (required, used) =   340.000   344.579 Ry
ExtMesh (bp) on 0 =   184 x   124 x   124 =     2829184
New grid distribution:   2
           1      17:   80    1:   32    9:   16
           2       1:   17   48:   80    1:    8
           3      17:   80    1:   32   17:   76
           4      18:   80   40:   46    1:    8
           5       1:   16    1:   31    9:   16
           6       1:   17   40:   47    9:   16
           7       1:   16    1:   30   69:   90
           8      17:   80    1:   31   77:   90
           9      17:   80    1:   32    1:    8
          10      18:   80   40:   46    9:   16
          11      17:   80   33:   39   17:   76
          12       1:   16   33:   39   17:   68
          13       1:   16    1:   32   17:   68
          14       1:   17   48:   80   17:   32
          15       1:   16    1:   31    1:    8
          16       1:   16   31:   39   69:   90
          17      18:   80   47:   80    1:    8
          18      17:   80   33:   39    1:    8
          19       1:   17   40:   47   17:   32
          20       1:   17   47:   80   33:   90
          21      18:   80   40:   47   17:   71
          22       1:   17   40:   46   33:   90
          23       1:   17   40:   47    1:    8
          24      18:   80   40:   46   72:   90
          25      18:   80   47:   80    9:   16
          26       1:   17   48:   80    9:   16
          27      18:   80   48:   80   17:   71
          28       1:   16   32:   39    1:    8
          29      17:   80   32:   39   77:   90
          30      17:   80   33:   39    9:   16
          31       1:   16   32:   39    9:   16
          32      18:   80   47:   80   72:   90
New grid distribution:   3
           1      25:   80    1:   26    1:   13
           2       1:   24    1:   24   14:   30
           3       1:   28   41:   55   15:   30
           4      22:   80    1:   32   31:   77
           5       1:   21    1:   30   31:   74
           6      29:   80   41:   51   14:   30
           7       1:   21    1:   21   75:   90
           8      22:   80    1:   25   78:   90
           9       1:   24    1:   21    1:   13
          10      25:   80    1:   30   14:   30
          11      25:   80   31:   40   14:   30
          12      22:   80   33:   39   31:   77
          13      25:   80   40:   47   31:   77
          14       1:   21   31:   39   31:   74
          15       1:   24   25:   40   14:   30
          16      22:   80   26:   39   78:   90
          17       1:   28   41:   56    1:   14
          18      29:   80   52:   80   14:   30
          19       1:   28   56:   80   15:   30
          20       1:   24   40:   49   31:   70
          21      25:   80   27:   40    1:   13
          22      29:   80   41:   52    1:   13
          23       1:   24   40:   52   71:   90
          24      25:   80   51:   80   78:   90
          25      29:   80   53:   80    1:   13
          26       1:   28   57:   80    1:   14
          27       1:   21   22:   39   75:   90
          28      25:   80   48:   80   31:   77
          29       1:   24   50:   80   31:   70
          30      25:   80   40:   50   78:   90
          31       1:   24   22:   40    1:   13
          32       1:   24   53:   80   71:   90
Setting up quadratic distribution...
ExtMesh (bp) on 0 =   168 x   136 x   120 =     2741760
PhiOnMesh: Number of (b)points on node 0 =                16384
PhiOnMesh: nlist on node 0 =               180249

stepf: Fermi-Dirac step function

siesta: Program's energy decomposition (eV):
siesta: Ebs     =      -556.357576
siesta: Eions   =      1993.464565
siesta: Ena     =       122.932259
siesta: Ekin    =      1459.718799
siesta: Enl     =     -1043.103843
siesta: Eso     =        -0.002356
siesta: Edftu   =         0.000000
siesta: DEna    =       -12.534670
siesta: DUscf   =         6.954820
siesta: DUext   =         0.000000
siesta: Exc     =      -542.442759
siesta: eta*DQ  =         0.000000
siesta: Emadel  =         0.000000
siesta: Emeta   =         0.000000
siesta: Emolmec =         0.000000
siesta: Ekinion =         0.000000
siesta: Eharris =     -2001.679764
siesta: Etot    =     -2001.942314
siesta: FreeEng =     -2001.942314

        iscf     Eharris(eV)        E_KS(eV)     FreeEng(eV)     dDmax    Ef(eV) dHmax(eV)
   scf:    1    -2001.679764    -2001.942314    -2001.942314  0.016246 -5.213184  0.583229
     spin moment: S , {S} =    0.00000   0.00000   0.00000   0.00000
timer: Routine,Calls,Time,% = IterSCF        1       1.398  14.42
   scf:    2    -2001.866048    -2001.925012    -2001.925012  0.009293 -5.053451  1.074477
     spin moment: S , {S} =    0.00000   0.00000  -0.00000   0.00000
   scf:    3    -2001.960821    -2001.951942    -2001.951942  0.006213 -5.064135  0.069737
     spin moment: S , {S} =    0.00000  -0.00000   0.00000  -0.00000
   scf:    4    -2001.952213    -2001.952100    -2001.952100  0.000424 -5.049850  0.019735
     spin moment: S , {S} =    0.00000  -0.00000   0.00000  -0.00000
   scf:    5    -2001.952126    -2001.952116    -2001.952116  0.000181 -5.044539  0.004054
     spin moment: S , {S} =    0.00000  -0.00000  -0.00000   0.00000
   scf:    6    -2001.952118    -2001.952117    -2001.952117  0.000074 -5.043175  0.001117
     spin moment: S , {S} =    0.00000  -0.00000  -0.00000   0.00000
   scf:    7    -2001.952118    -2001.952117    -2001.952117  0.000037 -5.042696  0.000400
     spin moment: S , {S} =    0.00000   0.00000  -0.00000   0.00000
   scf:    8    -2001.952117    -2001.952117    -2001.952117  0.000013 -5.042548  0.000253
     spin moment: S , {S} =    0.00000   0.00000  -0.00000   0.00000
   scf:    9    -2001.952117    -2001.952117    -2001.952117  0.000005 -5.042520  0.000108
     spin moment: S , {S} =    0.00000   0.00000  -0.00000   0.00000
   scf:   10    -2001.952117    -2001.952117    -2001.952117  0.000002 -5.042511  0.000046
     spin moment: S , {S} =    0.00000   0.00000  -0.00000   0.00000
   scf:   11    -2001.952117    -2001.952117    -2001.952117  0.000001 -5.042508  0.000018
     spin moment: S , {S} =    0.00000   0.00000  -0.00000   0.00000
   scf:   12    -2001.952117    -2001.952117    -2001.952117  0.000000 -5.042509  0.000011
     spin moment: S , {S} =    0.00000   0.00000  -0.00000   0.00000
   scf:   13    -2001.952117    -2001.952117    -2001.952117  0.000000 -5.042509  0.000002
     spin moment: S , {S} =    0.00000   0.00000  -0.00000   0.00000
   scf:   14    -2001.952117    -2001.952117    -2001.952117  0.000000 -5.042510  0.000001
     spin moment: S , {S} =    0.00000   0.00000  -0.00000   0.00000

SCF Convergence by DM+H criterion
max |DM_out - DM_in|         :     0.0000000210
max |H_out - H_in|      (eV) :     0.0000005895
SCF cycle converged after 14 iterations

Using DM_out to compute the final energy and forces
No. of atoms with KB's overlaping orbs in proc 0. Max # of overlaps:      17     138

siesta: E_KS(eV) =            -2001.9521

siesta: E_KS - E_eggbox =     -2001.9521
     spin moment: S , {S} =    0.00000   0.00000  -0.00000   0.00000

siesta: Atomic forces (eV/Ang):
     1    0.060427   -0.165392   -0.097483
     2    0.097983    0.258919    0.493761
     3    0.006040   -0.003273    0.006333
     4   -0.011151   -0.076261    0.181312
     5    0.023568   -0.018896    0.064257
     6   -0.006218   -0.008382    0.000812
     7    0.118811   -0.036967    0.122148
     8    3.850148   -3.750625   -0.823917
     9   -0.003700    0.002351    0.011416
    10    0.190660   -0.034824    0.072731
    11   -0.111476   -0.039714    0.088375
    12    0.020366   -0.009455    0.011748
    13   -0.025347    0.098909   -0.021116
    14    0.004659    0.000279    0.004634
    15   -0.106083    0.042941    0.007605
    16    0.111420   -0.102908   -0.074069
    17    0.923888   -0.456886   -1.355885
    18    0.006237    0.023486    0.022835
----------------------------------------
   Tot    5.150230   -4.276697   -1.284504
----------------------------------------
   Max    3.850148
   Res    0.782031    sqrt( Sum f_i^2 / 3N )
----------------------------------------
   Max    3.850148    constrained

Stress tensor Voigt[x,y,z,yz,xz,xy] (kbar):       -0.37        0.50       -0.29        0.07       -0.03       -0.07
(Free)E + p*V (eV/cell)    -2001.8534
Target enthalpy (eV/cell)    -2001.9521

siesta: Stress tensor (static) (eV/Ang**3):
        -0.000233   -0.000046   -0.000019
        -0.000046    0.000311    0.000045
        -0.000019    0.000045   -0.000179

siesta: Pressure (static):          0.05382226  kBar

siesta: Stress tensor (total) (eV/Ang**3):
        -0.000233   -0.000046   -0.000019
        -0.000046    0.000311    0.000045
        -0.000019    0.000045   -0.000179

siesta: Pressure (total):          0.05382226  kBar

siesta: Temp_ion =       0.000 K

                     ====================================
                        Begin MD quenched step =      2
                     ====================================

outcoor: Atomic coordinates (Ang):                          
   -0.70866271    8.71603343    1.79109549   1       1  H
   -0.00114030    8.01755206    1.70517723   2       2  O
    0.83245144    7.73131383    3.21635558   3       3  Si
   -0.08901417    6.95756715    4.12736682   1       4  H
    1.15517407    9.07206971    3.85678576   1       5  H
    2.86943971    6.70571049    2.60740303   3       6  Si
    3.82195108    6.78184896    3.76828305   1       7  H
    2.75376156    5.02180202    2.14997447   2       8  O
    2.28601207    4.52350560    0.52596602   3       9  Si
    3.28937354    3.52332701    0.00109696   1      10  H
    0.97526441    3.78755172    0.62842713   1      11  H
    3.43898974    7.88697303    0.65191907   3      12  Si
    3.01999204    9.33785074    0.71690995   1      13  H
    2.19939425    6.49380266   -0.79642820   3      14  Si
    0.78419172    6.96368165   -0.98695493   1      15  H
    2.84445638    6.34053644   -2.15327480   1      16  H
    5.15230229    7.75152268    0.35680362   2      17  O
    5.41924288    7.93726852   -0.58183306   1      18  H

outcell: Unit cell vectors (Ang):
       14.329350    0.000000    0.000000
        0.000000   14.017284    0.000000
        0.000000    0.000000   14.628130

outcell: Cell vector modules (Ang)   :   14.329350   14.017284   14.628130
outcell: Cell angles (23,13,12) (deg):     90.0000     90.0000     90.0000
outcell: Cell volume (Ang**3)        :   2938.1853
<dSpData1D:S at geom step 2
  <sparsity:sparsity for geom step 2
    nrows_g=154 nrows=8 sparsity=.0497 nnzs=1178, refcount: 8>
  <dData1D:(new from dSpData1D) n=1178, refcount: 1>
refcount: 1>
new_DM -- step:     2
Re-using DM from previous geometries...
Number of DMs in history: 1
 DM extrapolation coefficients: 
1   1.00000
New DM after history re-use:
<dSpData2D:SpM extrapolated using coords
  <sparsity:sparsity for geom step 2
    nrows_g=154 nrows=8 sparsity=.0497 nnzs=1178, refcount: 10>
  <dData2D:(temp array for extrapolation) n=1178 m=8, refcount: 1>
refcount: 1>
     spin moment: S , {S} =    0.00000   0.00000  -0.00000   0.00000
No. of atoms with KB's overlaping orbs in proc 0. Max # of overlaps:      17     138
New grid distribution:   1
           1       1:   80    1:   20    1:   12
           2       1:   80    1:   20   13:   24
           3       1:   80    1:   20   25:   35
           4       1:   80    1:   20   36:   46
           5       1:   80    1:   20   47:   57
           6       1:   80    1:   20   58:   68
           7       1:   80    1:   20   69:   79
           8       1:   80    1:   20   80:   90
           9       1:   80   21:   40    1:   12
          10       1:   80   21:   40   13:   24
          11       1:   80   21:   40   25:   35
          12       1:   80   21:   40   36:   46
          13       1:   80   21:   40   47:   57
          14       1:   80   21:   40   58:   68
          15       1:   80   21:   40   69:   79
          16       1:   80   21:   40   80:   90
          17       1:   80   41:   60    1:   12
          18       1:   80   41:   60   13:   24
          19       1:   80   41:   60   25:   35
          20       1:   80   41:   60   36:   46
          21       1:   80   41:   60   47:   57
          22       1:   80   41:   60   58:   68
          23       1:   80   41:   60   69:   79
          24       1:   80   41:   60   80:   90
          25       1:   80   61:   80    1:   12
          26       1:   80   61:   80   13:   24
          27       1:   80   61:   80   25:   35
          28       1:   80   61:   80   36:   46
          29       1:   80   61:   80   47:   57
          30       1:   80   61:   80   58:   68
          31       1:   80   61:   80   69:   79
          32       1:   80   61:   80   80:   90

InitMesh: MESH =   160 x   160 x   180 =     4608000
InitMesh: (bp) =    80 x    80 x    90 =      576000
InitMesh: Mesh cutoff (required, used) =   340.000   344.579 Ry
ExtMesh (bp) on 0 =   184 x   124 x   124 =     2829184
New grid distribution:   2
           1      17:   80    1:   32    9:   16
           2       1:   17   48:   80    1:    8
           3      17:   80    1:   32   17:   76
           4      18:   80   40:   46    1:    8
           5       1:   16    1:   31    9:   16
           6       1:   17   40:   47    9:   16
           7       1:   16    1:   30   69:   90
           8      17:   80    1:   31   77:   90
           9      17:   80    1:   32    1:    8
          10      18:   80   40:   46    9:   16
          11      17:   80   33:   39   17:   76
          12       1:   16   33:   39   17:   68
          13       1:   16    1:   32   17:   68
          14       1:   17   48:   80   17:   32
          15       1:   16    1:   31    1:    8
          16       1:   16   31:   39   69:   90
          17      18:   80   47:   80    1:    8
          18      17:   80   33:   39    1:    8
          19       1:   17   40:   47   17:   32
          20       1:   17   47:   80   33:   90
          21      18:   80   40:   47   17:   71
          22       1:   17   40:   46   33:   90
          23       1:   17   40:   47    1:    8
          24      18:   80   40:   46   72:   90
          25      18:   80   47:   80    9:   16
          26       1:   17   48:   80    9:   16
          27      18:   80   48:   80   17:   71
          28       1:   16   32:   39    1:    8
          29      17:   80   32:   39   77:   90
          30      17:   80   33:   39    9:   16
          31       1:   16   32:   39    9:   16
          32      18:   80   47:   80   72:   90
New grid distribution:   3
           1      25:   80    1:   26    1:   13
           2       1:   24    1:   24   14:   30
           3       1:   28   41:   55   15:   30
           4      22:   80    1:   32   31:   77
           5       1:   21    1:   30   31:   74
           6      29:   80   41:   51   14:   30
           7       1:   21    1:   21   75:   90
           8      22:   80    1:   25   78:   90
           9       1:   24    1:   21    1:   13
          10      25:   80    1:   30   14:   30
          11      25:   80   31:   40   14:   30
          12      22:   80   33:   39   31:   77
          13      25:   80   40:   47   31:   77
          14       1:   21   31:   39   31:   74
          15       1:   24   25:   40   14:   30
          16      22:   80   26:   39   78:   90
          17       1:   28   41:   56    1:   14
          18      29:   80   52:   80   14:   30
          19       1:   28   56:   80   15:   30
          20       1:   24   40:   49   31:   70
          21      25:   80   27:   40    1:   13
          22      29:   80   41:   52    1:   13
          23       1:   24   40:   52   71:   90
          24      25:   80   51:   80   78:   90
          25      29:   80   53:   80    1:   13
          26       1:   28   57:   80    1:   14
          27       1:   21   22:   39   75:   90
          28      25:   80   48:   80   31:   77
          29       1:   24   50:   80   31:   70
          30      25:   80   40:   50   78:   90
          31       1:   24   22:   40    1:   13
          32       1:   24   53:   80   71:   90
Setting up quadratic distribution...
ExtMesh (bp) on 0 =   168 x   136 x   120 =     2741760
PhiOnMesh: Number of (b)points on node 0 =                16384
PhiOnMesh: nlist on node 0 =               180254

        iscf     Eharris(eV)        E_KS(eV)     FreeEng(eV)     dDmax    Ef(eV) dHmax(eV)
   scf:    1    -2001.955536    -2001.954851    -2001.954851  0.000156 -5.042594  0.004697
     spin moment: S , {S} =    0.00000   0.00000  -0.00000   0.00000
   scf:    2    -2001.954843    -2001.954849    -2001.954849  0.000099 -5.046136  0.008453
     spin moment: S , {S} =    0.00000   0.00000  -0.00000   0.00000
   scf:    3    -2001.954853    -2001.954852    -2001.954852  0.000062 -5.043968  0.000786
     spin moment: S , {S} =    0.00000   0.00000  -0.00000   0.00000
   scf:    4    -2001.954852    -2001.954852    -2001.954852  0.000005 -5.044107  0.000237
     spin moment: S , {S} =    0.00000   0.00000  -0.00000   0.00000
   scf:    5    -2001.954852    -2001.954852    -2001.954852  0.000002 -5.044180  0.000031
     spin moment: S , {S} =    0.00000   0.00000  -0.00000   0.00000
   scf:    6    -2001.954852    -2001.954852    -2001.954852  0.000001 -5.044191  0.000013
     spin moment: S , {S} =    0.00000   0.00000  -0.00000   0.00000
   scf:    7    -2001.954852    -2001.954852    -2001.954852  0.000000 -5.044198  0.000005
     spin moment: S , {S} =    0.00000   0.00000  -0.00000   0.00000
   scf:    8    -2001.954852    -2001.954852    -2001.954852  0.000000 -5.044199  0.000002
     spin moment: S , {S} =    0.00000   0.00000  -0.00000   0.00000
   scf:    9    -2001.954852    -2001.954852    -2001.954852  0.000000 -5.044199  0.000001
     spin moment: S , {S} =    0.00000   0.00000  -0.00000   0.00000
   scf:   10    -2001.954852    -2001.954852    -2001.954852  0.000000 -5.044199  0.000000
     spin moment: S , {S} =    0.00000   0.00000  -0.00000   0.00000

SCF Convergence by DM+H criterion
max |DM_out - DM_in|         :     0.0000000189
max |H_out - H_in|      (eV) :     0.0000004179
SCF cycle converged after 10 iterations

Using DM_out to compute the final energy and forces
No. of atoms with KB's overlaping orbs in proc 0. Max # of overlaps:      17     138

siesta: E_KS(eV) =            -2001.9549
     spin moment: S , {S} =    0.00000   0.00000  -0.00000   0.00000

siesta: Atomic forces (eV/Ang):
     1    0.053622   -0.159567   -0.096321
     2    0.102480    0.255163    0.484765
     3    0.004332   -0.004700    0.008668
     4   -0.009466   -0.075252    0.179301
     5    0.023570   -0.019159    0.064090
     6   -0.003839   -0.012770    0.002066
     7    0.116665   -0.037091    0.119700
     8    3.861990   -3.779732   -0.826328
     9   -0.003563   -0.001058    0.010168
    10    0.188998   -0.033970    0.072591
    11   -0.109063   -0.038838    0.087984
    12    0.021794   -0.007983    0.011080
    13   -0.024729    0.097298   -0.021054
    14    0.003673    0.000497    0.002468
    15   -0.103960    0.042430    0.007623
    16    0.110261   -0.102667   -0.072111
    17    0.938288   -0.465591   -1.365969
    18    0.007745    0.024657    0.017007
----------------------------------------
   Tot    5.178797   -4.318335   -1.314273
----------------------------------------
   Max    3.861990
   Res    0.786272    sqrt( Sum f_i^2 / 3N )
----------------------------------------
   Max    3.861990    constrained

Stress tensor Voigt[x,y,z,yz,xz,xy] (kbar):       -0.37        0.50       -0.29        0.07       -0.03       -0.07
(Free)E + p*V (eV/cell)    -2001.8595
Target enthalpy (eV/cell)    -2001.9549

siesta: Stress tensor (static) (eV/Ang**3):
        -0.000231   -0.000046   -0.000019
        -0.000046    0.000313    0.000045
        -0.000019    0.000045   -0.000179

siesta: Pressure (static):          0.05200973  kBar

siesta: Stress tensor (total) (eV/Ang**3):
        -0.000231   -0.000046   -0.000019
        -0.000046    0.000313    0.000045
        -0.000019    0.000045   -0.000179

siesta: Pressure (total):          0.05200973  kBar

siesta: Temp_ion =       1.247 K

                     ====================================
                        Begin MD quenched step =      3
                     ====================================

outcoor: Atomic coordinates (Ang):                          
   -0.70846393    8.71545902    1.79075154   1       1  H
   -0.00111763    8.01760962    1.70528674   2       2  O
    0.83245206    7.73131329    3.21635659   3       3  Si
   -0.08904983    6.95729831    4.12800690   1       4  H
    1.15525790    9.07200188    3.85701390   1       5  H
    2.86943912    6.70570905    2.60740325   3       6  Si
    3.82236855    6.78171719    3.76871167   1       7  H
    2.75462772    5.02095561    2.14978913   2       8  O
    2.28601161    4.52350556    0.52596737   3       9  Si
    3.29004770    3.52320519    0.00135531   1      10  H
    0.97487366    3.78741255    0.62874052   1      11  H
    3.43899246    7.88697194    0.65192052   3      12  Si
    3.01990336    9.33819870    0.71683499   1      13  H
    2.19939476    6.49380272   -0.79642779   3      14  Si
    0.78381946    6.96383316   -0.98692784   1      15  H
    2.84484991    6.34017101   -2.15353359   1      16  H
    5.15251187    7.75141880    0.35649770   2      17  O
    5.41926864    7.93735483   -0.58176566   1      18  H

outcell: Unit cell vectors (Ang):
       14.329350    0.000000    0.000000
        0.000000   14.017284    0.000000
        0.000000    0.000000   14.628130

outcell: Cell vector modules (Ang)   :   14.329350   14.017284   14.628130
outcell: Cell angles (23,13,12) (deg):     90.0000     90.0000     90.0000
outcell: Cell volume (Ang**3)        :   2938.1853
<dSpData1D:S at geom step 3
  <sparsity:sparsity for geom step 3
    nrows_g=154 nrows=8 sparsity=.0497 nnzs=1178, refcount: 8>
  <dData1D:(new from dSpData1D) n=1178, refcount: 1>
refcount: 1>
new_DM -- step:     3
Re-using DM from previous geometries...
Number of DMs in history: 2
  Estimated Rank of xi*xj matrix:            2
 matrix rank:            2
Singular values: 
  1.4142      1.4142     0.91278E-06
 DM extrapolation coefficients: 
1   0.50000
2   0.50000
New DM after history re-use:
<dSpData2D:SpM extrapolated using coords
  <sparsity:sparsity for geom step 3
    nrows_g=154 nrows=8 sparsity=.0497 nnzs=1178, refcount: 11>
  <dData2D:(temp array for extrapolation) n=1178 m=8, refcount: 1>
refcount: 1>
     spin moment: S , {S} =    0.00000   0.00000  -0.00000   0.00000
No. of atoms with KB's overlaping orbs in proc 0. Max # of overlaps:      17     138
New grid distribution:   1
           1       1:   80    1:   20    1:   12
           2       1:   80    1:   20   13:   24
           3       1:   80    1:   20   25:   35
           4       1:   80    1:   20   36:   46
           5       1:   80    1:   20   47:   57
           6       1:   80    1:   20   58:   68
           7       1:   80    1:   20   69:   79
           8       1:   80    1:   20   80:   90
           9       1:   80   21:   40    1:   12
          10       1:   80   21:   40   13:   24
          11       1:   80   21:   40   25:   35
          12       1:   80   21:   40   36:   46
          13       1:   80   21:   40   47:   57
          14       1:   80   21:   40   58:   68
          15       1:   80   21:   40   69:   79
          16       1:   80   21:   40   80:   90
          17       1:   80   41:   60    1:   12
          18       1:   80   41:   60   13:   24
          19       1:   80   41:   60   25:   35
          20       1:   80   41:   60   36:   46
          21       1:   80   41:   60   47:   57
          22       1:   80   41:   60   58:   68
          23       1:   80   41:   60   69:   79
          24       1:   80   41:   60   80:   90
          25       1:   80   61:   80    1:   12
          26       1:   80   61:   80   13:   24
          27       1:   80   61:   80   25:   35
          28       1:   80   61:   80   36:   46
          29       1:   80   61:   80   47:   57
          30       1:   80   61:   80   58:   68
          31       1:   80   61:   80   69:   79
          32       1:   80   61:   80   80:   90

InitMesh: MESH =   160 x   160 x   180 =     4608000
InitMesh: (bp) =    80 x    80 x    90 =      576000
InitMesh: Mesh cutoff (required, used) =   340.000   344.579 Ry
ExtMesh (bp) on 0 =   184 x   124 x   124 =     2829184
New grid distribution:   2
           1      17:   80    1:   32    9:   16
           2       1:   17   48:   80    1:    8
           3      17:   80    1:   32   17:   76
           4      18:   80   40:   46    1:    8
           5       1:   16    1:   31    9:   16
           6       1:   17   40:   47    9:   16
           7       1:   16    1:   30   69:   90
           8      17:   80    1:   31   77:   90
           9      17:   80    1:   32    1:    8
          10      18:   80   40:   46    9:   16
          11      17:   80   33:   39   17:   76
          12       1:   16   33:   39   17:   68
          13       1:   16    1:   32   17:   68
          14       1:   17   48:   80   17:   32
          15       1:   16    1:   31    1:    8
          16       1:   16   31:   39   69:   90
          17      18:   80   47:   80    1:    8
          18      17:   80   33:   39    1:    8
          19       1:   17   40:   47   17:   32
          20       1:   17   47:   80   33:   90
          21      18:   80   40:   47   17:   71
          22       1:   17   40:   46   33:   90
          23       1:   17   40:   47    1:    8
          24      18:   80   40:   46   72:   90
          25      18:   80   47:   80    9:   16
          26       1:   17   48:   80    9:   16
          27      18:   80   48:   80   17:   71
          28       1:   16   32:   39    1:    8
          29      17:   80   32:   39   77:   90
          30      17:   80   33:   39    9:   16
          31       1:   16   32:   39    9:   16
          32      18:   80   47:   80   72:   90
New grid distribution:   3
           1      25:   80    1:   26    1:   13
           2       1:   24    1:   24   14:   30
           3       1:   28   41:   55   15:   30
           4      22:   80    1:   32   31:   77
           5       1:   21    1:   30   31:   74
           6      29:   80   41:   51   14:   30
           7       1:   21    1:   21   75:   90
           8      22:   80    1:   25   78:   90
           9       1:   24    1:   21    1:   13
          10      25:   80    1:   30   14:   30
          11      25:   80   31:   40   14:   30
          12      22:   80   33:   39   31:   77
          13      25:   80   40:   47   31:   77
          14       1:   21   31:   39   31:   74
          15       1:   24   25:   40   14:   30
          16      22:   80   26:   39   78:   90
          17       1:   28   41:   56    1:   14
          18      29:   80   52:   80   14:   30
          19       1:   28   56:   80   15:   30
          20       1:   24   40:   49   31:   70
          21      25:   80   27:   40    1:   13
          22      29:   80   41:   52    1:   13
          23       1:   24   40:   52   71:   90
          24      25:   80   51:   80   78:   90
          25      29:   80   53:   80    1:   13
          26       1:   28   57:   80    1:   14
          27       1:   21   22:   39   75:   90
          28      25:   80   48:   80   31:   77
          29       1:   24   50:   80   31:   70
          30      25:   80   40:   50   78:   90
          31       1:   24   22:   40    1:   13
          32       1:   24   53:   80   71:   90
Setting up quadratic distribution...
ExtMesh (bp) on 0 =   168 x   136 x   120 =     2741760
PhiOnMesh: Number of (b)points on node 0 =                16384
PhiOnMesh: nlist on node 0 =               180272

        iscf     Eharris(eV)        E_KS(eV)     FreeEng(eV)     dDmax    Ef(eV) dHmax(eV)
   scf:    1    -2001.965633    -2001.963111    -2001.963111  0.000534 -5.043696  0.016329
     spin moment: S , {S} =    0.00000   0.00000  -0.00000   0.00000
   scf:    2    -2001.963016    -2001.963088    -2001.963088  0.000342 -5.055991  0.029409
     spin moment: S , {S} =    0.00000   0.00000   0.00000   0.00000
   scf:    3    -2001.963133    -2001.963121    -2001.963121  0.000215 -5.048461  0.002702
     spin moment: S , {S} =    0.00000   0.00000  -0.00000   0.00000
   scf:    4    -2001.963122    -2001.963122    -2001.963122  0.000016 -5.048942  0.000816
     spin moment: S , {S} =    0.00000   0.00000  -0.00000   0.00000
   scf:    5    -2001.963122    -2001.963122    -2001.963122  0.000007 -5.049192  0.000108
     spin moment: S , {S} =    0.00000   0.00000  -0.00000   0.00000
   scf:    6    -2001.963122    -2001.963122    -2001.963122  0.000002 -5.049231  0.000045
     spin moment: S , {S} =    0.00000   0.00000  -0.00000   0.00000
   scf:    7    -2001.963122    -2001.963122    -2001.963122  0.000001 -5.049255  0.000016
     spin moment: S , {S} =    0.00000   0.00000  -0.00000   0.00000
   scf:    8    -2001.963122    -2001.963122    -2001.963122  0.000000 -5.049258  0.000008
     spin moment: S , {S} =    0.00000   0.00000  -0.00000   0.00000
   scf:    9    -2001.963122    -2001.963122    -2001.963122  0.000000 -5.049259  0.000004
     spin moment: S , {S} =    0.00000   0.00000  -0.00000   0.00000
   scf:   10    -2001.963122    -2001.963122    -2001.963122  0.000000 -5.049259  0.000001
     spin moment: S , {S} =    0.00000   0.00000  -0.00000   0.00000
   scf:   11    -2001.963122    -2001.963122    -2001.963122  0.000000 -5.049259  0.000001
     spin moment: S , {S} =    0.00000   0.00000  -0.00000   0.00000

SCF Convergence by DM+H criterion
max |DM_out - DM_in|         :     0.0000000246
max |H_out - H_in|      (eV) :     0.0000005858
SCF cycle converged after 11 iterations

Using DM_out to compute the final energy and forces
No. of atoms with KB's overlaping orbs in proc 0. Max # of overlaps:      17     138

siesta: E_KS(eV) =            -2001.9631
     spin moment: S , {S} =    0.00000   0.00000  -0.00000   0.00000

siesta: Atomic forces (eV/Ang):
     1    0.033916   -0.142709   -0.092905
     2    0.115123    0.244456    0.458058
     3   -0.000737   -0.008923    0.015589
     4   -0.004459   -0.072315    0.173289
     5    0.023590   -0.020001    0.063553
     6    0.003241   -0.025991    0.005707
     7    0.110352   -0.037393    0.112528
     8    3.885077   -3.856135   -0.830991
     9   -0.003089   -0.011201    0.006457
    10    0.183954   -0.031412    0.072128
    11   -0.101833   -0.036181    0.086871
    12    0.026125   -0.003643    0.009052
    13   -0.022878    0.092522   -0.020815
    14    0.000758    0.001132   -0.003926
    15   -0.097748    0.040914    0.007639
    16    0.106819   -0.101939   -0.066337
    17    0.982235   -0.492060   -1.396695
    18    0.012090    0.028070    0.000059
----------------------------------------
   Tot    5.252537   -4.432810   -1.400739
----------------------------------------
   Max    3.885077
   Res    0.796991    sqrt( Sum f_i^2 / 3N )
----------------------------------------
   Max    3.885077    constrained

Stress tensor Voigt[x,y,z,yz,xz,xy] (kbar):       -0.36        0.51       -0.29        0.07       -0.03       -0.07
(Free)E + p*V (eV/cell)    -2001.8764
Target enthalpy (eV/cell)    -2001.9631

siesta: Stress tensor (static) (eV/Ang**3):
        -0.000226   -0.000043   -0.000020
        -0.000043    0.000318    0.000046
        -0.000020    0.000046   -0.000179

siesta: Pressure (static):          0.04630161  kBar

siesta: Stress tensor (total) (eV/Ang**3):
        -0.000227   -0.000042   -0.000019
        -0.000042    0.000317    0.000046
        -0.000019    0.000046   -0.000179

siesta: Pressure (total):          0.04729025  kBar

siesta: Temp_ion =       5.014 K

                     ====================================
                        Begin MD quenched step =      4
                     ====================================

outcoor: Atomic coordinates (Ang):                          
   -0.70818474    8.71454623    1.79018731   1       1  H
   -0.00107772    8.01770378    1.70546480   2       2  O
    0.83245203    7.73131199    3.21635893   3       3  Si
   -0.08909607    6.95685801    4.12905786   1       4  H
    1.15539766    9.07188663    3.85739272   1       5  H
    2.86943926    6.70570538    2.60740394   3       6  Si
    3.82304768    6.78149675    3.76940711   1       7  H
    2.75607538    5.01953205    2.14947942   2       8  O
    2.28601089    4.52350456    0.52596927   3       9  Si
    3.29115801    3.52300888    0.00178466   1      10  H
    0.97424146    3.78718759    0.62925988   1      11  H
    3.43899742    7.88697055    0.65192273   3      12  Si
    3.01976043    9.33876603    0.71671069   1      13  H
    2.19939534    6.49380287   -0.79642796   3      14  Si
    0.78321543    6.96408168   -0.98688264   1      15  H
    2.84549671    6.33956388   -2.15394967   1      16  H
    5.15286846    7.75124127    0.35598274   2      17  O
    5.41932306    7.93750769   -0.58169813   1      18  H

outcell: Unit cell vectors (Ang):
       14.329350    0.000000    0.000000
        0.000000   14.017284    0.000000
        0.000000    0.000000   14.628130

outcell: Cell vector modules (Ang)   :   14.329350   14.017284   14.628130
outcell: Cell angles (23,13,12) (deg):     90.0000     90.0000     90.0000
outcell: Cell volume (Ang**3)        :   2938.1853
<dSpData1D:S at geom step 4
  <sparsity:sparsity for geom step 4
    nrows_g=154 nrows=8 sparsity=.0497 nnzs=1178, refcount: 8>
  <dData1D:(new from dSpData1D) n=1178, refcount: 1>
refcount: 1>
new_DM -- step:     4
Re-using DM from previous geometries...
Number of DMs in history: 3
  Estimated Rank of xi*xj matrix:            3
 matrix rank:            3
Singular values: 
  1.7322      1.7319     0.15670E-04 0.10707E-09
 DM extrapolation coefficients: 
1  -1.06588
2  -0.22338
3   2.28926
New DM after history re-use:
<dSpData2D:SpM extrapolated using coords
  <sparsity:sparsity for geom step 4
    nrows_g=154 nrows=8 sparsity=.0497 nnzs=1178, refcount: 12>
  <dData2D:(temp array for extrapolation) n=1178 m=8, refcount: 1>
refcount: 1>
     spin moment: S , {S} =    0.00000   0.00000  -0.00000   0.00000
No. of atoms with KB's overlaping orbs in proc 0. Max # of overlaps:      17     138
New grid distribution:   1
           1       1:   80    1:   20    1:   12
           2       1:   80    1:   20   13:   24
           3       1:   80    1:   20   25:   35
           4       1:   80    1:   20   36:   46
           5       1:   80    1:   20   47:   57
           6       1:   80    1:   20   58:   68
           7       1:   80    1:   20   69:   79
           8       1:   80    1:   20   80:   90
           9       1:   80   21:   40    1:   12
          10       1:   80   21:   40   13:   24
          11       1:   80   21:   40   25:   35
          12       1:   80   21:   40   36:   46
          13       1:   80   21:   40   47:   57
          14       1:   80   21:   40   58:   68
          15       1:   80   21:   40   69:   79
          16       1:   80   21:   40   80:   90
          17       1:   80   41:   60    1:   12
          18       1:   80   41:   60   13:   24
          19       1:   80   41:   60   25:   35
          20       1:   80   41:   60   36:   46
          21       1:   80   41:   60   47:   57
          22       1:   80   41:   60   58:   68
          23       1:   80   41:   60   69:   79
          24       1:   80   41:   60   80:   90
          25       1:   80   61:   80    1:   12
          26       1:   80   61:   80   13:   24
          27       1:   80   61:   80   25:   35
          28       1:   80   61:   80   36:   46
          29       1:   80   61:   80   47:   57
          30       1:   80   61:   80   58:   68
          31       1:   80   61:   80   69:   79
          32       1:   80   61:   80   80:   90

InitMesh: MESH =   160 x   160 x   180 =     4608000
InitMesh: (bp) =    80 x    80 x    90 =      576000
InitMesh: Mesh cutoff (required, used) =   340.000   344.579 Ry
ExtMesh (bp) on 0 =   184 x   124 x   124 =     2829184
New grid distribution:   2
           1      17:   80    1:   32    9:   16
           2       1:   17   48:   80    1:    8
           3      17:   80    1:   32   17:   76
           4      18:   80   40:   46    1:    8
           5       1:   16    1:   31    9:   16
           6       1:   17   40:   47    9:   16
           7       1:   16    1:   30   69:   90
           8      17:   80    1:   31   77:   90
           9      17:   80    1:   32    1:    8
          10      18:   80   40:   46    9:   16
          11      17:   80   33:   39   17:   76
          12       1:   16   33:   39   17:   68
          13       1:   16    1:   32   17:   68
          14       1:   17   48:   80   17:   32
          15       1:   16    1:   31    1:    8
          16       1:   16   31:   39   69:   90
          17      18:   80   47:   80    1:    8
          18      17:   80   33:   39    1:    8
          19       1:   17   40:   47   17:   32
          20       1:   17   47:   80   33:   90
          21      18:   80   40:   47   17:   71
          22       1:   17   40:   46   33:   90
          23       1:   17   40:   47    1:    8
          24      18:   80   40:   46   72:   90
          25      18:   80   47:   80    9:   16
          26       1:   17   48:   80    9:   16
          27      18:   80   48:   80   17:   71
          28       1:   16   32:   39    1:    8
          29      17:   80   32:   39   77:   90
          30      17:   80   33:   39    9:   16
          31       1:   16   32:   39    9:   16
          32      18:   80   47:   80   72:   90
New grid distribution:   3
           1      25:   80    1:   26    1:   13
           2       1:   24    1:   24   14:   30
           3       1:   28   41:   55   15:   30
           4      22:   80    1:   32   31:   77
           5       1:   21    1:   30   31:   74
           6      29:   80   41:   51   14:   30
           7       1:   21    1:   21   75:   90
           8      22:   80    1:   25   78:   90
           9       1:   24    1:   21    1:   13
          10      25:   80    1:   30   14:   30
          11      25:   80   31:   40   14:   30
          12      22:   80   33:   39   31:   77
          13      25:   80   40:   47   31:   77
          14       1:   21   31:   39   31:   74
          15       1:   24   25:   40   14:   30
          16      22:   80   26:   39   78:   90
          17       1:   28   41:   56    1:   14
          18      29:   80   52:   80   14:   30
          19       1:   28   56:   80   15:   30
          20       1:   24   40:   49   31:   70
          21      25:   80   27:   40    1:   13
          22      29:   80   41:   52    1:   13
          23       1:   24   40:   52   71:   90
          24      25:   80   51:   80   78:   90
          25      29:   80   53:   80    1:   13
          26       1:   28   57:   80    1:   14
          27       1:   21   22:   39   75:   90
          28      25:   80   48:   80   31:   77
          29       1:   24   50:   80   31:   70
          30      25:   80   40:   50   78:   90
          31       1:   24   22:   40    1:   13
          32       1:   24   53:   80   71:   90
Setting up quadratic distribution...
ExtMesh (bp) on 0 =   168 x   136 x   120 =     2741760
PhiOnMesh: Number of (b)points on node 0 =                16384
PhiOnMesh: nlist on node 0 =               180299

        iscf     Eharris(eV)        E_KS(eV)     FreeEng(eV)     dDmax    Ef(eV) dHmax(eV)
   scf:    1    -2001.977521    -2001.977055    -2001.977055  0.000033 -5.057761  0.000622
     spin moment: S , {S} =    0.00000   0.00000   0.00000   0.00000
   scf:    2    -2001.977055    -2001.977055    -2001.977055  0.000011 -5.057592  0.000720
     spin moment: S , {S} =    0.00000  -0.00000   0.00000   0.00000
   scf:    3    -2001.977055    -2001.977055    -2001.977055  0.000007 -5.057675  0.000104
     spin moment: S , {S} =    0.00000  -0.00000   0.00000   0.00000
   scf:    4    -2001.977055    -2001.977055    -2001.977055  0.000001 -5.057659  0.000026
     spin moment: S , {S} =    0.00000  -0.00000   0.00000   0.00000
   scf:    5    -2001.977055    -2001.977055    -2001.977055  0.000000 -5.057650  0.000003
     spin moment: S , {S} =    0.00000  -0.00000   0.00000   0.00000
   scf:    6    -2001.977055    -2001.977055    -2001.977055  0.000000 -5.057649  0.000001
     spin moment: S , {S} =    0.00000  -0.00000   0.00000   0.00000
   scf:    7    -2001.977055    -2001.977055    -2001.977055  0.000000 -5.057649  0.000000
     spin moment: S , {S} =    0.00000  -0.00000   0.00000   0.00000

SCF Convergence by DM+H criterion
max |DM_out - DM_in|         :     0.0000000424
max |H_out - H_in|      (eV) :     0.0000002650
SCF cycle converged after 7 iterations

Using DM_out to compute the final energy and forces
No. of atoms with KB's overlaping orbs in proc 0. Max # of overlaps:      17     138

siesta: E_KS(eV) =            -2001.9771
     spin moment: S , {S} =    0.00000  -0.00000   0.00000   0.00000

siesta: Atomic forces (eV/Ang):
     1    0.003296   -0.116597   -0.087478
     2    0.133417    0.228530    0.414719
     3   -0.008992   -0.015776    0.026839
     4    0.003623   -0.067701    0.163429
     5    0.023660   -0.021374    0.062696
     6    0.014839   -0.048199    0.011393
     7    0.100001   -0.037940    0.100951
     8    3.880794   -3.943714   -0.827871
     9   -0.002085   -0.027822    0.000405
    10    0.175515   -0.027484    0.071119
    11   -0.090151   -0.031855    0.084926
    12    0.033492    0.003339    0.005595
    13   -0.019853    0.084723   -0.020412
    14   -0.003957    0.002131   -0.014245
    15   -0.087699    0.038421    0.007660
    16    0.101229   -0.100743   -0.056973
    17    1.058819   -0.537643   -1.449386
    18    0.018824    0.033459   -0.026443
----------------------------------------
   Tot    5.334772   -4.586245   -1.533074
----------------------------------------
   Max    3.943714
   Res    0.807749    sqrt( Sum f_i^2 / 3N )
----------------------------------------
   Max    3.943714    constrained

Stress tensor Voigt[x,y,z,yz,xz,xy] (kbar):       -0.36        0.52       -0.29        0.07       -0.03       -0.06
(Free)E + p*V (eV/cell)    -2001.9009
Target enthalpy (eV/cell)    -2001.9771

siesta: Stress tensor (static) (eV/Ang**3):
        -0.000219   -0.000038   -0.000021
        -0.000038    0.000326    0.000047
        -0.000021    0.000047   -0.000178

siesta: Pressure (static):          0.03756956  kBar

siesta: Stress tensor (total) (eV/Ang**3):
        -0.000222   -0.000035   -0.000020
        -0.000035    0.000323    0.000046
        -0.000020    0.000046   -0.000179

siesta: Pressure (total):          0.04154605  kBar

siesta: Temp_ion =      11.353 K

                     ====================================
                        Begin MD quenched step =      5
                     ====================================

outcoor: Atomic coordinates (Ang):                          
   -0.70789773    8.71335698    1.78941566   1       1  H
   -0.00101785    8.01783214    1.70570494   2       2  O
    0.83245123    7.73130934    3.21636355   3       3  Si
   -0.08909177    6.95625719    4.13049632   1       4  H
    1.15559351    9.07172070    3.85792020   1       5  H
    2.86944066    6.70569761    2.60740561   3       6  Si
    3.82396391    6.78118637    3.77034190   1       7  H
    2.75810388    5.01751822    2.14904580   2       8  O
    2.28600998    4.52350118    0.52597121   3       9  Si
    3.29268449    3.52274740    0.00238265   1      10  H
    0.97339550    3.78688711    0.62998060   1      11  H
    3.43900523    7.88697069    0.65192543   3      12  Si
    3.01957043    9.33953424    0.71653798   1      13  H
    2.19939517    6.49380320   -0.79642934   3      14  Si
    0.78240347    6.96442130   -0.98681928   1      15  H
    2.84638353    6.33871788   -2.15450083   1      16  H
    5.15338352    7.75098328    0.35525084   2      17  O
    5.41942212    7.93773988   -0.58172947   1      18  H

outcell: Unit cell vectors (Ang):
       14.329350    0.000000    0.000000
        0.000000   14.017284    0.000000
        0.000000    0.000000   14.628130

outcell: Cell vector modules (Ang)   :   14.329350   14.017284   14.628130
outcell: Cell angles (23,13,12) (deg):     90.0000     90.0000     90.0000
outcell: Cell volume (Ang**3)        :   2938.1853
<dSpData1D:S at geom step 5
  <sparsity:sparsity for geom step 5
    nrows_g=154 nrows=8 sparsity=.0497 nnzs=1178, refcount: 8>
  <dData1D:(new from dSpData1D) n=1178, refcount: 1>
refcount: 1>
new_DM -- step:     5
Re-using DM from previous geometries...
Number of DMs in history: 3
  Estimated Rank of xi*xj matrix:            3
 matrix rank:            3
Singular values: 
  1.7324      1.7317     0.58016E-04 0.26906E-08
 DM extrapolation coefficients: 
1  -0.92384
2   0.11017
3   1.81368
New DM after history re-use:
<dSpData2D:SpM extrapolated using coords
  <sparsity:sparsity for geom step 5
    nrows_g=154 nrows=8 sparsity=.0497 nnzs=1178, refcount: 12>
  <dData2D:(temp array for extrapolation) n=1178 m=8, refcount: 1>
refcount: 1>
     spin moment: S , {S} =    0.00000  -0.00000   0.00000  -0.00000
No. of atoms with KB's overlaping orbs in proc 0. Max # of overlaps:      17     138
New grid distribution:   1
           1       1:   80    1:   20    1:   12
           2       1:   80    1:   20   13:   24
           3       1:   80    1:   20   25:   35
           4       1:   80    1:   20   36:   46
           5       1:   80    1:   20   47:   57
           6       1:   80    1:   20   58:   68
           7       1:   80    1:   20   69:   79
           8       1:   80    1:   20   80:   90
           9       1:   80   21:   40    1:   12
          10       1:   80   21:   40   13:   24
          11       1:   80   21:   40   25:   35
          12       1:   80   21:   40   36:   46
          13       1:   80   21:   40   47:   57
          14       1:   80   21:   40   58:   68
          15       1:   80   21:   40   69:   79
          16       1:   80   21:   40   80:   90
          17       1:   80   41:   60    1:   12
          18       1:   80   41:   60   13:   24
          19       1:   80   41:   60   25:   35
          20       1:   80   41:   60   36:   46
          21       1:   80   41:   60   47:   57
          22       1:   80   41:   60   58:   68
          23       1:   80   41:   60   69:   79
          24       1:   80   41:   60   80:   90
          25       1:   80   61:   80    1:   12
          26       1:   80   61:   80   13:   24
          27       1:   80   61:   80   25:   35
          28       1:   80   61:   80   36:   46
          29       1:   80   61:   80   47:   57
          30       1:   80   61:   80   58:   68
          31       1:   80   61:   80   69:   79
          32       1:   80   61:   80   80:   90

InitMesh: MESH =   160 x   160 x   180 =     4608000
InitMesh: (bp) =    80 x    80 x    90 =      576000
InitMesh: Mesh cutoff (required, used) =   340.000   344.579 Ry
ExtMesh (bp) on 0 =   184 x   124 x   124 =     2829184
New grid distribution:   2
           1      17:   80    1:   32    9:   16
           2       1:   17   48:   80    1:    8
           3      17:   80    1:   32   17:   76
           4      18:   80   40:   46    1:    8
           5       1:   16    1:   31    9:   16
           6       1:   17   40:   47    9:   16
           7       1:   16    1:   30   69:   90
           8      17:   80    1:   31   77:   90
           9      17:   80    1:   32    1:    8
          10      18:   80   40:   46    9:   16
          11      17:   80   33:   39   17:   76
          12       1:   16   33:   39   17:   68
          13       1:   16    1:   32   17:   68
          14       1:   17   48:   80   17:   32
          15       1:   16    1:   31    1:    8
          16       1:   16   31:   39   69:   90
          17      18:   80   47:   80    1:    8
          18      17:   80   33:   39    1:    8
          19       1:   17   40:   47   17:   32
          20       1:   17   47:   80   33:   90
          21      18:   80   40:   47   17:   71
          22       1:   17   40:   46   33:   90
          23       1:   17   40:   47    1:    8
          24      18:   80   40:   46   72:   90
          25      18:   80   47:   80    9:   16
          26       1:   17   48:   80    9:   16
          27      18:   80   48:   80   17:   71
          28       1:   16   32:   39    1:    8
          29      17:   80   32:   39   77:   90
          30      17:   80   33:   39    9:   16
          31       1:   16   32:   39    9:   16
          32      18:   80   47:   80   72:   90
New grid distribution:   3
           1      25:   80    1:   26    1:   13
[...]

Using DM_out to compute the final energy and forces
No. of atoms with KB's overlaping orbs in proc 0. Max # of overlaps:      17     138

siesta: E_KS(eV) =            -2002.4854
     spin moment: S , {S} =    0.00000  -0.00000  -0.00000   0.00000

siesta: Atomic forces (eV/Ang):
     1   -0.000045    0.000022   -0.000221
     2    0.000140    0.000190   -0.000460
     3   -0.001096    0.000084    0.001086
     4   -0.000368    0.000048    0.000160
     5   -0.000079   -0.000068   -0.000014
     6   -0.001956   -0.000041    0.005214
     7    0.000113   -0.000029    0.000235
     8    0.000061   -0.000162    0.000077
     9   -0.000250    0.000163    0.000328
    10   -0.000013    0.000100    0.000040
    11    0.000052   -0.000089    0.000015
    12   -0.000716   -0.000368    0.001258
    13   -0.000016    0.000131   -0.000008
    14    0.000017   -0.002632    0.000367
    15    0.000005   -0.000011   -0.000007
    16    0.000001   -0.000009   -0.000005
    17    0.000042    0.000155   -0.000170
    18   -0.000049   -0.000021    0.000062
----------------------------------------
   Tot   -0.004159   -0.002536    0.007954
----------------------------------------
   Max    0.005214
   Res    0.000898    sqrt( Sum f_i^2 / 3N )
----------------------------------------
   Max    0.005214    constrained

Stress tensor Voigt[x,y,z,yz,xz,xy] (kbar):       -0.49       -0.27       -0.21       -0.11       -0.17       -0.21
(Free)E + p*V (eV/cell)    -2001.8906
Target enthalpy (eV/cell)    -2002.4854

siesta: Stress tensor (static) (eV/Ang**3):
        -0.000306   -0.000129   -0.000103
        -0.000129   -0.000169   -0.000066
        -0.000103   -0.000066   -0.000132

siesta: Pressure (static):          0.32433534  kBar

siesta: Stress tensor (total) (eV/Ang**3):
        -0.000306   -0.000129   -0.000103
        -0.000129   -0.000169   -0.000066
        -0.000103   -0.000066   -0.000132

siesta: Pressure (total):          0.32433701  kBar

siesta: Temp_ion =       0.002 K

                     ====================================
                        Begin MD quenched step =    295
                     ====================================

outcoor: Atomic coordinates (Ang):                          
   -0.79284798    8.65893139    1.79143394   1       1  H
   -0.00107347    8.06087277    1.70776284   2       2  O
    0.81938702    7.70991496    3.21379462   3       3  Si
   -0.08903353    6.92118527    4.14429593   1       4  H
    1.16450247    9.02317209    3.90148740   1       5  H
    2.86851770    6.67717066    2.59679883   3       6  Si
    3.76198503    6.74522935    3.81885187   1       7  H
    2.77562817    4.99591512    2.11192789   2       8  O
    2.29175416    4.49837906    0.49797261   3       9  Si
    3.31462667    3.50424406    0.00008690   1      10  H
    0.98322988    3.76692620    0.64968342   1      11  H
    3.47898013    7.84024274    0.62815852   3      12  Si
    3.04457816    9.28782589    0.65020138   1      13  H
    2.21389664    6.47079030   -0.83038886   3      14  Si
    0.80624635    7.00799323   -0.97577360   1      15  H
    2.86543337    6.30714428   -2.19354179   1      16  H
    5.19326887    7.70990316    0.32449592   2      17  O
    5.46459273    7.97879616   -0.59064462   1      18  H

outcell: Unit cell vectors (Ang):
       14.329350    0.000000    0.000000
        0.000000   14.017284    0.000000
        0.000000    0.000000   14.628130

outcell: Cell vector modules (Ang)   :   14.329350   14.017284   14.628130
outcell: Cell angles (23,13,12) (deg):     90.0000     90.0000     90.0000
outcell: Cell volume (Ang**3)        :   2938.1853
<dSpData1D:S at geom step 295
  <sparsity:sparsity for geom step 295
    nrows_g=154 nrows=8 sparsity=.0497 nnzs=1178, refcount: 8>
  <dData1D:(new from dSpData1D) n=1178, refcount: 1>
refcount: 1>
new_DM -- step:   295
Re-using DM from previous geometries...
Number of DMs in history: 3
  Estimated Rank of xi*xj matrix:            3
 matrix rank:            2
Singular values: 
  1.7321      1.7321     0.61494E-08 0.11485E-09
 DM extrapolation coefficients: 
1   0.33333
2   0.33333
3   0.33333
New DM after history re-use:
<dSpData2D:SpM extrapolated using coords
  <sparsity:sparsity for geom step 295
    nrows_g=154 nrows=8 sparsity=.0497 nnzs=1178, refcount: 12>
  <dData2D:(temp array for extrapolation) n=1178 m=8, refcount: 1>
refcount: 1>
     spin moment: S , {S} =    0.00000  -0.00000  -0.00000   0.00000
No. of atoms with KB's overlaping orbs in proc 0. Max # of overlaps:      17     138
New grid distribution:   1
           1       1:   80    1:   20    1:   12
           2       1:   80    1:   20   13:   24
           3       1:   80    1:   20   25:   35
           4       1:   80    1:   20   36:   46
           5       1:   80    1:   20   47:   57
           6       1:   80    1:   20   58:   68
           7       1:   80    1:   20   69:   79
           8       1:   80    1:   20   80:   90
           9       1:   80   21:   40    1:   12
          10       1:   80   21:   40   13:   24
          11       1:   80   21:   40   25:   35
          12       1:   80   21:   40   36:   46
          13       1:   80   21:   40   47:   57
          14       1:   80   21:   40   58:   68
          15       1:   80   21:   40   69:   79
          16       1:   80   21:   40   80:   90
          17       1:   80   41:   60    1:   12
          18       1:   80   41:   60   13:   24
          19       1:   80   41:   60   25:   35
          20       1:   80   41:   60   36:   46
          21       1:   80   41:   60   47:   57
          22       1:   80   41:   60   58:   68
          23       1:   80   41:   60   69:   79
          24       1:   80   41:   60   80:   90
          25       1:   80   61:   80    1:   12
          26       1:   80   61:   80   13:   24
          27       1:   80   61:   80   25:   35
          28       1:   80   61:   80   36:   46
          29       1:   80   61:   80   47:   57
          30       1:   80   61:   80   58:   68
          31       1:   80   61:   80   69:   79
          32       1:   80   61:   80   80:   90

InitMesh: MESH =   160 x   160 x   180 =     4608000
InitMesh: (bp) =    80 x    80 x    90 =      576000
InitMesh: Mesh cutoff (required, used) =   340.000   344.579 Ry
ExtMesh (bp) on 0 =   184 x   124 x   124 =     2829184
New grid distribution:   2
           1      18:   80    1:   32    9:   16
           2       1:   17   48:   80    1:    8
           3      17:   80    1:   32   17:   76
           4      18:   80   40:   46    1:    8
           5       1:   17    1:   31    9:   16
           6       1:   17   40:   47    9:   16
           7       1:   16    1:   30   69:   90
           8      17:   80    1:   31   77:   90
           9      18:   80    1:   32    1:    8
          10      18:   80   40:   46    9:   16
          11      17:   80   33:   39   17:   76
          12       1:   16   33:   39   17:   68
          13       1:   16    1:   32   17:   68
          14       1:   17   48:   80   17:   33
          15       1:   17    1:   31    1:    8
          16       1:   16   31:   39   69:   90
          17      18:   80   47:   80    1:    8
          18      18:   80   33:   39    1:    8
          19       1:   17   40:   47   17:   33
          20       1:   17   47:   80   34:   90
          21      18:   80   40:   47   17:   72
          22       1:   17   40:   46   34:   90
          23       1:   17   32:   39    1:    8
          24      18:   80   40:   46   73:   90
          25      18:   80   47:   80    9:   16
          26       1:   17   48:   80    9:   16
          27      18:   80   48:   80   17:   72
          28       1:   17   40:   47    1:    8
          29      17:   80   32:   39   77:   90
          30      18:   80   33:   39    9:   16
          31       1:   17   32:   39    9:   16
          32      18:   80   47:   80   73:   90
New grid distribution:   3
           1      25:   80    1:   26    1:   13
           2       1:   24    1:   24   14:   30
           3       1:   24   25:   40   14:   30
           4      22:   80    1:   32   31:   77
           5       1:   21    1:   30   31:   74
           6      30:   80   41:   51   14:   30
           7       1:   21    1:   21   75:   90
           8      22:   80    1:   25   78:   90
           9       1:   24    1:   21    1:   13
          10      25:   80    1:   30   14:   30
          11      25:   80   31:   40   14:   30
          12      22:   80   33:   39   31:   77
          13      25:   80   40:   47   31:   77
          14       1:   21   31:   39   31:   74
          15       1:   29   41:   54   15:   30
          16      22:   80   26:   39   78:   90
          17       1:   29   56:   80    1:   14
          18      30:   80   52:   80   14:   30
          19       1:   29   55:   80   15:   30
          20       1:   29   41:   55    1:   14
          21      25:   80   27:   40    1:   13
          22       1:   24   40:   49   31:   70
          23       1:   24   40:   52   71:   90
          24      25:   80   51:   80   78:   90
          25      30:   80   53:   80    1:   13
          26      25:   80   40:   50   78:   90
          27       1:   21   22:   39   75:   90
          28      25:   80   48:   80   31:   77
          29       1:   24   50:   80   31:   70
          30      30:   80   41:   52    1:   13
          31       1:   24   22:   40    1:   13
          32       1:   24   53:   80   71:   90
Setting up quadratic distribution...
ExtMesh (bp) on 0 =   167 x   136 x   120 =     2725440
PhiOnMesh: Number of (b)points on node 0 =                16128
PhiOnMesh: nlist on node 0 =               171738

        iscf     Eharris(eV)        E_KS(eV)     FreeEng(eV)     dDmax    Ef(eV) dHmax(eV)
   scf:    1    -2002.485407    -2002.485376    -2002.485376  0.000009 -5.035714  0.000215
     spin moment: S , {S} =    0.00000  -0.00000  -0.00000   0.00000
   scf:    2    -2002.485376    -2002.485376    -2002.485376  0.000008 -5.035840  0.000388
     spin moment: S , {S} =    0.00000  -0.00000  -0.00000   0.00000
   scf:    3    -2002.485376    -2002.485376    -2002.485376  0.000004 -5.035760  0.000027
     spin moment: S , {S} =    0.00000  -0.00000  -0.00000   0.00000
   scf:    4    -2002.485376    -2002.485376    -2002.485376  0.000000 -5.035763  0.000008
     spin moment: S , {S} =    0.00000  -0.00000  -0.00000   0.00000
   scf:    5    -2002.485376    -2002.485376    -2002.485376  0.000000 -5.035765  0.000003
     spin moment: S , {S} =    0.00000  -0.00000  -0.00000   0.00000
   scf:    6    -2002.485376    -2002.485376    -2002.485376  0.000000 -5.035766  0.000001
     spin moment: S , {S} =    0.00000  -0.00000  -0.00000   0.00000

SCF Convergence by DM+H criterion
max |DM_out - DM_in|         :     0.0000000584
max |H_out - H_in|      (eV) :     0.0000007609
SCF cycle converged after 6 iterations

Using DM_out to compute the final energy and forces
No. of atoms with KB's overlaping orbs in proc 0. Max # of overlaps:      17     138

siesta: E_KS(eV) =            -2002.4854
     spin moment: S , {S} =    0.00000  -0.00000  -0.00000   0.00000

siesta: Atomic forces (eV/Ang):
     1   -0.000063    0.000031   -0.000250
     2    0.000013    0.000211   -0.000368
     3   -0.000610    0.000085    0.001118
     4   -0.000320   -0.000028    0.000213
     5   -0.000118   -0.000102   -0.000037
     6   -0.002171    0.000134    0.004945
     7    0.000175   -0.000034    0.000320
     8    0.000060   -0.000183    0.000180
     9   -0.000221    0.000138    0.000209
    10   -0.000037    0.000112    0.000056
    11    0.000033   -0.000053    0.000025
    12   -0.000731   -0.000427    0.001340
    13    0.000004    0.000065   -0.000006
    14    0.000015   -0.002606    0.000397
    15    0.000002   -0.000010   -0.000006
    16    0.000001   -0.000015   -0.000006
    17    0.000033    0.000145   -0.000154
    18   -0.000048   -0.000019    0.000055
----------------------------------------
   Tot   -0.003982   -0.002557    0.008032
----------------------------------------
   Max    0.004945
   Res    0.000872    sqrt( Sum f_i^2 / 3N )
----------------------------------------
   Max    0.004945    constrained

Stress tensor Voigt[x,y,z,yz,xz,xy] (kbar):       -0.49       -0.27       -0.21       -0.11       -0.17       -0.21
(Free)E + p*V (eV/cell)    -2001.8905
Target enthalpy (eV/cell)    -2002.4854

siesta: Stress tensor (static) (eV/Ang**3):
        -0.000306   -0.000129   -0.000103
        -0.000129   -0.000169   -0.000066
        -0.000103   -0.000066   -0.000132

siesta: Pressure (static):          0.32436512  kBar

siesta: Stress tensor (total) (eV/Ang**3):
        -0.000306   -0.000129   -0.000103
        -0.000129   -0.000169   -0.000066
        -0.000103   -0.000066   -0.000132

siesta: Pressure (total):          0.32436684  kBar

outcoor: Relaxed atomic coordinates (Ang):                  
   -0.79284798    8.65893139    1.79143394   1       1  H
   -0.00107347    8.06087277    1.70776284   2       2  O
    0.81938702    7.70991496    3.21379462   3       3  Si
   -0.08903353    6.92118527    4.14429593   1       4  H
    1.16450247    9.02317209    3.90148740   1       5  H
    2.86851770    6.67717066    2.59679883   3       6  Si
    3.76198503    6.74522935    3.81885187   1       7  H
    2.77562817    4.99591512    2.11192789   2       8  O
    2.29175416    4.49837906    0.49797261   3       9  Si
    3.31462667    3.50424406    0.00008690   1      10  H
    0.98322988    3.76692620    0.64968342   1      11  H
    3.47898013    7.84024274    0.62815852   3      12  Si
    3.04457816    9.28782589    0.65020138   1      13  H
    2.21389664    6.47079030   -0.83038886   3      14  Si
    0.80624635    7.00799323   -0.97577360   1      15  H
    2.86543337    6.30714428   -2.19354179   1      16  H
    5.19326887    7.70990316    0.32449592   2      17  O
    5.46459273    7.97879616   -0.59064462   1      18  H

siesta: Eigenvalues (eV):
ik =     1
  -24.6927  -24.6927  -24.6802  -24.6802  -24.0205  -24.0205  -14.6398  -14.6398  -14.2580  -14.2580
  -13.6381  -13.6381  -12.7464  -12.7464  -11.9834  -11.9834  -11.4592  -11.4592  -11.1172  -11.1172
   -9.8516   -9.8516   -9.7618   -9.7618   -9.5389   -9.5389   -9.1527   -9.1527   -8.8891   -8.8891
   -8.6466   -8.6466   -8.5353   -8.5353   -8.2581   -8.2581   -7.8735   -7.8735   -7.4039   -7.4039
   -7.2703   -7.2703   -7.2016   -7.2016   -6.6365   -6.6365   -6.2190   -6.2190   -2.2397   -2.2397
   -1.9385   -1.9385   -1.2790   -1.2790   -1.1195   -1.1195   -0.7696   -0.7696   -0.3398   -0.3398
   -0.0228   -0.0228    0.2650    0.2650    0.4244    0.4244    0.6940    0.6940    0.9147    0.9147
    1.1228    1.1228    1.3545    1.3545    1.4742    1.4742    1.6606    1.6606    1.7719    1.7719
    2.0279    2.0279    2.7012    2.7012    2.9377    2.9377    3.3040    3.3040    3.6652    3.6652
    3.9708    3.9708    4.1601    4.1601    4.9111    4.9111    5.0850    5.0850    5.3673    5.3673
    5.6175    5.6175    5.7639    5.7639    5.9630    5.9630    6.2802    6.2802    6.4679    6.4679
    6.9263    6.9263    7.2876    7.2876    7.5799    7.5799    7.8391    7.8391    8.3432    8.3432
    8.8742    8.8742    8.9114    8.9114    9.5141    9.5141    9.6651    9.6651    9.8510    9.8510
   10.0590   10.0590   10.4577   10.4577   10.8607   10.8607   10.9974   10.9974   11.3778   11.3778
   11.8756   11.8756   12.1378   12.1378   12.4348   12.4348   12.8872   12.8872   13.1671   13.1671
   13.4252   13.4252   13.7981   13.7981   14.7607   14.7607   15.1456   15.1456   15.3623   15.3623
   15.6914   15.6914   15.9806   15.9806   16.0839   16.0839   16.1986   16.1986   16.7935   16.7935
   17.0340   17.0340   17.3239   17.3239   17.6517   17.6517   18.5191   18.5191   18.7986   18.7986
   19.4163   19.4163   19.8851   19.8851   20.0788   20.0788   20.3118   20.3118   20.9943   20.9943
   21.5100   21.5100   21.6356   21.6356   22.0367   22.0367   22.2112   22.2112   22.4685   22.4685
   22.8174   22.8174   23.1091   23.1091   23.4132   23.4132   23.7948   23.7948   24.3805   24.3805
   24.8417   24.8417   25.0606   25.0606   25.4239   25.4239   25.8261   25.8261   26.2917   26.2917
   26.7866   26.7866   27.2125   27.2125   28.2707   28.2707   28.4910   28.4910   29.2995   29.2995
   30.0610   30.0610   30.7919   30.7919   33.7787   33.7787   36.1827   36.1827   36.6609   36.6609
   37.1078   37.1078   38.8190   38.8190   39.3214   39.3214   40.1000   40.1000   41.2721   41.2721
   45.1701   45.1701   46.6925   46.6925   47.5168   47.5168   47.9095   47.9095   48.7339   48.7339
   48.7954   48.7954   49.7645   49.7645   50.6336   50.6336   51.1831   51.1831   52.1538   52.1538
   53.0370   53.0370   53.7805   53.7805   55.0379   55.0379   56.8437   56.8437   57.3591   57.3591
   58.4994   58.4994   58.8600   58.8600   60.1372   60.1372   61.0921   61.0921   61.5695   61.5695
   61.8282   61.8282   62.1057   62.1057   66.7090   66.7090   80.8138   80.8138   90.6111   90.6111
   92.0860   92.0860   93.9798   93.9798   99.3476   99.3476  101.7095  101.7095
siesta: Fermi energy =      -5.035766 eV

siesta: Program's energy decomposition (eV):
siesta: Ebs     =      -556.948714
siesta: Eions   =      1993.464565
siesta: Ena     =       123.021942
siesta: Ekin    =      1458.199939
siesta: Enl     =     -1042.456455
siesta: Eso     =        -0.002341
siesta: Edftu   =         0.000000
siesta: DEna    =       -12.275443
siesta: DUscf   =         6.835774
siesta: DUext   =         0.000000
siesta: Exc     =      -542.344226
siesta: eta*DQ  =         0.000000
siesta: Emadel  =         0.000000
siesta: Emeta   =         0.000000
siesta: Emolmec =         0.000000
siesta: Ekinion =         0.000005
siesta: Eharris =     -2002.485371
siesta: Etot    =     -2002.485371
siesta: FreeEng =     -2002.485371

siesta: Final energy (eV):
siesta:  Band Struct. =    -556.948714
siesta:       Kinetic =    1458.199939
siesta:       Hartree =    3275.351962
siesta:       Edftu   =       0.000000
siesta:       Eso     =      -0.002341
siesta:    Ext. field =       0.000000
siesta:   Exch.-corr. =    -542.344226
siesta:  Ion-electron =   -7862.736708
siesta:       Ion-ion =    1669.045998
siesta:       Ekinion =       0.000005
siesta:         Total =   -2002.485371
siesta:         Fermi =      -5.035766

siesta: Stress tensor (static) (eV/Ang**3):
siesta:    -0.000306   -0.000129   -0.000103
siesta:    -0.000129   -0.000169   -0.000066
siesta:    -0.000103   -0.000066   -0.000132

siesta: Cell volume =       2938.185251 Ang**3

siesta: Pressure (static):
siesta:                Solid            Molecule  Units
siesta:           0.00000220          0.00000219  Ry/Bohr**3
siesta:           0.00020245          0.00020141  eV/Ang**3
siesta:           0.32436512          0.32269308  kBar
(Free)E+ p_basis*V_orbitals  =       -1990.842887
(Free)Eharris+ p_basis*V_orbitals  =       -1990.842887
     spin moment: S , {S} =    0.00000  -0.00000  -0.00000   0.00000

siesta: Electric dipole (a.u.)  =   -0.478051    0.691101   -0.431956
siesta: Electric dipole (Debye) =   -1.215086    1.756605   -1.097923

cite: Please see "desoxy1.bib" for an exhaustive BiBTeX file.
cite: Please clearly indicate Siesta version in published work: v4.1.5-1-g384057250
cite: This calculation has made use of the following articles
cite: which are encouraged to be cited in a published work.
        Primary SIESTA paper
          DOI: www.doi.org/10.1088/0953-8984/14/11/302
        Spin-orbit coupling (on-site approximation)
          DOI: www.doi.org/10.1088/0953-8984/19/19/489001


WARNING: alloc-realloc-dealloc name mismatch
         Name: atomlist isa
         Size:               -72. Bytes
         Node:     0
         Subsequent mismatches will not be reported
>> End of run:  19-FEB-2024  18:32:30
Job completed
