Siesta Version  : v4.1.5-1-g384057250
Architecture    : gcc
Compiler version: GNU Fortran (Debian 12.2.0-14) 12.2.0
Compiler flags  : mpifort -O2 -fPIC -ftree-vectorize -fallow-argument-mismatch
PP flags        : -DFC_HAVE_ABORT -DMPI -DSIESTA__FLOOK -DSIESTA__METIS -DSIESTA__MUMPS -DCDF -DNCDF -DNCDF_4 -DNCDF_PARALLEL -DSIESTA__MRRR -DSIESTA__ELPA
Libraries       : libncdf.a libfdict.a  -lflookall -ldl -lnetcdff -lnetcdf -lz -lscalapack-openmpi -lopenblas -lmetis -lzmumps -lcmumps -ldmumps -lmumps_common -lpord -lsmumps -lesmumps -lscotch -lscotcherr -fopenmp -lelpa
PARALLEL version
NetCDF support
NetCDF-4 support
NetCDF-4 MPI-IO support
METIS ordering support
Lua support

* Running on 6 nodes in parallel
>> Start of run:  17-OCT-2023  10:52:21

                           ***********************       
                           *  WELCOME TO SIESTA  *       
                           ***********************       

reinit: Reading from standard input
reinit: Dumped input in INPUT_TMP.94143
************************** Dump of input data file ****************************
SystemLabel      ribosa
NumberOfAtoms    18
NumberOfSpecies  3
%block ChemicalSpeciesLabel
    1    1  H
    2    8  O
    3   14  Si
%endblock ChemicalSpeciesLabel
############################################
# This overrides Defaults.fdf configuration
############################################
MD.TypeOfRun                Verlet # CG, Verlet
MD.Steps                    600
MD.Quench                   True
MD.InitialTemperature       10 K
AtomicCoordinatesFormat NotScaledCartesianAng
%block AtomicCoordinatesAndAtomicSpecies
   -0.70874451    8.71626483    1.79121898   1       1  H
   -0.00115591    8.01754401    1.70514593   2       2  O
    0.83250491    7.73127101    3.21678575   3       3  Si
   -0.08903545    6.95761847    4.12722085   1       4  H
    1.15514124    9.07214172    3.85673934   1       5  H
    2.86934562    6.70590658    2.60751977   3       6  Si
    3.82183330    6.78187320    3.76816827   1       7  H
    2.75348308    5.02206910    2.15005908   2       8  O
    2.28589231    4.52354032    0.52588330   3       9  Si
    3.28915034    3.52335398    0.00101543   1      10  H
    0.97532570    3.78759311    0.62834917   1      11  H
    3.43865634    7.88699958    0.65210818   3      12  Si
    3.02000676    9.33777727    0.71693917   1      13  H
    2.19970943    6.49377566   -0.79626550   3      14  Si
    0.78441968    6.96309115   -0.98678890   1      15  H
    2.84435510    6.34065937   -2.15322729   1      16  H
    5.15224344    7.75155493    0.35689047   2      17  O
    5.41834104    7.93550762   -0.58265379   1      18  H
%endblock AtomicCoordinatesAndAtomicSpecies
#############
# Unit Cell
#############
LatticeConstant 1.0 Ang
%block LatticeVectors
    14.215213    0.000000    0.000000
    0.000000   14.093032    0.000000
    0.000000    0.000000   14.526675
%endblock LatticeVectors
%include ../../Defaults.fdf
************************** End of input data file *****************************

reinit: -----------------------------------------------------------------------
reinit: System Name: 
reinit: -----------------------------------------------------------------------
reinit: System Label: ribosa
reinit: -----------------------------------------------------------------------

initatom: Reading input for the pseudopotentials and atomic orbitals ----------
Species number:   1 Atomic number:    1 Label: H
Species number:   2 Atomic number:    8 Label: O
Species number:   3 Atomic number:   14 Label: Si

Ground state valence configuration:   1s01
Reading pseudopotential information in formatted form from H.psf

Pseudopotential generated from a relativistic atomic calculation

Valence configuration for pseudopotential generation:
1s( 1.00) rc: 0.01
2p( 0.00) rc: 0.60
3d( 0.00) rc: 1.99
4f( 0.00) rc: 2.49
Ground state valence configuration:   2s02  2p04
Reading pseudopotential information in formatted form from O.psf

Pseudopotential generated from a relativistic atomic calculation

Valence configuration for pseudopotential generation:
2s( 2.00) rc: 0.45
2p( 4.00) rc: 0.92
3d( 0.00) rc: 2.24
4f( 0.00) rc: 0.25
Ground state valence configuration:   3s02  3p02
Reading pseudopotential information in formatted form from Si.psf

Pseudopotential generated from a relativistic atomic calculation

Valence configuration for pseudopotential generation:
3s( 2.00) rc: 1.67
3p( 2.00) rc: 2.04
3d( 0.00) rc: 2.89
4f( 0.00) rc: 2.49
For H, standard SIESTA heuristics set lmxkb to 2
 (one more than the basis l, including polarization orbitals).
Use PS.lmax or PS.KBprojectors blocks to override.
For O, standard SIESTA heuristics set lmxkb to 3
 (one more than the basis l, including polarization orbitals).
Use PS.lmax or PS.KBprojectors blocks to override.
For Si, standard SIESTA heuristics set lmxkb to 3
 (one more than the basis l, including polarization orbitals).
Use PS.lmax or PS.KBprojectors blocks to override.

<basis_specs>
===============================================================================
H                    Z=   1    Mass=  1.0100        Charge= 0.17977+309
Lmxo=0 Lmxkb= 2    BasisType=split      Semic=F
L=0  Nsemic=0  Cnfigmx=1
          i=1  nzeta=2  polorb=1  (1s)
            splnorm:   0.62000    
               vcte:    0.0000    
               rinn:    0.0000    
               qcoe:    0.0000    
               qyuk:    0.0000    
               qwid:   0.10000E-01
                rcs:    0.0000      0.0000    
            lambdas:    1.0000      1.0000    
-------------------------------------------------------------------------------
L=0  Nkbl=1  erefs: 0.17977+309
L=1  Nkbl=1  erefs: 0.17977+309
L=2  Nkbl=1  erefs: 0.17977+309
===============================================================================
</basis_specs>

atom: Called for H                     (Z =   1)

read_vps: Pseudopotential generation method:
read_vps: ATM4.2.7  Troullier-Martins                       
Valence charge for ps generation:    1.00000

xc_check: Exchange-correlation functional:
xc_check: GGA Perdew, Burke & Ernzerhof 1996
V l=0 = -2*Zval/r beyond r=  0.0098
V l=1 = -2*Zval/r beyond r=  0.5817
V l=2 = -2*Zval/r beyond r=  1.9372
All V_l potentials equal beyond r=  1.9372
This should be close to max(r_c) in ps generation
All pots = -2*Zval/r beyond r=  1.9372

VLOCAL1: 99.0% of the norm of Vloc inside     11.567 Ry
VLOCAL1: 99.9% of the norm of Vloc inside     26.362 Ry
atom: Maximum radius for 4*pi*r*r*local-pseudopot. charge    2.25106
atom: Maximum radius for r*vlocal+2*Zval:    1.91306
GHOST: No ghost state for L =  0
GHOST: No ghost state for L =  1
GHOST: No ghost state for L =  2

KBgen: Kleinman-Bylander projectors: 
   l= 0   rc=  2.036604   el= -0.477180   Ekb= -6.081590   kbcos= -0.277285
   l= 1   rc=  2.195416   el=  0.001076   Ekb= -0.926943   kbcos= -0.034643
   l= 2   rc=  2.251056   el=  0.002010   Ekb= -0.130941   kbcos= -0.009788

KBgen: Total number of Kleinman-Bylander projectors:    9
atom: -------------------------------------------------------------------------

atom: SANKEY-TYPE ORBITALS:
atom: Selected multiple-zeta basis: split     

SPLIT: Orbitals with angular momentum L= 0

SPLIT: Basis orbitals for state 1s

SPLIT: PAO cut-off radius determined from an
SPLIT: energy shift=  0.002000 Ry

   izeta = 1
                 lambda =    1.000000
                     rc =    6.518340
                 energy =   -0.475305
                kinetic =    0.912139
    potential(screened) =   -1.387444
       potential(ionic) =   -1.907295

   izeta = 2
                 rmatch =    2.141150
              splitnorm =    0.620000
                 energy =    0.566467
                kinetic =    3.772856
    potential(screened) =   -3.206389
       potential(ionic) =   -3.759093

POLgen: Perturbative polarization orbital with L=  1

POLgen: Polarization orbital for state 1s

   izeta = 1
                     rc =    6.518340
                 energy =    0.533861
                kinetic =    1.121086
    potential(screened) =   -0.587225
       potential(ionic) =   -1.053027
atom: Total number of Sankey-type orbitals:  5

atm_pop: Valence configuration (for local Pseudopot. screening):
 1s( 1.00)                                                            
Vna: chval, zval:    1.00000   1.00000

Vna:  Cut-off radius for the neutral-atom potential:   6.518340

atom: _________________________________________________________________________

<basis_specs>
===============================================================================
O                    Z=   8    Mass=  16.000        Charge= 0.17977+309
Lmxo=1 Lmxkb= 3    BasisType=split      Semic=F
L=0  Nsemic=0  Cnfigmx=2
          i=1  nzeta=2  polorb=0  (2s)
            splnorm:   0.28000    
               vcte:    0.0000    
               rinn:    0.0000    
               qcoe:    0.0000    
               qyuk:    0.0000    
               qwid:   0.10000E-01
                rcs:    0.0000      0.0000    
            lambdas:    1.0000      1.0000    
L=1  Nsemic=0  Cnfigmx=2
          i=1  nzeta=2  polorb=1  (2p)
            splnorm:   0.28000    
               vcte:    0.0000    
               rinn:    0.0000    
               qcoe:    0.0000    
               qyuk:    0.0000    
               qwid:   0.10000E-01
                rcs:    0.0000      0.0000    
            lambdas:    1.0000      1.0000    
-------------------------------------------------------------------------------
L=0  Nkbl=1  erefs: 0.17977+309
L=1  Nkbl=1  erefs: 0.17977+309
L=2  Nkbl=1  erefs: 0.17977+309
L=3  Nkbl=1  erefs: 0.17977+309
===============================================================================
</basis_specs>

atom: Called for O                     (Z =   8)

read_vps: Pseudopotential generation method:
read_vps: ATM4.2.7  Troullier-Martins                       
Valence charge for ps generation:    6.00000

xc_check: Exchange-correlation functional:
xc_check: GGA Perdew, Burke & Ernzerhof 1996
V l=0 = -2*Zval/r beyond r=  1.1000
V l=1 = -2*Zval/r beyond r=  1.1000
V l=2 = -2*Zval/r beyond r=  2.2154
V l=3 = -2*Zval/r beyond r=  1.1000
All V_l potentials equal beyond r=  2.2154
This should be close to max(r_c) in ps generation
All pots = -2*Zval/r beyond r=  2.2154

VLOCAL1: 99.0% of the norm of Vloc inside      8.845 Ry
VLOCAL1: 99.9% of the norm of Vloc inside     20.157 Ry
atom: Maximum radius for 4*pi*r*r*local-pseudopot. charge    2.67231
atom: Maximum radius for r*vlocal+2*Zval:    2.32897
GHOST: No ghost state for L =  0
GHOST: No ghost state for L =  1
GHOST: No ghost state for L =  2
GHOST: No ghost state for L =  3

KBgen: Kleinman-Bylander projectors: 
   l= 0   rc=  2.243238   el= -1.759686   Ekb=**********   kbcos= -0.171774
   l= 1   rc=  2.328968   el= -0.663873   Ekb=-14.506792   kbcos= -0.519897
   l= 2   rc=  2.573941   el=  0.002031   Ekb= -1.137373   kbcos= -0.019581
   l= 3   rc=  2.606321   el=  0.003153   Ekb= -1.013546   kbcos= -0.003122

KBgen: Total number of Kleinman-Bylander projectors:   16
atom: -------------------------------------------------------------------------

atom: SANKEY-TYPE ORBITALS:
atom: Selected multiple-zeta basis: split     

SPLIT: Orbitals with angular momentum L= 0

SPLIT: Basis orbitals for state 2s

SPLIT: PAO cut-off radius determined from an
SPLIT: energy shift=  0.002000 Ry

   izeta = 1
                 lambda =    1.000000
                     rc =    4.243912
                 energy =   -1.758270
                kinetic =    3.286084
    potential(screened) =   -5.044353
       potential(ionic) =  -12.921184

   izeta = 2
                 rmatch =    2.187845
              splitnorm =    0.280000
                 energy =   -0.885018
                kinetic =    8.134434
    potential(screened) =   -9.019452
       potential(ionic) =  -17.710645

SPLIT: Orbitals with angular momentum L= 1

SPLIT: Basis orbitals for state 2p

SPLIT: PAO cut-off radius determined from an
SPLIT: energy shift=  0.002000 Ry

   izeta = 1
                 lambda =    1.000000
                     rc =    5.314825
                 energy =   -0.661986
                kinetic =    4.917472
    potential(screened) =   -5.579458
       potential(ionic) =  -13.236259

   izeta = 2
                 rmatch =    2.160663
              splitnorm =    0.280000
                 energy =   -0.068760
                kinetic =    9.183374
    potential(screened) =   -9.252135
       potential(ionic) =  -18.274251

POLgen: Perturbative polarization orbital with L=  2

POLgen: Polarization orbital for state 2p

   izeta = 1
                     rc =    5.314825
                 energy =    1.970580
                kinetic =    3.886128
    potential(screened) =   -1.915547
       potential(ionic) =   -7.749584
atom: Total number of Sankey-type orbitals: 13

atm_pop: Valence configuration (for local Pseudopot. screening):
 2s( 2.00)                                                            
 2p( 4.00)                                                            
Vna: chval, zval:    6.00000   6.00000

Vna:  Cut-off radius for the neutral-atom potential:   5.314825

atom: _________________________________________________________________________

<basis_specs>
===============================================================================
Si                   Z=  14    Mass=  28.090        Charge= 0.17977+309
Lmxo=1 Lmxkb= 3    BasisType=split      Semic=F
L=0  Nsemic=0  Cnfigmx=3
          i=1  nzeta=2  polorb=0  (3s)
            splnorm:   0.28000    
               vcte:    0.0000    
               rinn:    0.0000    
               qcoe:    0.0000    
               qyuk:    0.0000    
               qwid:   0.10000E-01
                rcs:    0.0000      0.0000    
            lambdas:    1.0000      1.0000    
L=1  Nsemic=0  Cnfigmx=3
          i=1  nzeta=2  polorb=1  (3p)
            splnorm:   0.28000    
               vcte:    0.0000    
               rinn:    0.0000    
               qcoe:    0.0000    
               qyuk:    0.0000    
               qwid:   0.10000E-01
                rcs:    0.0000      0.0000    
            lambdas:    1.0000      1.0000    
-------------------------------------------------------------------------------
L=0  Nkbl=1  erefs: 0.17977+309
L=1  Nkbl=1  erefs: 0.17977+309
L=2  Nkbl=1  erefs: 0.17977+309
L=3  Nkbl=1  erefs: 0.17977+309
===============================================================================
</basis_specs>

atom: Called for Si                    (Z =  14)

read_vps: Pseudopotential generation method:
read_vps: ATM4.2.7  Troullier-Martins                       
Valence charge for ps generation:    4.00000

xc_check: Exchange-correlation functional:
xc_check: GGA Perdew, Burke & Ernzerhof 1996
V l=0 = -2*Zval/r beyond r=  2.7826
V l=1 = -2*Zval/r beyond r=  2.7826
V l=2 = -2*Zval/r beyond r=  2.9253
V l=3 = -2*Zval/r beyond r=  2.7826
All V_l potentials equal beyond r=  2.8530
This should be close to max(r_c) in ps generation
All pots = -2*Zval/r beyond r=  2.9253

VLOCAL1: 99.0% of the norm of Vloc inside      5.333 Ry
VLOCAL1: 99.9% of the norm of Vloc inside     12.154 Ry
atom: Maximum radius for 4*pi*r*r*local-pseudopot. charge    3.39869
atom: Maximum radius for r*vlocal+2*Zval:    2.96205
GHOST: No ghost state for L =  0
GHOST: No ghost state for L =  1
GHOST: No ghost state for L =  2
GHOST: No ghost state for L =  3

KBgen: Kleinman-Bylander projectors: 
   l= 0   rc=  3.075247   el= -0.794092   Ekb=  5.879390   kbcos=  0.167461
   l= 1   rc=  3.153101   el= -0.300068   Ekb=  2.642817   kbcos=  0.058301
   l= 2   rc=  3.273594   el=  0.001958   Ekb= -1.185135   kbcos= -0.104411
   l= 3   rc=  3.232927   el=  0.003046   Ekb= -0.497174   kbcos= -0.015889

KBgen: Total number of Kleinman-Bylander projectors:   16
atom: -------------------------------------------------------------------------

atom: SANKEY-TYPE ORBITALS:
atom: Selected multiple-zeta basis: split     

SPLIT: Orbitals with angular momentum L= 0

SPLIT: Basis orbitals for state 3s

SPLIT: PAO cut-off radius determined from an
SPLIT: energy shift=  0.002000 Ry

   izeta = 1
                 lambda =    1.000000
                     rc =    6.429618
                 energy =   -0.792283
                kinetic =    0.525293
    potential(screened) =   -1.317576
       potential(ionic) =   -3.744923

   izeta = 2
                 rmatch =    3.998416
              splitnorm =    0.280000
                 energy =   -0.583081
                kinetic =    1.069570
    potential(screened) =   -1.652651
       potential(ionic) =   -4.235185

SPLIT: Orbitals with angular momentum L= 1

SPLIT: Basis orbitals for state 3p

SPLIT: PAO cut-off radius determined from an
SPLIT: energy shift=  0.002000 Ry

   izeta = 1
                 lambda =    1.000000
                     rc =    8.464845
                 energy =   -0.298236
                kinetic =    0.785360
    potential(screened) =   -1.083596
       potential(ionic) =   -3.273779

   izeta = 2
                 rmatch =    4.587816
              splitnorm =    0.280000
                 energy =   -0.131871
                kinetic =    1.403687
    potential(screened) =   -1.535557
       potential(ionic) =   -4.015310

POLgen: Perturbative polarization orbital with L=  2

POLgen: Polarization orbital for state 3p

   izeta = 1
                     rc =    8.464845
                 energy =    0.321949
                kinetic =    1.055677
    potential(screened) =   -0.733728
       potential(ionic) =   -2.672950
atom: Total number of Sankey-type orbitals: 13

atm_pop: Valence configuration (for local Pseudopot. screening):
 3s( 2.00)                                                            
 3p( 2.00)                                                            
Vna: chval, zval:    4.00000   4.00000

Vna:  Cut-off radius for the neutral-atom potential:   8.464845

atom: _________________________________________________________________________

prinput: Basis input ----------------------------------------------------------

PAO.BasisType split     

%block ChemicalSpeciesLabel
    1    1 H                       # Species index, atomic number, species label
    2    8 O                       # Species index, atomic number, species label
    3   14 Si                      # Species index, atomic number, species label
%endblock ChemicalSpeciesLabel

%block PAO.Basis                 # Define Basis set
H                     1                    # Species label, number of l-shells
 n=1   0   2 P   1                   # n, l, Nzeta, Polarization, NzetaPol
   6.518      2.141   
   1.000      1.000   
O                     2                    # Species label, number of l-shells
 n=2   0   2                         # n, l, Nzeta 
   4.244      2.188   
   1.000      1.000   
 n=2   1   2 P   1                   # n, l, Nzeta, Polarization, NzetaPol
   5.315      2.161   
   1.000      1.000   
Si                    2                    # Species label, number of l-shells
 n=3   0   2                         # n, l, Nzeta 
   6.430      3.998   
   1.000      1.000   
 n=3   1   2 P   1                   # n, l, Nzeta, Polarization, NzetaPol
   8.465      4.588   
   1.000      1.000   
%endblock PAO.Basis

prinput: ----------------------------------------------------------------------

Dumping basis to NetCDF file H.ion.nc
Dumping basis to NetCDF file O.ion.nc
Dumping basis to NetCDF file Si.ion.nc
coor:   Atomic-coordinates input format  =     Cartesian coordinates
coor:                                          (in Angstroms)

siesta: Atomic coordinates (Bohr) and species
siesta:     -1.33933  16.47136   3.38491  1        1
siesta:     -0.00218  15.15097   3.22226  2        2
siesta:      1.57321  14.60999   6.07885  3        3
siesta:     -0.16825  13.14800   7.79932  1        4
siesta:      2.18290  17.14387   7.28818  1        5
siesta:      5.42228  12.67233   4.92750  3        6
siesta:      7.22222  12.81589   7.12081  1        7
siesta:      5.20333   9.49034   4.06302  2        8
siesta:      4.31971   8.54826   0.99378  3        9
siesta:      6.21560   6.65818   0.00192  1       10
siesta:      1.84310   7.15752   1.18741  1       11
siesta:      6.49812  14.90428   1.23231  3       12
siesta:      5.70699  17.64585   1.35482  1       13
siesta:      4.15685  12.27146  -1.50472  3       14
siesta:      1.48234  13.15834  -1.86476  1       15
siesta:      5.37505  11.98211  -4.06901  1       16
siesta:      9.73633  14.64832   0.67443  2       17
siesta:     10.23918  14.99594  -1.10106  1       18

siesta: System type = molecule  

initatomlists: Number of atoms, orbitals, and projectors:     18   154   218

siesta: ******************** Simulation parameters ****************************
siesta:
siesta: The following are some of the parameters of the simulation.
siesta: A complete list of the parameters used, including default values,
siesta: can be found in file out.fdf
siesta:
redata: Spin configuration                          = spin-orbit
redata: Number of spin components                   = 8
redata: Time-Reversal Symmetry                      = F
redata: Spin spiral                                 = F
############################################################
This spin-orbit implementation uses a local approximation.
From 4.2 and onwards the full non-local approximation is implemented
You are strongly advised to use >=4.2 versions!
############################################################
redata: Long output                                 =   F
redata: Number of Atomic Species                    =        3
redata: Charge density info will appear in .RHO file
redata: Write Mulliken Pop.                         = NO
redata: Matel table size (NRTAB)                    =     1024
redata: Mesh Cutoff                                 =   340.0000 Ry
redata: Net charge of the system                    =     0.0000 |e|
redata: Min. number of SCF Iter                     =        1
redata: Max. number of SCF Iter                     =      200
redata: SCF convergence failure will abort job
redata: SCF mix quantity                            = Hamiltonian
redata: Mix DM or H after convergence               =   F
redata: Recompute H after scf cycle                 =   F
redata: Mix DM in first SCF step                    =   T
redata: Write Pulay info on disk                    =   F
redata: New DM Occupancy tolerance                  = 0.000000000001
redata: No kicks to SCF
redata: DM Mixing Weight for Kicks                  =     0.5000
redata: Require Harris convergence for SCF          =   F
redata: Harris energy tolerance for SCF             =     0.000100 eV
redata: Require DM convergence for SCF              =   T
redata: DM tolerance for SCF                        =     0.000008
redata: Require EDM convergence for SCF             =   F
redata: EDM tolerance for SCF                       =     0.001000 eV
redata: Require H convergence for SCF               =   T
redata: Hamiltonian tolerance for SCF               =     0.000001 eV
redata: Require (free) Energy convergence for SCF   =   F
redata: (free) Energy tolerance for SCF             =     0.000100 eV
redata: Using Saved Data (generic)                  =   F
redata: Use continuation files for DM               =   T
redata: Neglect nonoverlap interactions             =   F
redata: Method of Calculation                       = Diagonalization
redata: Electronic Temperature                      =   299.9978 K
redata: Fix the spin of the system                  =   F
redata: Dynamics option                             = Verlet MD run
redata: Initial MD time step                        =        1
redata:   Final MD time step                        =      600
redata: Length of MD time step                      =     0.5000 fs
redata: Initial Temperature of MD run               =    10.0000 K
redata: Perform a MD quench                         =   T
mix.SCF: Pulay mixing                            = Pulay
mix.SCF:    Variant                              = stable
mix.SCF:    History steps                        = 6
mix.SCF:    Linear mixing weight                 =     0.250000
mix.SCF:    Mixing weight                        =     0.250000
mix.SCF:    SVD condition                        = 0.1000E-07
mix.SCF:    Restart steps                        = 24
mix.SCF:    Restart save steps                   = 3
mix.SCF: Spin-component mixing                   all
redata: Save all siesta data in one NC              =   F
redata: ***********************************************************************

%block SCF.Mixers
  Pulay
%endblock SCF.Mixers

%block SCF.Mixer.Pulay
  # Mixing method
  method pulay
  variant stable

  # Mixing options
  weight 0.2500
  weight.linear 0.2500
  history 6
  restart 24
  restart.save 3
%endblock SCF.Mixer.Pulay

Size of DM history Fstack: 3
Total number of electrons:    48.000000
Total ionic charge:    48.000000

* ProcessorY, Blocksize:    2  24


* Orbital distribution balance (max,min):    34    24


Time-reversal symmetry not used.

siesta: k-grid: Number of k-points =     1
siesta: k-grid: Cutoff (effective) =     7.047 Ang
siesta: k-grid: Supercell and displacements
siesta: k-grid:    1   0   0      0.000
siesta: k-grid:    0   1   0      0.000
siesta: k-grid:    0   0   1      0.000

diag: Algorithm                                     = ELPA-1stage
diag: Parallel over k                               =   F
diag: Use parallel 2D distribution                  =   T
diag: Parallel block-size                           = 24
diag: Parallel distribution                         =     2 x     3
diag: Used triangular part                          = Lower
diag: Absolute tolerance                            =  0.100E-15
diag: Orthogonalization factor                      =  0.100E-05
diag: Memory factor                                 =  1.0000


ts: **************************************************************
ts: Save H and S matrices                           =    F
ts: Save DM and EDM matrices                        =    F
ts: Only save the overlap matrix S                  =    F
ts: **************************************************************

************************ Begin: TS CHECKS AND WARNINGS ************************
************************ End: TS CHECKS AND WARNINGS **************************


                     ====================================
                        Begin MD quenched step =      1
                     ====================================

outcoor: Atomic coordinates (Ang):                          
   -0.70874451    8.71626483    1.79121898   1       1  H
   -0.00115591    8.01754401    1.70514593   2       2  O
    0.83250491    7.73127101    3.21678575   3       3  Si
   -0.08903545    6.95761847    4.12722085   1       4  H
    1.15514124    9.07214172    3.85673934   1       5  H
    2.86934562    6.70590658    2.60751977   3       6  Si
    3.82183330    6.78187320    3.76816827   1       7  H
    2.75348308    5.02206910    2.15005908   2       8  O
    2.28589231    4.52354032    0.52588330   3       9  Si
    3.28915034    3.52335398    0.00101543   1      10  H
    0.97532570    3.78759311    0.62834917   1      11  H
    3.43865634    7.88699958    0.65210818   3      12  Si
    3.02000676    9.33777727    0.71693917   1      13  H
    2.19970943    6.49377566   -0.79626550   3      14  Si
    0.78441968    6.96309115   -0.98678890   1      15  H
    2.84435510    6.34065937   -2.15322729   1      16  H
    5.15224344    7.75155493    0.35689047   2      17  O
    5.41834104    7.93550762   -0.58265379   1      18  H

outcell: Unit cell vectors (Ang):
       14.215213    0.000000    0.000000
        0.000000   14.093032    0.000000
        0.000000    0.000000   14.526675

outcell: Cell vector modules (Ang)   :   14.215213   14.093032   14.526675
outcell: Cell angles (23,13,12) (deg):     90.0000     90.0000     90.0000
outcell: Cell volume (Ang**3)        :   2910.2080
<dSpData1D:S at geom step 1
  <sparsity:sparsity for geom step 1
    nrows_g=154 nrows=34 sparsity=.2080 nnzs=4934, refcount: 8>
  <dData1D:(new from dSpData1D) n=4934, refcount: 1>
refcount: 1>
new_DM -- step:     1
Initializing Density Matrix...

Attempting to read DM from file... Failed...
DM filled with atomic data:
<dSpData2D:DM initialized from atoms
  <sparsity:sparsity for geom step 1
    nrows_g=154 nrows=34 sparsity=.2080 nnzs=4934, refcount: 9>
  <dData2D:DM n=4934 m=8, refcount: 1>
refcount: 1>
     spin moment: S , {S} =   26.00000   0.00000   0.00000  26.00000
No. of atoms with KB's overlaping orbs in proc 0. Max # of overlaps:      17     138

Initializing spin-orbit part of the Hamiltonian
  Adding spin-orbit effects for H 
  Adding spin-orbit effects for O 
  Adding spin-orbit effects for Si


New grid distribution:   1
           1       1:   80    1:   40    1:   27
           2       1:   80    1:   40   28:   54
           3       1:   80    1:   40   55:   81
           4       1:   80   41:   80    1:   27
           5       1:   80   41:   80   28:   54
           6       1:   80   41:   80   55:   81

InitMesh: MESH =   160 x   160 x   162 =     4147200
InitMesh: (bp) =    80 x    80 x    81 =      518400
InitMesh: Mesh cutoff (required, used) =   340.000   343.716 Ry
ExtMesh (bp) on 0 =   184 x   144 x   127 =     3364992
New grid distribution:   2
           1       1:   80    1:   34    1:   15
           2       1:   80    1:   34   16:   81
           3       1:   17   35:   80    1:   15
           4      18:   80   35:   80    1:   15
           5      18:   80   35:   80   16:   81
           6       1:   17   35:   80   16:   81
New grid distribution:   3
           1       1:   29   32:   80    1:   27
           2       1:   80    1:   33   28:   81
           3       1:   24   34:   80   28:   81
           4      30:   80   32:   80    1:   27
           5      25:   80   34:   80   28:   81
           6       1:   80    1:   31    1:   27
Setting up quadratic distribution...
ExtMesh (bp) on 0 =   184 x   138 x   115 =     2920080
PhiOnMesh: Number of (b)points on node 0 =                40800
PhiOnMesh: nlist on node 0 =               732938

stepf: Fermi-Dirac step function

siesta: Program's energy decomposition (eV):
siesta: Ebs     =      -384.571562
siesta: Eions   =      1993.464565
siesta: Ena     =       122.923862
siesta: Ekin    =      1614.390930
siesta: Enl     =     -1171.466040
siesta: Eso     =        -0.002445
siesta: Edftu   =         0.000000
siesta: DEna    =       -16.437448
siesta: DUscf   =        20.019827
siesta: DUext   =         0.000000
siesta: Exc     =      -568.220866
siesta: eta*DQ  =         0.000000
siesta: Emadel  =         0.000000
siesta: Emeta   =         0.000000
siesta: Emolmec =         0.000000
siesta: Ekinion =         0.000000
siesta: Eharris =     -1990.123566
siesta: Etot    =     -1992.256745
siesta: FreeEng =     -1992.256745

        iscf     Eharris(eV)        E_KS(eV)     FreeEng(eV)     dDmax    Ef(eV) dHmax(eV)
   scf:    1    -1990.123566    -1992.256745    -1992.256745  0.943884 -5.460389 16.594337
     spin moment: S , {S} =    0.00010   0.00004  -0.00007   0.00005
timer: Routine,Calls,Time,% = IterSCF        1       5.148  25.47
   scf:    2    -2005.870832    -2000.670510    -2000.670510  0.067923 -4.940386  5.409091
     spin moment: S , {S} =    0.00006   0.00003  -0.00004   0.00004
   scf:    3    -2002.622166    -2001.860728    -2001.860728  0.036482 -3.730878  2.807500
     spin moment: S , {S} =    0.00005   0.00003  -0.00003   0.00003
   scf:    4    -2002.833293    -2002.353667    -2002.353667  0.046999 -3.371993  1.209058
     spin moment: S , {S} =    0.00003   0.00002  -0.00002   0.00001
   scf:    5    -2002.608797    -2002.485327    -2002.485327  0.027128 -5.093345  0.714695
     spin moment: S , {S} =    0.00001   0.00001  -0.00001   0.00000
   scf:    6    -2002.562934    -2002.530022    -2002.530022  0.021563 -5.151956  0.512298
     spin moment: S , {S} =    0.00001   0.00001  -0.00000   0.00000
   scf:    7    -2002.543435    -2002.543627    -2002.543627  0.007541 -5.047983  0.312158
     spin moment: S , {S} =    0.00000   0.00000  -0.00000   0.00000
   scf:    8    -2002.556455    -2002.550815    -2002.550815  0.006058 -5.097911  0.045995
     spin moment: S , {S} =    0.00000   0.00000  -0.00000   0.00000
   scf:    9    -2002.552262    -2002.551497    -2002.551497  0.002206 -5.094302  0.027690
     spin moment: S , {S} =    0.00000   0.00000  -0.00000   0.00000
   scf:   10    -2002.552105    -2002.551765    -2002.551765  0.001906 -5.092950  0.008714
     spin moment: S , {S} =    0.00000   0.00000  -0.00000   0.00000
   scf:   11    -2002.551807    -2002.551784    -2002.551784  0.000497 -5.092362  0.005181
     spin moment: S , {S} =    0.00000   0.00000  -0.00000   0.00000
   scf:   12    -2002.551789    -2002.551787    -2002.551787  0.000116 -5.091977  0.001635
     spin moment: S , {S} =    0.00000   0.00000  -0.00000   0.00000
   scf:   13    -2002.551788    -2002.551787    -2002.551787  0.000036 -5.091806  0.000759
     spin moment: S , {S} =    0.00000   0.00000  -0.00000   0.00000
   scf:   14    -2002.551788    -2002.551788    -2002.551788  0.000044 -5.091600  0.000787
     spin moment: S , {S} =    0.00000   0.00000  -0.00000   0.00000
   scf:   15    -2002.551788    -2002.551788    -2002.551788  0.000064 -5.091566  0.000132
     spin moment: S , {S} =    0.00000   0.00000  -0.00000   0.00000
   scf:   16    -2002.551788    -2002.551788    -2002.551788  0.000016 -5.091564  0.000083
     spin moment: S , {S} =    0.00000  -0.00000   0.00000  -0.00000
   scf:   17    -2002.551788    -2002.551788    -2002.551788  0.000003 -5.091558  0.000058
     spin moment: S , {S} =    0.00000  -0.00000   0.00000  -0.00000
   scf:   18    -2002.551788    -2002.551788    -2002.551788  0.000002 -5.091561  0.000031
     spin moment: S , {S} =    0.00000  -0.00000   0.00000  -0.00000
   scf:   19    -2002.551788    -2002.551788    -2002.551788  0.000002 -5.091566  0.000004
     spin moment: S , {S} =    0.00000  -0.00000   0.00000   0.00000
   scf:   20    -2002.551788    -2002.551788    -2002.551788  0.000000 -5.091565  0.000003
     spin moment: S , {S} =    0.00000  -0.00000   0.00000   0.00000
   scf:   21    -2002.551788    -2002.551788    -2002.551788  0.000000 -5.091565  0.000002
     spin moment: S , {S} =    0.00000  -0.00000   0.00000   0.00000
   scf:   22    -2002.551788    -2002.551788    -2002.551788  0.000000 -5.091564  0.000001
     spin moment: S , {S} =    0.00000  -0.00000   0.00000   0.00000

SCF Convergence by DM+H criterion
max |DM_out - DM_in|         :     0.0000000849
max |H_out - H_in|      (eV) :     0.0000008413
SCF cycle converged after 22 iterations

Using DM_out to compute the final energy and forces
No. of atoms with KB's overlaping orbs in proc 0. Max # of overlaps:      17     138

siesta: E_KS(eV) =            -2002.5518

siesta: E_KS - E_eggbox =     -2002.5518
     spin moment: S , {S} =    0.00000  -0.00000   0.00000   0.00000

siesta: Atomic forces (eV/Ang):
     1    0.000660   -0.000646    0.002023
     2    0.004428   -0.002183    0.006356
     3   -0.004765    0.002997   -0.005361
     4    0.000750    0.000983   -0.001049
     5    0.000567   -0.003116   -0.001085
     6    0.001427   -0.007484   -0.001290
     7   -0.000870    0.001538   -0.001534
     8   -0.003067    0.006124   -0.006082
     9    0.001642   -0.001425    0.006269
    10   -0.001193    0.001681    0.000027
    11    0.003307    0.000598   -0.001862
    12    0.007553    0.000659   -0.001318
    13    0.000258   -0.002259   -0.000390
    14   -0.001306    0.000440   -0.001085
    15    0.003152    0.004272   -0.001444
    16   -0.001497   -0.000203    0.003761
    17   -0.008645    0.001092   -0.002120
    18    0.000023    0.001186    0.001559
----------------------------------------
   Tot    0.002425    0.004255   -0.004625
----------------------------------------
   Max    0.008645
   Res    0.003205    sqrt( Sum f_i^2 / 3N )
----------------------------------------
   Max    0.008645    constrained

Stress tensor Voigt[x,y,z,yz,xz,xy] (kbar):       -1.03       -0.50       -1.06        0.07       -0.03       -0.04
(Free)E + p*V (eV/cell)    -2000.9829
Target enthalpy (eV/cell)    -2002.5518

siesta: Stress tensor (static) (eV/Ang**3):
        -0.000637   -0.000028   -0.000015
        -0.000028   -0.000309    0.000047
        -0.000015    0.000047   -0.000657

siesta: Pressure (static):          0.85575568  kBar

siesta: Stress tensor (total) (eV/Ang**3):
        -0.000641   -0.000028   -0.000016
        -0.000028   -0.000313    0.000045
        -0.000016    0.000045   -0.000664

siesta: Pressure (total):          0.86376237  kBar

siesta: Temp_ion =       5.313 K

                     ====================================
                        Begin MD quenched step =      2
                     ====================================

outcoor: Atomic coordinates (Ang):                          
   -0.70704299    8.71349925    1.79204892   1       1  H
   -0.00115558    8.01754385    1.70515460   2       2  O
    0.83250471    7.73127114    3.21655517   3       3  Si
   -0.08903456    6.95905530    4.12721961   1       4  H
    1.15514191    9.07213803    3.85487740   1       5  H
    2.86934568    6.70590626    2.60751971   3       6  Si
    3.82183227    6.78388908    3.76816645   1       7  H
    2.75318394    5.02206956    2.14959495   2       8  O
    2.28615836    4.52347060    0.52588357   3       9  Si
    3.28914893    3.52472352    0.00204535   1      10  H
    0.97588991    3.78896368    0.62834696   1      11  H
    3.43899916    7.88699961    0.65210812   3      12  Si
    3.02000707    9.33777459    0.71693871   1      13  H
    2.19924425    6.49377568   -0.79662035   3      14  Si
    0.78442342    6.96309621   -0.98679061   1      15  H
    2.84344850    6.34065913   -2.15322283   1      16  H
    5.15224279    7.75155501    0.35664732   2      17  O
    5.42009871    7.93550903   -0.58080283   1      18  H

outcell: Unit cell vectors (Ang):
       14.215213    0.000000    0.000000
        0.000000   14.093032    0.000000
        0.000000    0.000000   14.526675

outcell: Cell vector modules (Ang)   :   14.215213   14.093032   14.526675
outcell: Cell angles (23,13,12) (deg):     90.0000     90.0000     90.0000
outcell: Cell volume (Ang**3)        :   2910.2080
<dSpData1D:S at geom step 2
  <sparsity:sparsity for geom step 2
    nrows_g=154 nrows=34 sparsity=.2080 nnzs=4934, refcount: 8>
  <dData1D:(new from dSpData1D) n=4934, refcount: 1>
refcount: 1>
new_DM -- step:     2
Re-using DM from previous geometries...
Number of DMs in history: 1
 DM extrapolation coefficients: 
1   1.00000
New DM after history re-use:
<dSpData2D:SpM extrapolated using coords
  <sparsity:sparsity for geom step 2
    nrows_g=154 nrows=34 sparsity=.2080 nnzs=4934, refcount: 10>
  <dData2D:(temp array for extrapolation) n=4934 m=8, refcount: 1>
refcount: 1>
     spin moment: S , {S} =    0.00000  -0.00000   0.00000  -0.00000
No. of atoms with KB's overlaping orbs in proc 0. Max # of overlaps:      17     138
New grid distribution:   1
           1       1:   80    1:   40    1:   27
           2       1:   80    1:   40   28:   54
           3       1:   80    1:   40   55:   81
           4       1:   80   41:   80    1:   27
           5       1:   80   41:   80   28:   54
           6       1:   80   41:   80   55:   81

InitMesh: MESH =   160 x   160 x   162 =     4147200
InitMesh: (bp) =    80 x    80 x    81 =      518400
InitMesh: Mesh cutoff (required, used) =   340.000   343.716 Ry
ExtMesh (bp) on 0 =   184 x   144 x   127 =     3364992
New grid distribution:   2
           1       1:   80    1:   34    1:   15
           2       1:   80    1:   34   16:   81
           3       1:   17   35:   80    1:   15
           4      18:   80   35:   80    1:   15
           5      18:   80   35:   80   16:   81
           6       1:   17   35:   80   16:   81
New grid distribution:   3
           1       1:   29   32:   80    1:   27
           2       1:   80    1:   33   28:   81
           3       1:   24   34:   80   28:   81
           4      30:   80   32:   80    1:   27
           5      25:   80   34:   80   28:   81
           6       1:   80    1:   31    1:   27
Setting up quadratic distribution...
ExtMesh (bp) on 0 =   184 x   138 x   115 =     2920080
PhiOnMesh: Number of (b)points on node 0 =                40800
PhiOnMesh: nlist on node 0 =               732928

        iscf     Eharris(eV)        E_KS(eV)     FreeEng(eV)     dDmax    Ef(eV) dHmax(eV)
   scf:    1    -2002.524944    -2002.550793    -2002.550793  0.001321 -5.086499  0.048125
     spin moment: S , {S} =    0.00000  -0.00000  -0.00000   0.00000
   scf:    2    -2002.549990    -2002.550589    -2002.550589  0.001141 -5.080935  0.119111
     spin moment: S , {S} =    0.00000  -0.00000  -0.00000   0.00000
   scf:    3    -2002.550937    -2002.550859    -2002.550859  0.000813 -5.085627  0.006620
     spin moment: S , {S} =    0.00000  -0.00000  -0.00000   0.00000
   scf:    4    -2002.550861    -2002.550861    -2002.550861  0.000052 -5.086488  0.001584
     spin moment: S , {S} =    0.00000  -0.00000  -0.00000   0.00000
   scf:    5    -2002.550861    -2002.550861    -2002.550861  0.000017 -5.086866  0.000213
     spin moment: S , {S} =    0.00000  -0.00000  -0.00000   0.00000
   scf:    6    -2002.550861    -2002.550861    -2002.550861  0.000004 -5.086915  0.000074
     spin moment: S , {S} =    0.00000  -0.00000  -0.00000   0.00000
   scf:    7    -2002.550861    -2002.550861    -2002.550861  0.000003 -5.086925  0.000014
     spin moment: S , {S} =    0.00000  -0.00000  -0.00000   0.00000
   scf:    8    -2002.550861    -2002.550861    -2002.550861  0.000001 -5.086926  0.000007
     spin moment: S , {S} =    0.00000  -0.00000  -0.00000   0.00000
   scf:    9    -2002.550861    -2002.550861    -2002.550861  0.000000 -5.086926  0.000002
     spin moment: S , {S} =    0.00000  -0.00000  -0.00000   0.00000
   scf:   10    -2002.550861    -2002.550861    -2002.550861  0.000000 -5.086926  0.000001
     spin moment: S , {S} =    0.00000  -0.00000  -0.00000   0.00000
   scf:   11    -2002.550861    -2002.550861    -2002.550861  0.000000 -5.086926  0.000000
     spin moment: S , {S} =    0.00000  -0.00000  -0.00000   0.00000

SCF Convergence by DM+H criterion
max |DM_out - DM_in|         :     0.0000000281
max |H_out - H_in|      (eV) :     0.0000004781
SCF cycle converged after 11 iterations

Using DM_out to compute the final energy and forces
No. of atoms with KB's overlaping orbs in proc 0. Max # of overlaps:      17     138

siesta: E_KS(eV) =            -2002.5509
     spin moment: S , {S} =    0.00000  -0.00000  -0.00000   0.00000

siesta: Atomic forces (eV/Ang):
     1   -0.104820    0.094375   -0.052915
     2    0.101846   -0.101557   -0.006174
     3    0.003002   -0.001257   -0.013600
     4   -0.004514   -0.104326    0.003517
     5    0.003514    0.005787    0.159090
     6    0.001423   -0.007606   -0.003867
     7    0.004818   -0.134219    0.005856
     8    0.074558    0.013346    0.124420
     9   -0.004933    0.023106    0.002814
    10    0.031141   -0.099270   -0.063141
    11   -0.051538   -0.108923   -0.000856
    12   -0.000515   -0.001024   -0.007650
    13    0.001512   -0.003083   -0.000009
    14    0.007336   -0.000636    0.011487
    15   -0.004287    0.006532   -0.001981
    16    0.065529    0.003908    0.000132
    17   -0.020685   -0.012761    0.126888
    18    0.011226    0.014180   -0.055712
----------------------------------------
   Tot    0.114612   -0.413428    0.228299
----------------------------------------
   Max    0.159090
   Res    0.056749    sqrt( Sum f_i^2 / 3N )
----------------------------------------
   Max    0.159090    constrained

Stress tensor Voigt[x,y,z,yz,xz,xy] (kbar):       -1.10       -0.55       -1.11        0.08       -0.01       -0.00
(Free)E + p*V (eV/cell)    -2000.8811
Target enthalpy (eV/cell)    -2002.5509

siesta: Stress tensor (static) (eV/Ang**3):
        -0.000681   -0.000002   -0.000005
        -0.000002   -0.000342    0.000048
        -0.000005    0.000048   -0.000690

siesta: Pressure (static):          0.91501012  kBar

siesta: Stress tensor (total) (eV/Ang**3):
        -0.000684   -0.000002   -0.000007
        -0.000002   -0.000345    0.000048
        -0.000007    0.000048   -0.000693

siesta: Pressure (total):          0.91926443  kBar

siesta: Temp_ion =       0.444 K

                     ====================================
                        Begin MD quenched step =      3
                     ====================================

outcoor: Atomic coordinates (Ang):                          
   -0.70716726    8.71361114    1.79198618   1       1  H
   -0.00114000    8.01752848    1.70515414   2       2  O
    0.83250483    7.73127108    3.21632342   3       3  Si
   -0.08904437    6.95893162    4.12722670   1       4  H
    1.15515092    9.07214805    3.85506600   1       5  H
    2.86934586    6.70590529    2.60751933   3       6  Si
    3.82184266    6.78372996    3.76817852   1       7  H
    2.75318952    5.02207201    2.14960426   2       8  O
    2.28615815    4.52347158    0.52588407   3       9  Si
    3.28922135    3.52460584    0.00197049   1      10  H
    0.97582881    3.78883455    0.62834273   1      11  H
    3.43899914    7.88699955    0.65210742   3      12  Si
    3.02001096    9.33776460    0.71693822   1      13  H
    2.19924457    6.49377564   -0.79661986   3      14  Si
    0.78441699    6.96311677   -0.98679702   1      15  H
    2.84352619    6.34066815   -2.15321806   1      16  H
    5.15223905    7.75155318    0.35665682   2      17  O
    5.42188300    7.93554405   -0.58086887   1      18  H

outcell: Unit cell vectors (Ang):
       14.215213    0.000000    0.000000
        0.000000   14.093032    0.000000
        0.000000    0.000000   14.526675

outcell: Cell vector modules (Ang)   :   14.215213   14.093032   14.526675
outcell: Cell angles (23,13,12) (deg):     90.0000     90.0000     90.0000
outcell: Cell volume (Ang**3)        :   2910.2080
<dSpData1D:S at geom step 3
  <sparsity:sparsity for geom step 3
    nrows_g=154 nrows=34 sparsity=.2080 nnzs=4934, refcount: 8>
  <dData1D:(new from dSpData1D) n=4934, refcount: 1>
refcount: 1>
new_DM -- step:     3
Re-using DM from previous geometries...
Number of DMs in history: 2
  Estimated Rank of xi*xj matrix:            2
 matrix rank:            3
Singular values: 
  1.4143      1.4142     0.61156E-04
 DM extrapolation coefficients: 
1  -0.03258
2   1.03258
New DM after history re-use:
<dSpData2D:SpM extrapolated using coords
  <sparsity:sparsity for geom step 3
    nrows_g=154 nrows=34 sparsity=.2080 nnzs=4934, refcount: 11>
  <dData2D:(temp array for extrapolation) n=4934 m=8, refcount: 1>
refcount: 1>
     spin moment: S , {S} =    0.00000   0.00000  -0.00000   0.00000
No. of atoms with KB's overlaping orbs in proc 0. Max # of overlaps:      17     138
New grid distribution:   1
           1       1:   80    1:   40    1:   27
           2       1:   80    1:   40   28:   54
           3       1:   80    1:   40   55:   81
           4       1:   80   41:   80    1:   27
           5       1:   80   41:   80   28:   54
           6       1:   80   41:   80   55:   81

InitMesh: MESH =   160 x   160 x   162 =     4147200
InitMesh: (bp) =    80 x    80 x    81 =      518400
InitMesh: Mesh cutoff (required, used) =   340.000   343.716 Ry
ExtMesh (bp) on 0 =   184 x   144 x   127 =     3364992
New grid distribution:   2
           1       1:   80    1:   34    1:   15
           2       1:   80    1:   34   16:   81
           3       1:   17   35:   80    1:   15
           4      18:   80   35:   80    1:   15
           5      18:   80   35:   80   16:   81
           6       1:   17   35:   80   16:   81
New grid distribution:   3
           1       1:   29   32:   80    1:   27
           2       1:   80    1:   33   28:   81
           3       1:   24   34:   80   28:   81
           4      30:   80   32:   80    1:   27
           5      25:   80   34:   80   28:   81
           6       1:   80    1:   31    1:   27
Setting up quadratic distribution...
ExtMesh (bp) on 0 =   184 x   138 x   115 =     2920080
PhiOnMesh: Number of (b)points on node 0 =                40800
PhiOnMesh: nlist on node 0 =               732932

        iscf     Eharris(eV)        E_KS(eV)     FreeEng(eV)     dDmax    Ef(eV) dHmax(eV)
   scf:    1    -2002.555301    -2002.551004    -2002.551004  0.000439 -5.088434  0.005159
     spin moment: S , {S} =    0.00000  -0.00000  -0.00000   0.00000
   scf:    2    -2002.550987    -2002.551000    -2002.551000  0.000118 -5.090629  0.012087
     spin moment: S , {S} =    0.00000  -0.00000  -0.00000   0.00000
   scf:    3    -2002.551007    -2002.551005    -2002.551005  0.000082 -5.089124  0.000452
     spin moment: S , {S} =    0.00000  -0.00000  -0.00000   0.00000
   scf:    4    -2002.551006    -2002.551005    -2002.551005  0.000005 -5.089110  0.000166
     spin moment: S , {S} =    0.00000  -0.00000  -0.00000   0.00000
   scf:    5    -2002.551006    -2002.551005    -2002.551005  0.000004 -5.089114  0.000057
     spin moment: S , {S} =    0.00000  -0.00000  -0.00000   0.00000
   scf:    6    -2002.551005    -2002.551005    -2002.551005  0.000002 -5.089125  0.000021
     spin moment: S , {S} =    0.00000  -0.00000  -0.00000   0.00000
   scf:    7    -2002.551005    -2002.551005    -2002.551005  0.000001 -5.089130  0.000004
     spin moment: S , {S} =    0.00000  -0.00000  -0.00000   0.00000
   scf:    8    -2002.551005    -2002.551005    -2002.551005  0.000000 -5.089131  0.000002
     spin moment: S , {S} =    0.00000  -0.00000  -0.00000   0.00000
   scf:    9    -2002.551005    -2002.551005    -2002.551005  0.000000 -5.089131  0.000001
     spin moment: S , {S} =    0.00000  -0.00000  -0.00000   0.00000

SCF Convergence by DM+H criterion
max |DM_out - DM_in|         :     0.0000000824
max |H_out - H_in|      (eV) :     0.0000007022
SCF cycle converged after 9 iterations

Using DM_out to compute the final energy and forces
No. of atoms with KB's overlaping orbs in proc 0. Max # of overlaps:      17     138

siesta: E_KS(eV) =            -2002.5510
     spin moment: S , {S} =    0.00000  -0.00000  -0.00000   0.00000

siesta: Atomic forces (eV/Ang):
     1   -0.097744    0.089427   -0.051084
     2    0.090241   -0.091110   -0.008950
     3    0.002762   -0.001044   -0.005764
     4   -0.001857   -0.094331    0.000339
     5    0.002008    0.003168    0.143162
     6    0.002601   -0.007976   -0.004179
     7    0.002801   -0.124656    0.003724
     8    0.072999    0.012463    0.121711
     9   -0.004942    0.020645    0.002151
    10    0.023969   -0.091065   -0.058734
    11   -0.044864   -0.099190   -0.000882
    12    0.002102   -0.000547   -0.011176
    13    0.001119   -0.002236    0.000119
    14    0.007330   -0.000551    0.011141
    15   -0.004245    0.006181   -0.001991
    16    0.059412    0.003169    0.000102
    17   -0.009370   -0.008333    0.102174
    18   -0.004487    0.009668   -0.030393
----------------------------------------
   Tot    0.099836   -0.376318    0.211471
----------------------------------------
   Max    0.143162
   Res    0.051326    sqrt( Sum f_i^2 / 3N )
----------------------------------------
   Max    0.143162    constrained

Stress tensor Voigt[x,y,z,yz,xz,xy] (kbar):       -1.08       -0.54       -1.09        0.07       -0.02       -0.00
(Free)E + p*V (eV/cell)    -2000.9049
Target enthalpy (eV/cell)    -2002.5510

siesta: Stress tensor (static) (eV/Ang**3):
        -0.000676   -0.000002   -0.000011
        -0.000002   -0.000339    0.000047
        -0.000011    0.000047   -0.000682

siesta: Pressure (static):          0.90591044  kBar

siesta: Stress tensor (total) (eV/Ang**3):
        -0.000676   -0.000002   -0.000011
        -0.000002   -0.000339    0.000047
        -0.000011    0.000047   -0.000682

siesta: Pressure (total):          0.90626595  kBar

siesta: Temp_ion =       0.203 K

                     ====================================
                        Begin MD quenched step =      4
                     ====================================

outcoor: Atomic coordinates (Ang):                          
   -0.70752328    8.71393505    1.79180233   1       1  H
   -0.00111092    8.01749948    1.70515234   2       2  O
    0.83250520    7.73127094    3.21609119   3       3  Si
   -0.08905859    6.95858428    4.12723460   1       4  H
    1.15516468    9.07216559    3.85559405   1       5  H
    2.86934627    6.70590365    2.60751859   3       6  Si
    3.82185969    6.78327528    3.76819942   1       7  H
    2.75320603    5.02207634    2.14963179   2       8  O
    2.28615752    4.52347433    0.52588476   3       9  Si
    3.28935060    3.52427223    0.00175638   1      10  H
    0.97566134    3.78847024    0.62833640   1      11  H
    3.43899929    7.88699944    0.65210575   3      12  Si
    3.02001750    9.33774931    0.71693837   1      13  H
    2.19924550    6.49377556   -0.79661842   3      14  Si
    0.78440050    6.96315197   -0.98680815   1      15  H
    2.84374474    6.34068469   -2.15321305   1      16  H
    5.15223390    7.75155011    0.35668160   2      17  O
    5.42187768    7.93560200   -0.58100699   1      18  H

outcell: Unit cell vectors (Ang):
       14.215213    0.000000    0.000000
        0.000000   14.093032    0.000000
        0.000000    0.000000   14.526675

outcell: Cell vector modules (Ang)   :   14.215213   14.093032   14.526675
outcell: Cell angles (23,13,12) (deg):     90.0000     90.0000     90.0000
outcell: Cell volume (Ang**3)        :   2910.2080
<dSpData1D:S at geom step 4
  <sparsity:sparsity for geom step 4
    nrows_g=154 nrows=34 sparsity=.2080 nnzs=4934, refcount: 8>
  <dData1D:(new from dSpData1D) n=4934, refcount: 1>
refcount: 1>
new_DM -- step:     4
Re-using DM from previous geometries...
Number of DMs in history: 3
  Estimated Rank of xi*xj matrix:            3
 matrix rank:            4
Singular values: 
  1.7321      1.7320     0.86643E-04 0.56594E-05
 DM extrapolation coefficients: 
1   0.17484
2  -0.38050
3   1.20567
New DM after history re-use:
<dSpData2D:SpM extrapolated using coords
  <sparsity:sparsity for geom step 4
    nrows_g=154 nrows=34 sparsity=.2080 nnzs=4934, refcount: 12>
  <dData2D:(temp array for extrapolation) n=4934 m=8, refcount: 1>
refcount: 1>
     spin moment: S , {S} =    0.00000  -0.00000  -0.00000   0.00000
No. of atoms with KB's overlaping orbs in proc 0. Max # of overlaps:      17     138
New grid distribution:   1
           1       1:   80    1:   40    1:   27
           2       1:   80    1:   40   28:   54
           3       1:   80    1:   40   55:   81
           4       1:   80   41:   80    1:   27
           5       1:   80   41:   80   28:   54
           6       1:   80   41:   80   55:   81

InitMesh: MESH =   160 x   160 x   162 =     4147200
InitMesh: (bp) =    80 x    80 x    81 =      518400
InitMesh: Mesh cutoff (required, used) =   340.000   343.716 Ry
ExtMesh (bp) on 0 =   184 x   144 x   127 =     3364992
New grid distribution:   2
           1       1:   80    1:   34    1:   15
           2       1:   80    1:   34   16:   81
           3       1:   17   35:   80    1:   15
           4      18:   80   35:   80    1:   15
           5      18:   80   35:   80   16:   81
           6       1:   17   35:   80   16:   81
New grid distribution:   3
           1       1:   29   32:   80    1:   27
           2       1:   80    1:   33   28:   81
           3       1:   24   34:   80   28:   81
           4      30:   80   32:   80    1:   27
           5      25:   80   34:   80   28:   81
           6       1:   80    1:   31    1:   27
Setting up quadratic distribution...
ExtMesh (bp) on 0 =   184 x   138 x   115 =     2920080
PhiOnMesh: Number of (b)points on node 0 =                40800
PhiOnMesh: nlist on node 0 =               732940

        iscf     Eharris(eV)        E_KS(eV)     FreeEng(eV)     dDmax    Ef(eV) dHmax(eV)
   scf:    1    -2002.549670    -2002.551318    -2002.551318  0.000126 -5.089264  0.003292
     spin moment: S , {S} =    0.00000  -0.00000  -0.00000   0.00000
   scf:    2    -2002.551316    -2002.551317    -2002.551317  0.000079 -5.090821  0.005503
     spin moment: S , {S} =    0.00000  -0.00000  -0.00000   0.00000
   scf:    3    -2002.551319    -2002.551318    -2002.551318  0.000047 -5.089853  0.000522
     spin moment: S , {S} =    0.00000  -0.00000  -0.00000   0.00000
   scf:    4    -2002.551318    -2002.551318    -2002.551318  0.000004 -5.089904  0.000086
     spin moment: S , {S} =    0.00000  -0.00000  -0.00000   0.00000
   scf:    5    -2002.551318    -2002.551318    -2002.551318  0.000002 -5.089930  0.000020
     spin moment: S , {S} =    0.00000  -0.00000  -0.00000   0.00000
   scf:    6    -2002.551318    -2002.551318    -2002.551318  0.000001 -5.089939  0.000005
     spin moment: S , {S} =    0.00000  -0.00000  -0.00000   0.00000
   scf:    7    -2002.551318    -2002.551318    -2002.551318  0.000000 -5.089941  0.000001
     spin moment: S , {S} =    0.00000  -0.00000  -0.00000   0.00000
   scf:    8    -2002.551318    -2002.551318    -2002.551318  0.000000 -5.089941  0.000000
     spin moment: S , {S} =    0.00000  -0.00000  -0.00000   0.00000

SCF Convergence by DM+H criterion
max |DM_out - DM_in|         :     0.0000000446
max |H_out - H_in|      (eV) :     0.0000004482
SCF cycle converged after 8 iterations

Using DM_out to compute the final energy and forces
No. of atoms with KB's overlaping orbs in proc 0. Max # of overlaps:      17     138

siesta: E_KS(eV) =            -2002.5513
     spin moment: S , {S} =    0.00000  -0.00000  -0.00000   0.00000

siesta: Atomic forces (eV/Ang):
     1   -0.077672    0.075818   -0.044818
     2    0.064929   -0.066873   -0.010748
     3    0.001656   -0.000192    0.004771
     4    0.002152   -0.067602   -0.004477
     5   -0.000962   -0.001417    0.096764
     6    0.003536   -0.008143   -0.004319
     7   -0.001206   -0.095955   -0.001043
     8    0.068425    0.010425    0.113353
     9   -0.005289    0.013956    0.001083
    10    0.008379   -0.067578   -0.046158
    11   -0.026965   -0.070444   -0.001240
    12    0.002274   -0.000806   -0.010739
    13    0.000560   -0.000934    0.000137
    14    0.007662   -0.000509    0.010054
    15   -0.003913    0.005744   -0.002050
    16    0.042463    0.001398    0.000342
    17   -0.005762   -0.006168    0.088476
    18   -0.006519    0.008171   -0.023744
----------------------------------------
   Tot    0.073748   -0.271109    0.165646
----------------------------------------
   Max    0.113353
   Res    0.040121    sqrt( Sum f_i^2 / 3N )
----------------------------------------
   Max    0.113353    constrained

Stress tensor Voigt[x,y,z,yz,xz,xy] (kbar):       -1.07       -0.53       -1.09        0.08       -0.02       -0.01
(Free)E + p*V (eV/cell)    -2000.9247
Target enthalpy (eV/cell)    -2002.5513

siesta: Stress tensor (static) (eV/Ang**3):
        -0.000667   -0.000005   -0.000014
        -0.000005   -0.000331    0.000048
        -0.000014    0.000048   -0.000678

siesta: Pressure (static):          0.89538137  kBar

siesta: Stress tensor (total) (eV/Ang**3):
        -0.000667   -0.000005   -0.000014
        -0.000005   -0.000331    0.000048
        -0.000014    0.000048   -0.000679

siesta: Pressure (total):          0.89554400  kBar

siesta: Temp_ion =       0.196 K

                     ====================================
                        Begin MD quenched step =      5
                     ====================================

outcoor: Atomic coordinates (Ang):                          
   -0.70806347    8.71443874    1.79151221   1       1  H
   -0.00107212    8.01746047    1.70514893   2       2  O
    0.83250570    7.73127078    3.21609139   3       3  Si
   -0.08905604    6.95807665    4.12722930   1       4  H
    1.15516354    9.07216391    3.85635153   1       5  H
    2.86934697    6.70590130    2.60751748   3       6  Si
    3.82185826    6.78259308    3.76819818   1       7  H
    2.75323277    5.02208222    2.14967628   2       8  O
    2.28615643    4.52347826    0.52588555   3       9  Si
    3.28949972    3.52377840    0.00143282   1      10  H
    0.97542993    3.78793890    0.62832713   1      11  H
    3.43899964    7.88699927    0.65210318   3      12  Si
    3.02002538    9.33773181    0.71693883   1      13  H
    2.19924709    6.49377544   -0.79661612   3      14  Si
    0.78437472    6.96320080   -0.98682414   1      15  H
    2.84406398    6.34070455   -2.15320722   1      16  H
    5.15222790    7.75154611    0.35671964   2      17  O
    5.42185690    7.93567933   -0.58120140   1      18  H

outcell: Unit cell vectors (Ang):
       14.215213    0.000000    0.000000
        0.000000   14.093032    0.000000
        0.000000    0.000000   14.526675

outcell: Cell vector modules (Ang)   :   14.215213   14.093032   14.526675
outcell: Cell angles (23,13,12) (deg):     90.0000     90.0000     90.0000
outcell: Cell volume (Ang**3)        :   2910.2080
<dSpData1D:S at geom step 5
  <sparsity:sparsity for geom step 5
    nrows_g=154 nrows=34 sparsity=.2080 nnzs=4934, refcount: 8>
  <dData1D:(new from dSpData1D) n=4934, refcount: 1>
refcount: 1>
new_DM -- step:     5
Re-using DM from previous geometries...
Number of DMs in history: 3
  Estimated Rank of xi*xj matrix:            3
 matrix rank:            3
Singular values: 
  1.7321      1.7320     0.10799E-04 0.16920E-05
 DM extrapolation coefficients: 
1  -0.54627
2   0.55394
3   0.99232
New DM after history re-use:
<dSpData2D:SpM extrapolated using coords
  <sparsity:sparsity for geom step 5
    nrows_g=154 nrows=34 sparsity=.2080 nnzs=4934, refcount: 12>
  <dData2D:(temp array for extrapolation) n=4934 m=8, refcount: 1>
refcount: 1>
     spin moment: S , {S} =    0.00000  -0.00000   0.00000   0.00000
No. of atoms with KB's overlaping orbs in proc 0. Max # of overlaps:      17     138
New grid distribution:   1
           1       1:   80    1:   40    1:   27
           2       1:   80    1:   40   28:   54
           3       1:   80    1:   40   55:   81
           4       1:   80   41:   80    1:   27
           5       1:   80   41:   80   28:   54
           6       1:   80   41:   80   55:   81

InitMesh: MESH =   160 x   160 x   162 =     4147200
InitMesh: (bp) =    80 x    80 x    81 =      518400
InitMesh: Mesh cutoff (required, used) =   340.000   343.716 Ry
ExtMesh (bp) on 0 =   184 x   144 x   127 =     3364992
New grid distribution:   2
           1       1:   80    1:   34    1:   15
           2       1:   80    1:   34   16:   81
           3       1:   17   35:   80    1:   15
           4      18:   80   35:   80    1:   15
           5      18:   80   35:   80   16:   81
           6       1:   17   35:   80   16:   81
New grid distribution:   3
           1       1:   29   32:   80    1:   27
           2       1:   80    1:   33   28:   81
           3       1:   24   34:   80   28:   81
           4      30:   80   32:   80    1:   27
           5      25:   80   34:   80   28:   81
           6       1:   80    1:   31    1:   27
Setting up quadratic distribution...
ExtMesh (bp) on 0 =   184 x   138 x   115 =     2920080
PhiOnMesh: Number of (b)points on node 0 =                40800
PhiOnMesh: nlist on node 0 =               732953

        iscf     Eharris(eV)        E_KS(eV)     FreeEng(eV)     dDmax    Ef(eV) dHmax(eV)
   scf:    1    -2002.555782    -2002.551607    -2002.551607  0.000320 -5.089980  0.009703
     spin moment: S , {S} =    0.00000  -0.00000   0.00000   0.00000
   scf:    2    -2002.551565    -2002.551596    -2002.551596  0.000269 -5.091612  0.024993
     spin moment: S , {S} =    0.00000  -0.00000   0.00000   0.00000
   scf:    3    -2002.551615    -2002.551611    -2002.551611  0.000190 -5.090307  0.001443
     spin moment: S , {S} =    0.00000  -0.00000   0.00000   0.00000
   scf:    4    -2002.551611    -2002.551611    -2002.551611  0.000011 -5.090126  0.000360
     spin moment: S , {S} =    0.00000  -0.00000   0.00000   0.00000
   scf:    5    -2002.551611    -2002.551611    -2002.551611  0.000004 -5.090048  0.000063
     spin moment: S , {S} =    0.00000  -0.00000   0.00000   0.00000
   scf:    6    -2002.551611    -2002.551611    -2002.551611  0.000001 -5.090034  0.000022
     spin moment: S , {S} =    0.00000  -0.00000   0.00000   0.00000
   scf:    7    -2002.551611    -2002.551611    -2002.551611  0.000001 -5.090036  0.000004
     spin moment: S , {S} =    0.00000  -0.00000   0.00000   0.00000
   scf:    8    -2002.551611    -2002.551611    -2002.551611  0.000000 -5.090037  0.000002
     spin moment: S , {S} =    0.00000  -0.00000   0.00000   0.00000
   scf:    9    -2002.551611    -2002.551611    -2002.551611  0.000000 -5.090037  0.000001
     spin moment: S , {S} =    0.00000  -0.00000   0.00000   0.00000

SCF Convergence by DM+H criterion
max |DM_out - DM_in|         :     0.0000000820
max |H_out - H_in|      (eV) :     0.0000006063
SCF cycle converged after 9 iterations

Using DM_out to compute the final energy and forces
No. of atoms with KB's overlaping orbs in proc 0. Max # of overlaps:      17     138

siesta: E_KS(eV) =            -2002.5516
     spin moment: S , {S} =    0.00000  -0.00000   0.00000   0.00000

siesta: Atomic forces (eV/Ang):
     1   -0.045657    0.054363   -0.032872
     2    0.030661   -0.032608   -0.008352
     3   -0.000360    0.001314    0.010331
     4    0.004175   -0.029796   -0.006296
     5   -0.001792   -0.005618    0.027873
     6    0.003921   -0.008167   -0.004278
     7   -0.003424   -0.049749   -0.003779
     8    0.060990    0.007582    0.099790
     9   -0.005891    0.004480   -0.000390
    10   -0.011059   -0.030631   -0.025001
    11   -0.003727   -0.026966   -0.000860
    12    0.002231   -0.001005   -0.010152
    13   -0.000099    0.000542    0.000133
    14    0.008090   -0.000431    0.008482
    15   -0.003381    0.005128   -0.002117
    16    0.018566   -0.001339    0.000387
    17   -0.001044   -0.003228    0.068583
    18   -0.009312    0.006070   -0.014470
----------------------------------------
   Tot    0.042889   -0.110060    0.107013
----------------------------------------
   Max    0.099790
   Res    0.025299    sqrt( Sum f_i^2 / 3N )
----------------------------------------
   Max    0.099790    constrained

Stress tensor Voigt[x,y,z,yz,xz,xy] (kbar):       -1.05       -0.51       -1.08        0.08       -0.03       -0.02
(Free)E + p*V (eV/cell)    -2000.9539
Target enthalpy (eV/cell)    -2002.5516

siesta: Stress tensor (static) (eV/Ang**3):
        -0.000655   -0.000011   -0.000017
        -0.000011   -0.000320    0.000048
        -0.000017    0.000048   -0.000672

siesta: Pressure (static):          0.87946500  kBar

siesta: Stress tensor (total) (eV/Ang**3):
        -0.000655   -0.000011   -0.000017
        -0.000011   -0.000320    0.000048
        -0.000017    0.000048   -0.000672

siesta: Pressure (total):          0.87962177  kBar

siesta: Temp_ion =       0.322 K

                     ====================================
                        Begin MD quenched step =      6
                     ====================================

outcoor: Atomic coordinates (Ang):                          
   -0.70871191    8.71507133    1.79114414   1       1  H
   -0.00102873    8.01741658    1.70514427   2       2  O
    0.83250569    7.73127084    3.21609248   3       3  Si
   -0.08904359    6.95749837    4.12720906   1       4  H
    1.15515815    9.07214891    3.85717510   1       5  H
    2.86934801    6.70589827    2.60751601   3       6  Si
    3.82184872    6.78179292    3.76818798   1       7  H
    2.75326865    5.02208923    2.14973571   2       8  O
    2.28615485    4.52348258    0.52588553   3       9  Si
    3.28948661    3.52321193    0.00104998   1      10  H
    0.97518969    3.78734362    0.62831582   1      11  H
    3.43900019    7.88699901    0.65209974   3      12  Si
    3.02002526    9.33773245    0.71693961   1      13  H
    2.19924937    6.49377527   -0.79661310   3      14  Si
    0.78434094    6.96326179   -0.98684516   1      15  H
    2.84442724    6.34070296   -2.15320048   1      16  H
    5.15222173    7.75154163    0.35676793   2      17  O
    5.42181405    7.93577104   -0.58143012   1      18  H

outcell: Unit cell vectors (Ang):
       14.215213    0.000000    0.000000
        0.000000   14.093032    0.000000
        0.000000    0.000000   14.526675

outcell: Cell vector modules (Ang)   :   14.215213   14.093032   14.526675
outcell: Cell angles (23,13,12) (deg):     90.0000     90.0000     90.0000
outcell: Cell volume (Ang**3)        :   2910.2080
<dSpData1D:S at geom step 6
  <sparsity:sparsity for geom step 6
    nrows_g=154 nrows=34 sparsity=.2080 nnzs=4934, refcount: 8>
  <dData1D:(new from dSpData1D) n=4934, refcount: 1>
refcount: 1>
new_DM -- step:     6
Re-using DM from previous geometries...
Number of DMs in history: 3
  Estimated Rank of xi*xj matrix:            3
 matrix rank:            3
Singular values: 
  1.7321      1.7320     0.14280E-04 0.47981E-07
 DM extrapolation coefficients: 
1  -0.78718
2   0.18658
3   1.60061
New DM after history re-use:
<dSpData2D:SpM extrapolated using coords
  <sparsity:sparsity for geom step 6
    nrows_g=154 nrows=34 sparsity=.2080 nnzs=4934, refcount: 12>
  <dData2D:(temp array for extrapolation) n=4934 m=8, refcount: 1>
refcount: 1>
     spin moment: S , {S} =    0.00000  -0.00000   0.00000   0.00000
No. of atoms with KB's overlaping orbs in proc 0. Max # of overlaps:      17     138
New grid distribution:   1
           1       1:   80    1:   40    1:   27
           2       1:   80    1:   40   28:   54
           3       1:   80    1:   40   55:   81
           4       1:   80   41:   80    1:   27
           5       1:   80   41:   80   28:   54
           6       1:   80   41:   80   55:   81

InitMesh: MESH =   160 x   160 x   162 =     4147200
InitMesh: (bp) =    80 x    80 x    81 =      518400
InitMesh: Mesh cutoff (required, used) =   340.000   343.716 Ry
ExtMesh (bp) on 0 =   184 x   144 x   127 =     3364992
New grid distribution:   2
           1       1:   80    1:   34    1:   15
           2       1:   80    1:   34   16:   81
           3       1:   17   35:   80    1:   15
           4      18:   80   35:   80    1:   15
           5      18:   80   35:   80   16:   81
           6       1:   17   35:   80   16:   81
New grid distribution:   3
           1       1:   29   32:   80    1:   27
           2       1:   80    1:   33   28:   81
           3       1:   24   34:   80   28:   81
           4      30:   80   32:   80    1:   27
           5      25:   80   34:   80   28:   81
           6       1:   80    1:   31    1:   27
Setting up quadratic distribution...
ExtMesh (bp) on 0 =   184 x   138 x   115 =     2920080
PhiOnMesh: Number of (b)points on node 0 =                40800
PhiOnMesh: nlist on node 0 =               732956

        iscf     Eharris(eV)        E_KS(eV)     FreeEng(eV)     dDmax    Ef(eV) dHmax(eV)
   scf:    1    -2002.552298    -2002.551706    -2002.551706  0.000059 -5.090541  0.001828
     spin moment: S , {S} =    0.00000   0.00000   0.00000   0.00000
   scf:    2    -2002.551705    -2002.551706    -2002.551706  0.000061 -5.089134  0.003773
     spin moment: S , {S} =    0.00000   0.00000  -0.00000   0.00000
   scf:    3    -2002.551707    -2002.551706    -2002.551706  0.000038 -5.090026  0.000323
     spin moment: S , {S} =    0.00000   0.00000   0.00000   0.00000
   scf:    4    -2002.551706    -2002.551706    -2002.551706  0.000003 -5.089980  0.000096
     spin moment: S , {S} =    0.00000   0.00000   0.00000   0.00000
   scf:    5    -2002.551706    -2002.551706    -2002.551706  0.000001 -5.089957  0.000016
     spin moment: S , {S} =    0.00000   0.00000  -0.00000   0.00000
   scf:    6    -2002.551706    -2002.551706    -2002.551706  0.000000 -5.089952  0.000006
     spin moment: S , {S} =    0.00000   0.00000  -0.00000   0.00000
   scf:    7    -2002.551706    -2002.551706    -2002.551706  0.000000 -5.089949  0.000001
     spin moment: S , {S} =    0.00000   0.00000  -0.00000   0.00000
   scf:    8    -2002.551706    -2002.551706    -2002.551706  0.000000 -5.089949  0.000000
     spin moment: S , {S} =    0.00000   0.00000  -0.00000   0.00000

SCF Convergence by DM+H criterion
max |DM_out - DM_in|         :     0.0000000456
max |H_out - H_in|      (eV) :     0.0000003465
SCF cycle converged after 8 iterations

Using DM_out to compute the final energy and forces
No. of atoms with KB's overlaping orbs in proc 0. Max # of overlaps:      17     138

siesta: E_KS(eV) =            -2002.5517
     spin moment: S , {S} =    0.00000   0.00000  -0.00000   0.00000

siesta: Atomic forces (eV/Ang):
     1   -0.003877    0.026550   -0.014034
     2   -0.009973    0.008006   -0.005425
     3   -0.002708    0.002864    0.016239
     4    0.005494    0.012041   -0.004698
     5   -0.001414   -0.010277   -0.036965
     6    0.004216   -0.008189   -0.004375
     7   -0.002307    0.006354   -0.002170
     8    0.051254    0.004171    0.081663
     9   -0.007599   -0.005044   -0.001388
    10   -0.020012    0.013121    0.001068
    11    0.017127    0.021473    0.000703
    12    0.002043   -0.000901   -0.009412
    13   -0.000163    0.000475    0.000009
    14    0.008502   -0.000332    0.006671
    15   -0.002690    0.004352   -0.002159
    16   -0.006929   -0.003321   -0.000182
    17    0.004239    0.000171    0.044370
    18   -0.012446    0.003623   -0.003688
----------------------------------------
   Tot    0.022759    0.075139    0.066226
----------------------------------------
   Max    0.081663
   Res    0.017433    sqrt( Sum f_i^2 / 3N )
----------------------------------------
   Max    0.081663    constrained

Stress tensor Voigt[x,y,z,yz,xz,xy] (kbar):       -1.03       -0.49       -1.06        0.08       -0.03       -0.03
(Free)E + p*V (eV/cell)    -2000.9869
Target enthalpy (eV/cell)    -2002.5517

siesta: Stress tensor (static) (eV/Ang**3):
        -0.000641   -0.000017   -0.000021
        -0.000017   -0.000307    0.000049
        -0.000021    0.000049   -0.000664

siesta: Pressure (static):          0.86124439  kBar

siesta: Stress tensor (total) (eV/Ang**3):
        -0.000641   -0.000017   -0.000021
        -0.000017   -0.000307    0.000049
        -0.000021    0.000049   -0.000664

siesta: Pressure (total):          0.86150189  kBar

siesta: Temp_ion =       0.118 K

                     ====================================
                        Begin MD quenched step =      7
                     ====================================

outcoor: Atomic coordinates (Ang):                          
   -0.70936955    8.71576686    1.79074281   1       1  H
   -0.00102948    8.01741718    1.70513880   2       2  O
    0.83250544    7.73127114    3.21609494   3       3  Si
   -0.08901811    6.95751264    4.12717769   1       4  H
    1.15514941    9.07210954    3.85713128   1       5  H
    2.86934941    6.70589453    2.60751416   3       6  Si
    3.82183370    6.78180045    3.76817264   1       7  H
    2.75331220    5.02209687    2.14980736   2       8  O
    2.28615262    4.52348236    0.52588540   3       9  Si
    3.28942605    3.52322749    0.00105125   1      10  H
    0.97520999    3.78736908    0.62831665   1      11  H
    3.43900090    7.88699867    0.65209549   3      12  Si
    3.02002476    9.33773422    0.71694042   1      13  H
    2.19925238    6.49377508   -0.79660951   3      14  Si
    0.78430077    6.96333309   -0.98687129   1      15  H
    2.84441902    6.34069350   -2.15320070   1      16  H
    5.15222205    7.75154164    0.35682287   2      17  O
    5.42174168    7.93587135   -0.58166758   1      18  H

outcell: Unit cell vectors (Ang):
       14.215213    0.000000    0.000000
        0.000000   14.093032    0.000000
        0.000000    0.000000   14.526675

outcell: Cell vector modules (Ang)   :   14.215213   14.093032   14.526675
outcell: Cell angles (23,13,12) (deg):     90.0000     90.0000     90.0000
outcell: Cell volume (Ang**3)        :   2910.2080
<dSpData1D:S at geom step 7
  <sparsity:sparsity for geom step 7
    nrows_g=154 nrows=34 sparsity=.2080 nnzs=4934, refcount: 8>
  <dData1D:(new from dSpData1D) n=4934, refcount: 1>
refcount: 1>
new_DM -- step:     7
Re-using DM from previous geometries...
Number of DMs in history: 3
  Estimated Rank of xi*xj matrix:            3
 matrix rank:            3
Singular values: 
  1.7321      1.7320     0.23037E-04 0.22991E-07
 DM extrapolation coefficients: 
1  -0.30352
2   0.30258
3   1.00093
New DM after history re-use:
<dSpData2D:SpM extrapolated using coords
  <sparsity:sparsity for geom step 7
    nrows_g=154 nrows=34 sparsity=.2080 nnzs=4934, refcount: 12>
  <dData2D:(temp array for extrapolation) n=4934 m=8, refcount: 1>
refcount: 1>
     spin moment: S , {S} =    0.00000  -0.00000   0.00000   0.00000
No. of atoms with KB's overlaping orbs in proc 0. Max # of overlaps:      17     138
New grid distribution:   1
           1       1:   80    1:   40    1:   27
           2       1:   80    1:   40   28:   54
           3       1:   80    1:   40   55:   81
           4       1:   80   41:   80    1:   27
           5       1:   80   41:   80   28:   54
           6       1:   80   41:   80   55:   81

InitMesh: MESH =   160 x   160 x   162 =     4147200
InitMesh: (bp) =    80 x    80 x    81 =      518400
InitMesh: Mesh cutoff (required, used) =   340.000   343.716 Ry
ExtMesh (bp) on 0 =   184 x   144 x   127 =     3364992
New grid distribution:   2
           1       1:   80    1:   34    1:   15
           2       1:   80    1:   34   16:   81
           3       1:   17   35:   80    1:   15
           4      18:   80   35:   80    1:   15
           5      18:   80   35:   80   16:   81
           6       1:   17   35:   80   16:   81
New grid distribution:   3
           1       1:   29   32:   80    1:   27
           2       1:   80    1:   33   28:   81
           3       1:   24   34:   80   28:   81
           4      30:   80   32:   80    1:   27
           5      25:   80   34:   80   28:   81
           6       1:   80    1:   31    1:   27
Setting up quadratic distribution...
ExtMesh (bp) on 0 =   184 x   138 x   115 =     2920080
PhiOnMesh: Number of (b)points on node 0 =                40800
PhiOnMesh: nlist on node 0 =               732944

        iscf     Eharris(eV)        E_KS(eV)     FreeEng(eV)     dDmax    Ef(eV) dHmax(eV)
   scf:    1    -2002.555115    -2002.551716    -2002.551716  0.000270 -5.090295  0.007217
     spin moment: S , {S} =    0.00000   0.00000  -0.00000   0.00000
   scf:    2    -2002.551708    -2002.551714    -2002.551714  0.000149 -5.087345  0.009673
     spin moment: S , {S} =    0.00000   0.00000  -0.00000   0.00000
   scf:    3    -2002.551718    -2002.551717    -2002.551717  0.000085 -5.089036  0.001319
     spin moment: S , {S} =    0.00000   0.00000  -0.00000   0.00000
   scf:    4    -2002.551717    -2002.551717    -2002.551717  0.000009 -5.088832  0.000289
     spin moment: S , {S} =    0.00000   0.00000  -0.00000   0.00000
   scf:    5    -2002.551717    -2002.551717    -2002.551717  0.000003 -5.088741  0.000039
     spin moment: S , {S} =    0.00000   0.00000  -0.00000   0.00000
   scf:    6    -2002.551717    -2002.551717    -2002.551717  0.000001 -5.088730  0.000015
     spin moment: S , {S} =    0.00000   0.00000  -0.00000   0.00000
[...]
<dSpData1D:S at geom step 27
  <sparsity:sparsity for geom step 27
    nrows_g=154 nrows=34 sparsity=.2080 nnzs=4934, refcount: 8>
  <dData1D:(new from dSpData1D) n=4934, refcount: 1>
refcount: 1>
new_DM -- step:    27
Re-using DM from previous geometries...
Number of DMs in history: 3
  Estimated Rank of xi*xj matrix:            3
 matrix rank:            2
Singular values: 
  1.7321      1.7321     0.23266E-07 0.15792E-10
 DM extrapolation coefficients: 
1   0.33333
2   0.33333
3   0.33333
New DM after history re-use:
<dSpData2D:SpM extrapolated using coords
  <sparsity:sparsity for geom step 27
    nrows_g=154 nrows=34 sparsity=.2080 nnzs=4934, refcount: 12>
  <dData2D:(temp array for extrapolation) n=4934 m=8, refcount: 1>
refcount: 1>
     spin moment: S , {S} =    0.00000   0.00000  -0.00000   0.00000
No. of atoms with KB's overlaping orbs in proc 0. Max # of overlaps:      17     138
New grid distribution:   1
           1       1:   80    1:   40    1:   27
           2       1:   80    1:   40   28:   54
           3       1:   80    1:   40   55:   81
           4       1:   80   41:   80    1:   27
           5       1:   80   41:   80   28:   54
           6       1:   80   41:   80   55:   81

InitMesh: MESH =   160 x   160 x   162 =     4147200
InitMesh: (bp) =    80 x    80 x    81 =      518400
InitMesh: Mesh cutoff (required, used) =   340.000   343.716 Ry
ExtMesh (bp) on 0 =   184 x   144 x   127 =     3364992
New grid distribution:   2
           1       1:   80    1:   34    1:   15
           2       1:   80    1:   34   16:   81
           3       1:   17   35:   80    1:   15
           4      18:   80   35:   80    1:   15
           5      18:   80   35:   80   16:   81
           6       1:   17   35:   80   16:   81
New grid distribution:   3
           1       1:   29   32:   80    1:   27
           2       1:   80    1:   33   28:   81
           3       1:   24   34:   80   28:   81
           4      30:   80   32:   80    1:   27
           5      25:   80   34:   80   28:   81
           6       1:   80    1:   31    1:   27
Setting up quadratic distribution...
ExtMesh (bp) on 0 =   184 x   138 x   115 =     2920080
PhiOnMesh: Number of (b)points on node 0 =                40800
PhiOnMesh: nlist on node 0 =               732918

        iscf     Eharris(eV)        E_KS(eV)     FreeEng(eV)     dDmax    Ef(eV) dHmax(eV)
   scf:    1    -2002.551897    -2002.551792    -2002.551792  0.000028 -5.088422  0.000611
     spin moment: S , {S} =    0.00000   0.00000  -0.00000   0.00000
   scf:    2    -2002.551792    -2002.551792    -2002.551792  0.000016 -5.088132  0.001355
     spin moment: S , {S} =    0.00000   0.00000  -0.00000   0.00000
   scf:    3    -2002.551792    -2002.551792    -2002.551792  0.000011 -5.088294  0.000152
     spin moment: S , {S} =    0.00000   0.00000  -0.00000   0.00000
   scf:    4    -2002.551792    -2002.551792    -2002.551792  0.000001 -5.088261  0.000026
     spin moment: S , {S} =    0.00000   0.00000  -0.00000   0.00000
   scf:    5    -2002.551792    -2002.551792    -2002.551792  0.000000 -5.088253  0.000004
     spin moment: S , {S} =    0.00000   0.00000  -0.00000   0.00000
   scf:    6    -2002.551792    -2002.551792    -2002.551792  0.000000 -5.088252  0.000002
     spin moment: S , {S} =    0.00000   0.00000  -0.00000   0.00000
   scf:    7    -2002.551792    -2002.551792    -2002.551792  0.000000 -5.088251  0.000000
     spin moment: S , {S} =    0.00000   0.00000  -0.00000   0.00000

SCF Convergence by DM+H criterion
max |DM_out - DM_in|         :     0.0000000782
max |H_out - H_in|      (eV) :     0.0000002084
SCF cycle converged after 7 iterations

Using DM_out to compute the final energy and forces
No. of atoms with KB's overlaping orbs in proc 0. Max # of overlaps:      17     138

siesta: E_KS(eV) =            -2002.5518
     spin moment: S , {S} =    0.00000   0.00000  -0.00000   0.00000

siesta: Atomic forces (eV/Ang):
     1    0.000593   -0.000415    0.001418
     2   -0.001284    0.002001    0.001011
     3   -0.000786    0.000576    0.005096
     4   -0.000225   -0.000161    0.000111
     5    0.000017    0.000201    0.000144
     6    0.001306   -0.001066   -0.001859
     7    0.000011   -0.000018   -0.000090
     8    0.000397   -0.001029   -0.000020
     9   -0.002042    0.000239    0.003336
    10   -0.000007   -0.000018    0.000008
    11   -0.000249   -0.000078   -0.000000
    12   -0.001968   -0.000467    0.000260
    13    0.000000   -0.000073   -0.000012
    14    0.002595    0.000820    0.002451
    15    0.000387   -0.000087    0.000075
    16   -0.000026    0.000003    0.000048
    17   -0.000561   -0.000312    0.001348
    18   -0.000693   -0.000256   -0.002476
----------------------------------------
   Tot   -0.002536   -0.000141    0.010848
----------------------------------------
   Max    0.005096
   Res    0.001261    sqrt( Sum f_i^2 / 3N )
----------------------------------------
   Max    0.005096    constrained

Stress tensor Voigt[x,y,z,yz,xz,xy] (kbar):       -1.03       -0.49       -1.06        0.07       -0.03       -0.04
(Free)E + p*V (eV/cell)    -2000.9890
Target enthalpy (eV/cell)    -2002.5518

siesta: Stress tensor (static) (eV/Ang**3):
        -0.000641   -0.000027   -0.000016
        -0.000027   -0.000308    0.000046
        -0.000016    0.000046   -0.000662

siesta: Pressure (static):          0.86036931  kBar

siesta: Stress tensor (total) (eV/Ang**3):
        -0.000641   -0.000027   -0.000016
        -0.000027   -0.000308    0.000046
        -0.000016    0.000046   -0.000662

siesta: Pressure (total):          0.86037176  kBar

siesta: Temp_ion =       0.003 K

                     ====================================
                        Begin MD quenched step =     28
                     ====================================

outcoor: Atomic coordinates (Ang):                          
   -0.70873435    8.71622951    1.79121106   1       1  H
   -0.00114763    8.01753268    1.70514028   2       2  O
    0.83245118    7.73131397    3.21635531   3       3  Si
   -0.08900095    6.95765756    4.12715187   1       4  H
    1.15514613    9.07209211    3.85670958   1       5  H
    2.86943998    6.70571085    2.60740300   3       6  Si
    3.82181023    6.78189278    3.76813824   1       7  H
    2.75347343    5.02208270    2.15003613   2       8  O
    2.28601223    4.52350550    0.52596553   3       9  Si
    3.28914751    3.52336830    0.00101074   1      10  H
    0.97539657    3.78759880    0.62832236   1      11  H
    3.43898887    7.88697343    0.65191857   3      12  Si
    3.02002209    9.33773348    0.71693498   1      13  H
    2.19939405    6.49380265   -0.79642840   3      14  Si
    0.78431748    6.96363074   -0.98696395   1      15  H
    2.84432429    6.34065844   -2.15318699   1      16  H
    5.15223315    7.75155687    0.35690509   2      17  O
    5.41923549    7.93724068   -0.58186013   1      18  H

outcell: Unit cell vectors (Ang):
       14.215213    0.000000    0.000000
        0.000000   14.093032    0.000000
        0.000000    0.000000   14.526675

outcell: Cell vector modules (Ang)   :   14.215213   14.093032   14.526675
outcell: Cell angles (23,13,12) (deg):     90.0000     90.0000     90.0000
outcell: Cell volume (Ang**3)        :   2910.2080
<dSpData1D:S at geom step 28
  <sparsity:sparsity for geom step 28
    nrows_g=154 nrows=34 sparsity=.2080 nnzs=4934, refcount: 8>
  <dData1D:(new from dSpData1D) n=4934, refcount: 1>
refcount: 1>
new_DM -- step:    28
Re-using DM from previous geometries...
Number of DMs in history: 3
  Estimated Rank of xi*xj matrix:            3
 matrix rank:            2
Singular values: 
  1.7321      1.7321     0.25083E-07 0.19284E-09
 DM extrapolation coefficients: 
1   0.33333
2   0.33333
3   0.33333
New DM after history re-use:
<dSpData2D:SpM extrapolated using coords
  <sparsity:sparsity for geom step 28
    nrows_g=154 nrows=34 sparsity=.2080 nnzs=4934, refcount: 12>
  <dData2D:(temp array for extrapolation) n=4934 m=8, refcount: 1>
refcount: 1>
     spin moment: S , {S} =    0.00000   0.00000  -0.00000   0.00000
No. of atoms with KB's overlaping orbs in proc 0. Max # of overlaps:      17     138
New grid distribution:   1
           1       1:   80    1:   40    1:   27
           2       1:   80    1:   40   28:   54
           3       1:   80    1:   40   55:   81
           4       1:   80   41:   80    1:   27
           5       1:   80   41:   80   28:   54
           6       1:   80   41:   80   55:   81

InitMesh: MESH =   160 x   160 x   162 =     4147200
InitMesh: (bp) =    80 x    80 x    81 =      518400
InitMesh: Mesh cutoff (required, used) =   340.000   343.716 Ry
ExtMesh (bp) on 0 =   184 x   144 x   127 =     3364992
New grid distribution:   2
           1       1:   80    1:   34    1:   15
           2       1:   80    1:   34   16:   81
           3       1:   17   35:   80    1:   15
           4      18:   80   35:   80    1:   15
           5      18:   80   35:   80   16:   81
           6       1:   17   35:   80   16:   81
New grid distribution:   3
           1       1:   29   32:   80    1:   27
           2       1:   80    1:   33   28:   81
           3       1:   24   34:   80   28:   81
           4      30:   80   32:   80    1:   27
           5      25:   80   34:   80   28:   81
           6       1:   80    1:   31    1:   27
Setting up quadratic distribution...
ExtMesh (bp) on 0 =   184 x   138 x   115 =     2920080
PhiOnMesh: Number of (b)points on node 0 =                40800
PhiOnMesh: nlist on node 0 =               732919

        iscf     Eharris(eV)        E_KS(eV)     FreeEng(eV)     dDmax    Ef(eV) dHmax(eV)
   scf:    1    -2002.551851    -2002.551793    -2002.551793  0.000028 -5.088370  0.000520
     spin moment: S , {S} =    0.00000   0.00000  -0.00000   0.00000
   scf:    2    -2002.551793    -2002.551793    -2002.551793  0.000015 -5.088238  0.001298
     spin moment: S , {S} =    0.00000   0.00000  -0.00000   0.00000
   scf:    3    -2002.551793    -2002.551793    -2002.551793  0.000010 -5.088309  0.000092
     spin moment: S , {S} =    0.00000   0.00000  -0.00000   0.00000
   scf:    4    -2002.551793    -2002.551793    -2002.551793  0.000001 -5.088288  0.000020
     spin moment: S , {S} =    0.00000   0.00000  -0.00000   0.00000
   scf:    5    -2002.551793    -2002.551793    -2002.551793  0.000000 -5.088283  0.000003
     spin moment: S , {S} =    0.00000   0.00000  -0.00000   0.00000
   scf:    6    -2002.551793    -2002.551793    -2002.551793  0.000000 -5.088282  0.000001
     spin moment: S , {S} =    0.00000   0.00000  -0.00000   0.00000
   scf:    7    -2002.551793    -2002.551793    -2002.551793  0.000000 -5.088281  0.000000
     spin moment: S , {S} =    0.00000   0.00000  -0.00000   0.00000

SCF Convergence by DM+H criterion
max |DM_out - DM_in|         :     0.0000000405
max |H_out - H_in|      (eV) :     0.0000002709
SCF cycle converged after 7 iterations

Using DM_out to compute the final energy and forces
No. of atoms with KB's overlaping orbs in proc 0. Max # of overlaps:      17     138

siesta: E_KS(eV) =            -2002.5518
     spin moment: S , {S} =    0.00000   0.00000  -0.00000   0.00000

siesta: Atomic forces (eV/Ang):
     1    0.000371   -0.000219    0.001098
     2   -0.001036    0.001755    0.001176
     3   -0.000604    0.000481    0.004580
     4   -0.000273   -0.000172    0.000226
     5    0.000004    0.000135    0.000079
     6    0.001130   -0.000718   -0.001604
     7    0.000004   -0.000035   -0.000066
     8    0.000030   -0.001030    0.000035
     9   -0.001825    0.000130    0.003169
    10    0.000065    0.000056    0.000028
    11   -0.000276   -0.000092    0.000032
    12   -0.001912   -0.000382    0.000384
    13   -0.000004   -0.000069    0.000009
    14    0.002430    0.000810    0.002216
    15    0.000503   -0.000114    0.000107
    16    0.000004    0.000004    0.000150
    17   -0.000480   -0.000215    0.000836
    18   -0.000609   -0.000314   -0.002226
----------------------------------------
   Tot   -0.002478    0.000012    0.010231
----------------------------------------
   Max    0.004580
   Res    0.001136    sqrt( Sum f_i^2 / 3N )
----------------------------------------
   Max    0.004580    constrained

Stress tensor Voigt[x,y,z,yz,xz,xy] (kbar):       -1.03       -0.49       -1.06        0.07       -0.03       -0.04
(Free)E + p*V (eV/cell)    -2000.9891
Target enthalpy (eV/cell)    -2002.5518

siesta: Stress tensor (static) (eV/Ang**3):
        -0.000641   -0.000027   -0.000016
        -0.000027   -0.000309    0.000046
        -0.000016    0.000046   -0.000662

siesta: Pressure (static):          0.86032659  kBar

siesta: Stress tensor (total) (eV/Ang**3):
        -0.000641   -0.000027   -0.000016
        -0.000027   -0.000309    0.000046
        -0.000016    0.000046   -0.000662

siesta: Pressure (total):          0.86032888  kBar

outcoor: Relaxed atomic coordinates (Ang):                  
   -0.70873435    8.71622951    1.79121106   1       1  H
   -0.00114763    8.01753268    1.70514028   2       2  O
    0.83245118    7.73131397    3.21635531   3       3  Si
   -0.08900095    6.95765756    4.12715187   1       4  H
    1.15514613    9.07209211    3.85670958   1       5  H
    2.86943998    6.70571085    2.60740300   3       6  Si
    3.82181023    6.78189278    3.76813824   1       7  H
    2.75347343    5.02208270    2.15003613   2       8  O
    2.28601223    4.52350550    0.52596553   3       9  Si
    3.28914751    3.52336830    0.00101074   1      10  H
    0.97539657    3.78759880    0.62832236   1      11  H
    3.43898887    7.88697343    0.65191857   3      12  Si
    3.02002209    9.33773348    0.71693498   1      13  H
    2.19939405    6.49380265   -0.79642840   3      14  Si
    0.78431748    6.96363074   -0.98696395   1      15  H
    2.84432429    6.34065844   -2.15318699   1      16  H
    5.15223315    7.75155687    0.35690509   2      17  O
    5.41923549    7.93724068   -0.58186013   1      18  H

siesta: Eigenvalues (eV):
ik =     1
  -24.7184  -24.7184  -24.6958  -24.6958  -24.0593  -24.0593  -14.6717  -14.6717  -14.2692  -14.2692
  -13.6119  -13.6119  -12.7579  -12.7579  -11.9840  -11.9840  -11.4935  -11.4935  -11.1259  -11.1259
   -9.8795   -9.8795   -9.7882   -9.7882   -9.5409   -9.5409   -9.2159   -9.2159   -8.9063   -8.9063
   -8.6645   -8.6645   -8.5418   -8.5418   -8.2785   -8.2785   -7.9197   -7.9197   -7.3945   -7.3945
   -7.2768   -7.2768   -7.1968   -7.1968   -6.6576   -6.6576   -6.2336   -6.2336   -2.2523   -2.2523
   -1.9564   -1.9564   -1.2400   -1.2400   -1.1312   -1.1312   -0.7793   -0.7793   -0.3134   -0.3134
    0.0574    0.0574    0.2791    0.2791    0.4134    0.4134    0.6897    0.6897    0.9400    0.9400
    1.1769    1.1769    1.3239    1.3239    1.4765    1.4765    1.6603    1.6603    1.8342    1.8342
    2.0840    2.0840    2.7677    2.7677    2.9510    2.9510    3.2491    3.2491    3.6553    3.6553
    3.9808    3.9808    4.2623    4.2623    4.9505    4.9505    5.0992    5.0992    5.3981    5.3981
    5.6253    5.6253    5.7798    5.7798    6.0169    6.0169    6.2936    6.2936    6.5251    6.5251
    6.9544    6.9544    7.2668    7.2668    7.5350    7.5350    7.8907    7.8907    8.3960    8.3960
    8.8567    8.8567    8.9444    8.9444    9.4816    9.4816    9.7161    9.7161    9.9184    9.9184
   10.1686   10.1686   10.4384   10.4384   10.8298   10.8298   10.9216   10.9216   11.3963   11.3963
   11.9228   11.9228   12.2471   12.2471   12.5464   12.5464   12.9427   12.9427   13.3568   13.3568
   13.4589   13.4589   13.8750   13.8750   14.8106   14.8106   15.2173   15.2173   15.4805   15.4805
   15.8519   15.8519   16.1361   16.1361   16.3090   16.3090   16.3942   16.3942   16.8426   16.8426
   17.2150   17.2150   17.4650   17.4650   17.8660   17.8660   18.5989   18.5989   18.8874   18.8874
   19.4113   19.4113   20.0979   20.0979   20.2826   20.2826   20.4118   20.4118   21.1493   21.1493
   21.5846   21.5846   21.7323   21.7323   22.0600   22.0600   22.3549   22.3549   22.5059   22.5059
   22.8857   22.8857   23.3826   23.3826   23.7077   23.7077   23.8720   23.8720   24.3451   24.3451
   24.7586   24.7586   25.1307   25.1307   25.5402   25.5402   25.8221   25.8221   26.3669   26.3669
   26.8787   26.8787   27.4037   27.4037   28.1493   28.1493   28.6916   28.6916   29.4948   29.4948
   30.2150   30.2150   31.0619   31.0619   33.7456   33.7456   36.5158   36.5158   36.8771   36.8771
   37.0333   37.0333   38.6857   38.6857   39.2526   39.2526   40.2160   40.2160   41.2833   41.2833
   44.9562   44.9562   46.6939   46.6939   47.4277   47.4277   47.9769   47.9769   48.7881   48.7881
   49.1959   49.1959   49.8313   49.8313   50.7314   50.7314   51.2429   51.2429   52.2841   52.2841
   53.1643   53.1643   54.0850   54.0850   55.0549   55.0549   56.8225   56.8225   57.1591   57.1591
   58.6862   58.6862   59.1435   59.1435   60.0888   60.0888   61.2249   61.2249   62.0300   62.0300
   62.4893   62.4893   62.7563   62.7563   66.5629   66.5629   80.7619   80.7619   90.4383   90.4383
   91.9856   91.9856   94.2223   94.2223   98.8713   98.8713  101.5120  101.5120
siesta: Fermi energy =      -5.088281 eV

siesta: Program's energy decomposition (eV):
siesta: Ebs     =      -557.763839
siesta: Eions   =      1993.464565
siesta: Ena     =       122.932259
siesta: Ekin    =      1459.375719
siesta: Enl     =     -1042.759949
siesta: Eso     =        -0.002361
siesta: Edftu   =         0.000000
siesta: DEna    =       -12.650887
siesta: DUscf   =         6.882098
siesta: DUext   =         0.000000
siesta: Exc     =      -542.864107
siesta: eta*DQ  =         0.000000
siesta: Emadel  =         0.000000
siesta: Emeta   =         0.000000
siesta: Emolmec =         0.000000
siesta: Ekinion =         0.000006
siesta: Eharris =     -2002.551786
siesta: Etot    =     -2002.551786
siesta: FreeEng =     -2002.551786

siesta: Final energy (eV):
siesta:  Band Struct. =    -557.763839
siesta:       Kinetic =    1459.375719
siesta:       Hartree =    3285.457838
siesta:       Edftu   =       0.000000
siesta:       Eso     =      -0.002361
siesta:    Ext. field =       0.000000
siesta:   Exch.-corr. =    -542.864107
siesta:  Ion-electron =   -7884.260358
siesta:       Ion-ion =    1679.741476
siesta:       Ekinion =       0.000006
siesta:         Total =   -2002.551786
siesta:         Fermi =      -5.088281

siesta: Stress tensor (static) (eV/Ang**3):
siesta:    -0.000641   -0.000027   -0.000016
siesta:    -0.000027   -0.000309    0.000046
siesta:    -0.000016    0.000046   -0.000662

siesta: Cell volume =       2910.207998 Ang**3

siesta: Pressure (static):
siesta:                Solid            Molecule  Units
siesta:           0.00000585          0.00000584  Ry/Bohr**3
siesta:           0.00053697          0.00053643  eV/Ang**3
siesta:           0.86032659          0.85947011  kBar
(Free)E+ p_basis*V_orbitals  =       -1990.909304
(Free)Eharris+ p_basis*V_orbitals  =       -1990.909304
     spin moment: S , {S} =    0.00000   0.00000  -0.00000   0.00000

siesta: Electric dipole (a.u.)  =   -0.410177    0.716771   -0.409389
siesta: Electric dipole (Debye) =   -1.042566    1.821852   -1.040565

cite: Please see "ribosa.bib" for an exhaustive BiBTeX file.
cite: Please clearly indicate Siesta version in published work: v4.1.5-1-g384057250
cite: This calculation has made use of the following articles
cite: which are encouraged to be cited in a published work.
        Primary SIESTA paper
          DOI: www.doi.org/10.1088/0953-8984/14/11/302
        Spin-orbit coupling (on-site approximation)
          DOI: www.doi.org/10.1088/0953-8984/19/19/489001


WARNING: alloc-realloc-dealloc name mismatch
         Name: atomlist isa
         Size:               -72. Bytes
         Node:     0
         Subsequent mismatches will not be reported
>> End of run:  17-OCT-2023  11:08:07
Job completed
