Siesta Version  : v4.1.5-1-g384057250
Architecture    : gcc
Compiler version: GNU Fortran (Ubuntu 11.3.0-1ubuntu1~22.04) 11.3.0
Compiler flags  : mpifort -O2 -fPIC -ftree-vectorize -fallow-argument-mismatch
PP flags        : -DFC_HAVE_ABORT -DMPI -DSIESTA__FLOOK -DSIESTA__METIS -DSIESTA__MUMPS -DCDF -DNCDF -DNCDF_4 -DNCDF_PARALLEL -DSIESTA__MRRR -DSIESTA__ELPA
Libraries       : libncdf.a libfdict.a  -lflookall -ldl -lnetcdff -lnetcdf -lhdf5_hl -lhdf5 -lhdf5_fortran -lz -lscalapack-openmpi -lopenblas -lmetis -lzmumps -lcmumps -ldmumps -lmumps_common -lpord -lsmumps -lesmumps -lscotch -lscotcherr -fopenmp -lelpa
PARALLEL version
NetCDF support
NetCDF-4 support
NetCDF-4 MPI-IO support
METIS ordering support
Lua support

* Running on 4 nodes in parallel
>> Start of run:  28-JUN-2023  18:33:36

                           ***********************       
                           *  WELCOME TO SIESTA  *       
                           ***********************       

reinit: Reading from standard input
reinit: Dumped input in INPUT_TMP.73887
************************** Dump of input data file ****************************
SystemLabel      GC
NumberOfAtoms    29
NumberOfSpecies  4
%block ChemicalSpeciesLabel
    1    8  O
    2    7  N
    3   14  Si
    4    1  H
%endblock ChemicalSpeciesLabel
# Single point calculation
MD.TypeOfRun                CG
MD.Steps                    0
SCF.MustConverge            F # In case it does not. There can be 2 very close atoms
AtomicCoordinatesFormat NotScaledCartesianAng
%block AtomicCoordinatesAndAtomicSpecies
1.043624880    3.939228610    0.000000000       1
-3.040641290   1.071078170    0.000000000       2
2.054601450    1.213582070    0.000000000       2
0.999014100    -1.732643800   0.000000000       2
-2.132351640   -1.812968220   0.000000000       2
3.860190550    -1.112298180   0.000000000       2
-1.236183220   1.152964460    0.000000000       3
-0.532924260   -0.939006270   0.000000000       3
0.635660470    2.374516770    0.000000000       3
2.245170240    -0.549967100   0.000000000       3
-3.449816660   -0.583665030   0.000000000       3
2.963714090    1.790992630    0.000000000       4
-4.845591350   -1.123549660   0.000000000       4
4.007020910    -2.152308560   0.000000000       4
4.772194380    -0.502318160   0.000000000       4
-2.265399090   -2.864605110   0.000000000       4
4.896752016    4.870661330    0.000000000       3
6.801635986    6.077300270    0.000000000       3
6.305881846    2.104326360    0.000000000       3
8.383352136    4.573543520    0.000000000       3
4.956374686    3.153233760    0.000000000       2
3.357616956    5.624338640    0.000000000       2
7.958177106    2.834163580    0.000000000       2
6.992980786    7.569454020    0.000000000       4
9.867720116    4.792274340    0.000000000       4
3.246271676    6.673533750    0.000000000       4
2.425059246    4.999424460    0.000000000       4
6.295655016    0.496215240    0.000000000       1
8.733602986    2.107472020    0.000000000       4
%endblock AtomicCoordinatesAndAtomicSpecies
%include ../../../Defaults.fdf
************************** End of input data file *****************************

reinit: -----------------------------------------------------------------------
reinit: System Name: 
reinit: -----------------------------------------------------------------------
reinit: System Label: GC
reinit: -----------------------------------------------------------------------

initatom: Reading input for the pseudopotentials and atomic orbitals ----------
Species number:   1 Atomic number:    8 Label: O
Species number:   2 Atomic number:    7 Label: N
Species number:   3 Atomic number:   14 Label: Si
Species number:   4 Atomic number:    1 Label: H

Ground state valence configuration:   2s02  2p04
Reading pseudopotential information in formatted form from O.psf

Pseudopotential generated from a relativistic atomic calculation

Valence configuration for pseudopotential generation:
2s( 2.00) rc: 0.45
2p( 4.00) rc: 0.92
3d( 0.00) rc: 2.24
4f( 0.00) rc: 0.25
Ground state valence configuration:   2s02  2p03
Reading pseudopotential information in formatted form from N.psf

Pseudopotential generated from a relativistic atomic calculation

Valence configuration for pseudopotential generation:
2s( 2.00) rc: 0.94
2p( 3.00) rc: 0.59
3d( 0.00) rc: 3.46
4f( 0.00) rc: 2.47
Ground state valence configuration:   3s02  3p02
Reading pseudopotential information in formatted form from Si.psf

Pseudopotential generated from a relativistic atomic calculation

Valence configuration for pseudopotential generation:
3s( 2.00) rc: 1.67
3p( 2.00) rc: 2.04
3d( 0.00) rc: 2.89
4f( 0.00) rc: 2.49
Ground state valence configuration:   1s01
Reading pseudopotential information in formatted form from H.psf

Pseudopotential generated from a relativistic atomic calculation

Valence configuration for pseudopotential generation:
1s( 1.00) rc: 0.01
2p( 0.00) rc: 0.60
3d( 0.00) rc: 1.99
4f( 0.00) rc: 2.49
For O, standard SIESTA heuristics set lmxkb to 3
 (one more than the basis l, including polarization orbitals).
Use PS.lmax or PS.KBprojectors blocks to override.
For N, standard SIESTA heuristics set lmxkb to 3
 (one more than the basis l, including polarization orbitals).
Use PS.lmax or PS.KBprojectors blocks to override.
For Si, standard SIESTA heuristics set lmxkb to 3
 (one more than the basis l, including polarization orbitals).
Use PS.lmax or PS.KBprojectors blocks to override.
For H, standard SIESTA heuristics set lmxkb to 2
 (one more than the basis l, including polarization orbitals).
Use PS.lmax or PS.KBprojectors blocks to override.

<basis_specs>
===============================================================================
O                    Z=   8    Mass=  16.000        Charge= 0.17977+309
Lmxo=1 Lmxkb= 3    BasisType=split      Semic=F
L=0  Nsemic=0  Cnfigmx=2
          i=1  nzeta=2  polorb=0  (2s)
            splnorm:   0.28000    
               vcte:    0.0000    
               rinn:    0.0000    
               qcoe:    0.0000    
               qyuk:    0.0000    
               qwid:   0.10000E-01
                rcs:    0.0000      0.0000    
            lambdas:    1.0000      1.0000    
L=1  Nsemic=0  Cnfigmx=2
          i=1  nzeta=2  polorb=1  (2p)
            splnorm:   0.28000    
               vcte:    0.0000    
               rinn:    0.0000    
               qcoe:    0.0000    
               qyuk:    0.0000    
               qwid:   0.10000E-01
                rcs:    0.0000      0.0000    
            lambdas:    1.0000      1.0000    
-------------------------------------------------------------------------------
L=0  Nkbl=1  erefs: 0.17977+309
L=1  Nkbl=1  erefs: 0.17977+309
L=2  Nkbl=1  erefs: 0.17977+309
L=3  Nkbl=1  erefs: 0.17977+309
===============================================================================
</basis_specs>

atom: Called for O                     (Z =   8)

read_vps: Pseudopotential generation method:
read_vps: ATM4.2.7  Troullier-Martins                       
Valence charge for ps generation:    6.00000

xc_check: Exchange-correlation functional:
xc_check: GGA Perdew, Burke & Ernzerhof 1996
V l=0 = -2*Zval/r beyond r=  1.1000
V l=1 = -2*Zval/r beyond r=  1.1000
V l=2 = -2*Zval/r beyond r=  2.2154
V l=3 = -2*Zval/r beyond r=  1.1000
All V_l potentials equal beyond r=  2.2154
This should be close to max(r_c) in ps generation
All pots = -2*Zval/r beyond r=  2.2154

VLOCAL1: 99.0% of the norm of Vloc inside      8.845 Ry
VLOCAL1: 99.9% of the norm of Vloc inside     20.157 Ry
atom: Maximum radius for 4*pi*r*r*local-pseudopot. charge    2.67231
atom: Maximum radius for r*vlocal+2*Zval:    2.32897
GHOST: No ghost state for L =  0
GHOST: No ghost state for L =  1
GHOST: No ghost state for L =  2
GHOST: No ghost state for L =  3

KBgen: Kleinman-Bylander projectors: 
   l= 0   rc=  2.243238   el= -1.759686   Ekb=**********   kbcos= -0.171774
   l= 1   rc=  2.328968   el= -0.663873   Ekb=-14.506792   kbcos= -0.519897
   l= 2   rc=  2.573941   el=  0.002031   Ekb= -1.137373   kbcos= -0.019581
   l= 3   rc=  2.606321   el=  0.003153   Ekb= -1.013546   kbcos= -0.003122

KBgen: Total number of Kleinman-Bylander projectors:   16
atom: -------------------------------------------------------------------------

atom: SANKEY-TYPE ORBITALS:
atom: Selected multiple-zeta basis: split     

SPLIT: Orbitals with angular momentum L= 0

SPLIT: Basis orbitals for state 2s

SPLIT: PAO cut-off radius determined from an
SPLIT: energy shift=  0.002000 Ry

   izeta = 1
                 lambda =    1.000000
                     rc =    4.243912
                 energy =   -1.758270
                kinetic =    3.286084
    potential(screened) =   -5.044353
       potential(ionic) =  -12.921184

   izeta = 2
                 rmatch =    2.187845
              splitnorm =    0.280000
                 energy =   -0.885018
                kinetic =    8.134434
    potential(screened) =   -9.019452
       potential(ionic) =  -17.710645

SPLIT: Orbitals with angular momentum L= 1

SPLIT: Basis orbitals for state 2p

SPLIT: PAO cut-off radius determined from an
SPLIT: energy shift=  0.002000 Ry

   izeta = 1
                 lambda =    1.000000
                     rc =    5.314825
                 energy =   -0.661986
                kinetic =    4.917472
    potential(screened) =   -5.579458
       potential(ionic) =  -13.236259

   izeta = 2
                 rmatch =    2.160663
              splitnorm =    0.280000
                 energy =   -0.068760
                kinetic =    9.183374
    potential(screened) =   -9.252135
       potential(ionic) =  -18.274251

POLgen: Perturbative polarization orbital with L=  2

POLgen: Polarization orbital for state 2p

   izeta = 1
                     rc =    5.314825
                 energy =    1.970580
                kinetic =    3.886128
    potential(screened) =   -1.915547
       potential(ionic) =   -7.749584
atom: Total number of Sankey-type orbitals: 13

atm_pop: Valence configuration (for local Pseudopot. screening):
 2s( 2.00)                                                            
 2p( 4.00)                                                            
Vna: chval, zval:    6.00000   6.00000

Vna:  Cut-off radius for the neutral-atom potential:   5.314825

atom: _________________________________________________________________________

<basis_specs>
===============================================================================
N                    Z=   7    Mass=  14.010        Charge= 0.17977+309
Lmxo=1 Lmxkb= 3    BasisType=split      Semic=F
L=0  Nsemic=0  Cnfigmx=2
          i=1  nzeta=2  polorb=0  (2s)
            splnorm:   0.28000    
               vcte:    0.0000    
               rinn:    0.0000    
               qcoe:    0.0000    
               qyuk:    0.0000    
               qwid:   0.10000E-01
                rcs:    0.0000      0.0000    
            lambdas:    1.0000      1.0000    
L=1  Nsemic=0  Cnfigmx=2
          i=1  nzeta=2  polorb=1  (2p)
            splnorm:   0.28000    
               vcte:    0.0000    
               rinn:    0.0000    
               qcoe:    0.0000    
               qyuk:    0.0000    
               qwid:   0.10000E-01
                rcs:    0.0000      0.0000    
            lambdas:    1.0000      1.0000    
-------------------------------------------------------------------------------
L=0  Nkbl=1  erefs: 0.17977+309
L=1  Nkbl=1  erefs: 0.17977+309
L=2  Nkbl=1  erefs: 0.17977+309
L=3  Nkbl=1  erefs: 0.17977+309
===============================================================================
</basis_specs>

atom: Called for N                     (Z =   7)

read_vps: Pseudopotential generation method:
read_vps: ATM4.2.7  Troullier-Martins                       
Valence charge for ps generation:    5.00000

xc_check: Exchange-correlation functional:
xc_check: GGA Perdew, Burke & Ernzerhof 1996
V l=0 = -2*Zval/r beyond r=  1.2889
V l=1 = -2*Zval/r beyond r=  1.2889
V l=2 = -2*Zval/r beyond r=  3.4178
V l=3 = -2*Zval/r beyond r=  2.4084
All V_l potentials equal beyond r=  3.3753
This should be close to max(r_c) in ps generation
All pots = -2*Zval/r beyond r=  3.4178

VLOCAL1: 99.0% of the norm of Vloc inside      3.810 Ry
VLOCAL1: 99.9% of the norm of Vloc inside      8.683 Ry
atom: Maximum radius for 4*pi*r*r*local-pseudopot. charge    4.02088
atom: Maximum radius for r*vlocal+2*Zval:    3.54838
GHOST: No ghost state for L =  0
GHOST: No ghost state for L =  1
GHOST: No ghost state for L =  2
GHOST: No ghost state for L =  3

KBgen: Kleinman-Bylander projectors: 
   l= 0   rc=  3.417763   el= -1.365098   Ekb= -4.433130   kbcos= -0.707855
   l= 1   rc=  3.375302   el= -0.521201   Ekb=-13.264039   kbcos= -0.535594
   l= 2   rc=  3.872880   el=  0.001991   Ekb= -0.641094   kbcos= -0.062456
   l= 3   rc=  3.970931   el=  0.003093   Ekb= -0.474517   kbcos= -0.018236

KBgen: Total number of Kleinman-Bylander projectors:   16
atom: -------------------------------------------------------------------------

atom: SANKEY-TYPE ORBITALS:
atom: Selected multiple-zeta basis: split     

SPLIT: Orbitals with angular momentum L= 0

SPLIT: Basis orbitals for state 2s

SPLIT: PAO cut-off radius determined from an
SPLIT: energy shift=  0.002000 Ry

   izeta = 1
                 lambda =    1.000000
                     rc =    4.730425
                 energy =   -1.363399
                kinetic =    1.245246
    potential(screened) =   -2.608645
       potential(ionic) =   -8.121105

   izeta = 2
                 rmatch =    2.531849
              splitnorm =    0.280000
                 energy =   -0.959908
                kinetic =    2.409435
    potential(screened) =   -3.369343
       potential(ionic) =   -9.427975

SPLIT: Orbitals with angular momentum L= 1

SPLIT: Basis orbitals for state 2p

SPLIT: PAO cut-off radius determined from an
SPLIT: energy shift=  0.002000 Ry

   izeta = 1
                 lambda =    1.000000
                     rc =    5.924108
                 energy =   -0.519262
                kinetic =    3.672940
    potential(screened) =   -4.192202
       potential(ionic) =   -9.518354

   izeta = 2
                 rmatch =    2.531849
              splitnorm =    0.280000
                 energy =   -0.104258
                kinetic =    6.807538
    potential(screened) =   -6.911796
       potential(ionic) =  -13.149920

POLgen: Perturbative polarization orbital with L=  2

POLgen: Polarization orbital for state 2p

   izeta = 1
                     rc =    5.924108
                 energy =    1.427508
                kinetic =    2.872379
    potential(screened) =   -1.444871
       potential(ionic) =   -5.563644
atom: Total number of Sankey-type orbitals: 13

atm_pop: Valence configuration (for local Pseudopot. screening):
 2s( 2.00)                                                            
 2p( 3.00)                                                            
Vna: chval, zval:    5.00000   5.00000

Vna:  Cut-off radius for the neutral-atom potential:   5.924108

atom: _________________________________________________________________________

<basis_specs>
===============================================================================
Si                   Z=  14    Mass=  28.090        Charge= 0.17977+309
Lmxo=1 Lmxkb= 3    BasisType=split      Semic=F
L=0  Nsemic=0  Cnfigmx=3
          i=1  nzeta=2  polorb=0  (3s)
            splnorm:   0.28000    
               vcte:    0.0000    
               rinn:    0.0000    
               qcoe:    0.0000    
               qyuk:    0.0000    
               qwid:   0.10000E-01
                rcs:    0.0000      0.0000    
            lambdas:    1.0000      1.0000    
L=1  Nsemic=0  Cnfigmx=3
          i=1  nzeta=2  polorb=1  (3p)
            splnorm:   0.28000    
               vcte:    0.0000    
               rinn:    0.0000    
               qcoe:    0.0000    
               qyuk:    0.0000    
               qwid:   0.10000E-01
                rcs:    0.0000      0.0000    
            lambdas:    1.0000      1.0000    
-------------------------------------------------------------------------------
L=0  Nkbl=1  erefs: 0.17977+309
L=1  Nkbl=1  erefs: 0.17977+309
L=2  Nkbl=1  erefs: 0.17977+309
L=3  Nkbl=1  erefs: 0.17977+309
===============================================================================
</basis_specs>

atom: Called for Si                    (Z =  14)

read_vps: Pseudopotential generation method:
read_vps: ATM4.2.7  Troullier-Martins                       
Valence charge for ps generation:    4.00000

xc_check: Exchange-correlation functional:
xc_check: GGA Perdew, Burke & Ernzerhof 1996
V l=0 = -2*Zval/r beyond r=  2.7826
V l=1 = -2*Zval/r beyond r=  2.7826
V l=2 = -2*Zval/r beyond r=  2.9253
V l=3 = -2*Zval/r beyond r=  2.7826
All V_l potentials equal beyond r=  2.8530
This should be close to max(r_c) in ps generation
All pots = -2*Zval/r beyond r=  2.9253

VLOCAL1: 99.0% of the norm of Vloc inside      5.333 Ry
VLOCAL1: 99.9% of the norm of Vloc inside     12.154 Ry
atom: Maximum radius for 4*pi*r*r*local-pseudopot. charge    3.39869
atom: Maximum radius for r*vlocal+2*Zval:    2.96205
GHOST: No ghost state for L =  0
GHOST: No ghost state for L =  1
GHOST: No ghost state for L =  2
GHOST: No ghost state for L =  3

KBgen: Kleinman-Bylander projectors: 
   l= 0   rc=  3.075247   el= -0.794092   Ekb=  5.879390   kbcos=  0.167461
   l= 1   rc=  3.153101   el= -0.300068   Ekb=  2.642817   kbcos=  0.058301
   l= 2   rc=  3.273594   el=  0.001958   Ekb= -1.185135   kbcos= -0.104411
   l= 3   rc=  3.232927   el=  0.003046   Ekb= -0.497174   kbcos= -0.015889

KBgen: Total number of Kleinman-Bylander projectors:   16
atom: -------------------------------------------------------------------------

atom: SANKEY-TYPE ORBITALS:
atom: Selected multiple-zeta basis: split     

SPLIT: Orbitals with angular momentum L= 0

SPLIT: Basis orbitals for state 3s

SPLIT: PAO cut-off radius determined from an
SPLIT: energy shift=  0.002000 Ry

   izeta = 1
                 lambda =    1.000000
                     rc =    6.429618
                 energy =   -0.792283
                kinetic =    0.525293
    potential(screened) =   -1.317576
       potential(ionic) =   -3.744923

   izeta = 2
                 rmatch =    3.998416
              splitnorm =    0.280000
                 energy =   -0.583081
                kinetic =    1.069570
    potential(screened) =   -1.652651
       potential(ionic) =   -4.235185

SPLIT: Orbitals with angular momentum L= 1

SPLIT: Basis orbitals for state 3p

SPLIT: PAO cut-off radius determined from an
SPLIT: energy shift=  0.002000 Ry

   izeta = 1
                 lambda =    1.000000
                     rc =    8.464845
                 energy =   -0.298236
                kinetic =    0.785360
    potential(screened) =   -1.083596
       potential(ionic) =   -3.273779

   izeta = 2
                 rmatch =    4.587816
              splitnorm =    0.280000
                 energy =   -0.131871
                kinetic =    1.403687
    potential(screened) =   -1.535557
       potential(ionic) =   -4.015310

POLgen: Perturbative polarization orbital with L=  2

POLgen: Polarization orbital for state 3p

   izeta = 1
                     rc =    8.464845
                 energy =    0.321949
                kinetic =    1.055677
    potential(screened) =   -0.733728
       potential(ionic) =   -2.672950
atom: Total number of Sankey-type orbitals: 13

atm_pop: Valence configuration (for local Pseudopot. screening):
 3s( 2.00)                                                            
 3p( 2.00)                                                            
Vna: chval, zval:    4.00000   4.00000

Vna:  Cut-off radius for the neutral-atom potential:   8.464845

atom: _________________________________________________________________________

<basis_specs>
===============================================================================
H                    Z=   1    Mass=  1.0100        Charge= 0.17977+309
Lmxo=0 Lmxkb= 2    BasisType=split      Semic=F
L=0  Nsemic=0  Cnfigmx=1
          i=1  nzeta=2  polorb=1  (1s)
            splnorm:   0.62000    
               vcte:    0.0000    
               rinn:    0.0000    
               qcoe:    0.0000    
               qyuk:    0.0000    
               qwid:   0.10000E-01
                rcs:    0.0000      0.0000    
            lambdas:    1.0000      1.0000    
-------------------------------------------------------------------------------
L=0  Nkbl=1  erefs: 0.17977+309
L=1  Nkbl=1  erefs: 0.17977+309
L=2  Nkbl=1  erefs: 0.17977+309
===============================================================================
</basis_specs>

atom: Called for H                     (Z =   1)

read_vps: Pseudopotential generation method:
read_vps: ATM4.2.7  Troullier-Martins                       
Valence charge for ps generation:    1.00000

xc_check: Exchange-correlation functional:
xc_check: GGA Perdew, Burke & Ernzerhof 1996
V l=0 = -2*Zval/r beyond r=  0.0098
V l=1 = -2*Zval/r beyond r=  0.5817
V l=2 = -2*Zval/r beyond r=  1.9372
All V_l potentials equal beyond r=  1.9372
This should be close to max(r_c) in ps generation
All pots = -2*Zval/r beyond r=  1.9372

VLOCAL1: 99.0% of the norm of Vloc inside     11.567 Ry
VLOCAL1: 99.9% of the norm of Vloc inside     26.362 Ry
atom: Maximum radius for 4*pi*r*r*local-pseudopot. charge    2.25106
atom: Maximum radius for r*vlocal+2*Zval:    1.91306
GHOST: No ghost state for L =  0
GHOST: No ghost state for L =  1
GHOST: No ghost state for L =  2

KBgen: Kleinman-Bylander projectors: 
   l= 0   rc=  2.036604   el= -0.477180   Ekb= -6.081590   kbcos= -0.277285
   l= 1   rc=  2.195416   el=  0.001076   Ekb= -0.926943   kbcos= -0.034643
   l= 2   rc=  2.251056   el=  0.002010   Ekb= -0.130941   kbcos= -0.009788

KBgen: Total number of Kleinman-Bylander projectors:    9
atom: -------------------------------------------------------------------------

atom: SANKEY-TYPE ORBITALS:
atom: Selected multiple-zeta basis: split     

SPLIT: Orbitals with angular momentum L= 0

SPLIT: Basis orbitals for state 1s

SPLIT: PAO cut-off radius determined from an
SPLIT: energy shift=  0.002000 Ry

   izeta = 1
                 lambda =    1.000000
                     rc =    6.518340
                 energy =   -0.475305
                kinetic =    0.912139
    potential(screened) =   -1.387444
       potential(ionic) =   -1.907295

   izeta = 2
                 rmatch =    2.141150
              splitnorm =    0.620000
                 energy =    0.566467
                kinetic =    3.772856
    potential(screened) =   -3.206389
       potential(ionic) =   -3.759093

POLgen: Perturbative polarization orbital with L=  1

POLgen: Polarization orbital for state 1s

   izeta = 1
                     rc =    6.518340
                 energy =    0.533861
                kinetic =    1.121086
    potential(screened) =   -0.587225
       potential(ionic) =   -1.053027
atom: Total number of Sankey-type orbitals:  5

atm_pop: Valence configuration (for local Pseudopot. screening):
 1s( 1.00)                                                            
Vna: chval, zval:    1.00000   1.00000

Vna:  Cut-off radius for the neutral-atom potential:   6.518340

atom: _________________________________________________________________________

prinput: Basis input ----------------------------------------------------------

PAO.BasisType split     

%block ChemicalSpeciesLabel
    1    8 O                       # Species index, atomic number, species label
    2    7 N                       # Species index, atomic number, species label
    3   14 Si                      # Species index, atomic number, species label
    4    1 H                       # Species index, atomic number, species label
%endblock ChemicalSpeciesLabel

%block PAO.Basis                 # Define Basis set
O                     2                    # Species label, number of l-shells
 n=2   0   2                         # n, l, Nzeta 
   4.244      2.188   
   1.000      1.000   
 n=2   1   2 P   1                   # n, l, Nzeta, Polarization, NzetaPol
   5.315      2.161   
   1.000      1.000   
N                     2                    # Species label, number of l-shells
 n=2   0   2                         # n, l, Nzeta 
   4.730      2.532   
   1.000      1.000   
 n=2   1   2 P   1                   # n, l, Nzeta, Polarization, NzetaPol
   5.924      2.532   
   1.000      1.000   
Si                    2                    # Species label, number of l-shells
 n=3   0   2                         # n, l, Nzeta 
   6.430      3.998   
   1.000      1.000   
 n=3   1   2 P   1                   # n, l, Nzeta, Polarization, NzetaPol
   8.465      4.588   
   1.000      1.000   
H                     1                    # Species label, number of l-shells
 n=1   0   2 P   1                   # n, l, Nzeta, Polarization, NzetaPol
   6.518      2.141   
   1.000      1.000   
%endblock PAO.Basis

prinput: ----------------------------------------------------------------------

Dumping basis to NetCDF file O.ion.nc
Dumping basis to NetCDF file N.ion.nc
Dumping basis to NetCDF file Si.ion.nc
Dumping basis to NetCDF file H.ion.nc
coor:   Atomic-coordinates input format  =     Cartesian coordinates
coor:                                          (in Angstroms)

siesta: Atomic coordinates (Bohr) and species
siesta:      1.97217   7.44407   0.00000  1        1
siesta:     -5.74598   2.02405   0.00000  2        2
siesta:      3.88264   2.29334   0.00000  2        3
siesta:      1.88786  -3.27422   0.00000  2        4
siesta:     -4.02956  -3.42601   0.00000  2        5
siesta:      7.29471  -2.10194   0.00000  2        6
siesta:     -2.33605   2.17879   0.00000  3        7
siesta:     -1.00708  -1.77447   0.00000  3        8
siesta:      1.20122   4.48719   0.00000  3        9
siesta:      4.24276  -1.03929   0.00000  3       10
siesta:     -6.51921  -1.10297   0.00000  3       11
siesta:      5.60061   3.38449   0.00000  4       12
siesta:     -9.15684  -2.12320   0.00000  4       13
siesta:      7.57218  -4.06728   0.00000  4       14
siesta:      9.01814  -0.94924   0.00000  4       15
siesta:     -4.28099  -5.41332   0.00000  4       16
siesta:      9.25352   9.20422   0.00000  3       17
siesta:     12.85323  11.48444   0.00000  3       18
siesta:     11.91639   3.97660   0.00000  3       19
siesta:     15.84225   8.64275   0.00000  3       20
siesta:      9.36619   5.95875   0.00000  2       21
siesta:      6.34498  10.62846   0.00000  2       22
siesta:     15.03878   5.35580   0.00000  2       23
siesta:     13.21482  14.30420   0.00000  4       24
siesta:     18.64730   9.05609   0.00000  4       25
siesta:      6.13457  12.61116   0.00000  4       26
siesta:      4.58270   9.44755   0.00000  4       27
siesta:     11.89707   0.93771   0.00000  1       28
siesta:     16.50412   3.98255   0.00000  4       29

siesta: Automatic unit cell vectors (Ang):
siesta:   23.773225    0.000000    0.000000
siesta:    0.000000   19.066048    0.000000
siesta:    0.000000    0.000000    9.854683

siesta: System type = molecule  

initatomlists: Number of atoms, orbitals, and projectors:     29   297   394

siesta: ******************** Simulation parameters ****************************
siesta:
siesta: The following are some of the parameters of the simulation.
siesta: A complete list of the parameters used, including default values,
siesta: can be found in file out.fdf
siesta:
redata: Spin configuration                          = spin-orbit
redata: Number of spin components                   = 8
redata: Time-Reversal Symmetry                      = F
redata: Spin spiral                                 = F
############################################################
This spin-orbit implementation uses a local approximation.
From 4.2 and onwards the full non-local approximation is implemented
You are strongly advised to use >=4.2 versions!
############################################################
redata: Long output                                 =   F
redata: Number of Atomic Species                    =        4
redata: Charge density info will appear in .RHO file
redata: Write Mulliken Pop.                         = Atomic and Orbital charges
redata: Matel table size (NRTAB)                    =     1024
redata: Mesh Cutoff                                 =   340.0000 Ry
redata: Net charge of the system                    =     0.0000 |e|
redata: Min. number of SCF Iter                     =        1
redata: Max. number of SCF Iter                     =      200
redata: SCF mix quantity                            = Hamiltonian
redata: Mix DM or H after convergence               =   F
redata: Recompute H after scf cycle                 =   F
redata: Mix DM in first SCF step                    =   T
redata: Write Pulay info on disk                    =   F
redata: New DM Occupancy tolerance                  = 0.000000000001
redata: No kicks to SCF
redata: DM Mixing Weight for Kicks                  =     0.5000
redata: Require Harris convergence for SCF          =   F
redata: Harris energy tolerance for SCF             =     0.000100 eV
redata: Require DM convergence for SCF              =   T
redata: DM tolerance for SCF                        =     0.000008
redata: Require EDM convergence for SCF             =   F
redata: EDM tolerance for SCF                       =     0.001000 eV
redata: Require H convergence for SCF               =   T
redata: Hamiltonian tolerance for SCF               =     0.000001 eV
redata: Require (free) Energy convergence for SCF   =   F
redata: (free) Energy tolerance for SCF             =     0.000100 eV
redata: Using Saved Data (generic)                  =   F
redata: Use continuation files for DM               =   F
redata: Neglect nonoverlap interactions             =   F
redata: Method of Calculation                       = Diagonalization
redata: Electronic Temperature                      =   299.9978 K
redata: Fix the spin of the system                  =   F
redata: Dynamics option                             = Single-point calculation
mix.SCF: Pulay mixing                            = Pulay
mix.SCF:    Variant                              = stable
mix.SCF:    History steps                        = 6
mix.SCF:    Linear mixing weight                 =     0.250000
mix.SCF:    Mixing weight                        =     0.250000
mix.SCF:    SVD condition                        = 0.1000E-07
mix.SCF:    Restart steps                        = 24
mix.SCF:    Restart save steps                   = 3
mix.SCF: Spin-component mixing                   all
redata: Save all siesta data in one NC              =   F
redata: ***********************************************************************

%block SCF.Mixers
  Pulay
%endblock SCF.Mixers

%block SCF.Mixer.Pulay
  # Mixing method
  method pulay
  variant stable

  # Mixing options
  weight 0.2500
  weight.linear 0.2500
  history 6
  restart 24
  restart.save 3
%endblock SCF.Mixer.Pulay

DM_history_depth set to one: no extrapolation allowed by default for geometry relaxation
Size of DM history Fstack: 1
Total number of electrons:    98.000000
Total ionic charge:    98.000000

* ProcessorY, Blocksize:    2  24


* Orbital distribution balance (max,min):    81    72


Time-reversal symmetry not used.

siesta: k-grid: Number of k-points =     1
siesta: k-grid: Cutoff (effective) =     4.927 Ang
siesta: k-grid: Supercell and displacements
siesta: k-grid:    1   0   0      0.000
siesta: k-grid:    0   1   0      0.000
siesta: k-grid:    0   0   1      0.000

diag: Algorithm                                     = ELPA-1stage
diag: Parallel over k                               =   F
diag: Use parallel 2D distribution                  =   T
diag: Parallel block-size                           = 24
diag: Parallel distribution                         =     2 x     2
diag: Used triangular part                          = Lower
diag: Absolute tolerance                            =  0.100E-15
diag: Orthogonalization factor                      =  0.100E-05
diag: Memory factor                                 =  1.0000


ts: **************************************************************
ts: Save H and S matrices                           =    F
ts: Save DM and EDM matrices                        =    F
ts: Only save the overlap matrix S                  =    F
ts: **************************************************************

************************ Begin: TS CHECKS AND WARNINGS ************************
************************ End: TS CHECKS AND WARNINGS **************************


                     ====================================
                        Single-point calculation
                     ====================================

outcoor: Atomic coordinates (Ang):                          
    1.04362488    3.93922861    0.00000000   1       1  O
   -3.04064129    1.07107817    0.00000000   2       2  N
    2.05460145    1.21358207    0.00000000   2       3  N
    0.99901410   -1.73264380    0.00000000   2       4  N
   -2.13235164   -1.81296822    0.00000000   2       5  N
    3.86019055   -1.11229818    0.00000000   2       6  N
   -1.23618322    1.15296446    0.00000000   3       7  Si
   -0.53292426   -0.93900627    0.00000000   3       8  Si
    0.63566047    2.37451677    0.00000000   3       9  Si
    2.24517024   -0.54996710    0.00000000   3      10  Si
   -3.44981666   -0.58366503    0.00000000   3      11  Si
    2.96371409    1.79099263    0.00000000   4      12  H
   -4.84559135   -1.12354966    0.00000000   4      13  H
    4.00702091   -2.15230856    0.00000000   4      14  H
    4.77219438   -0.50231816    0.00000000   4      15  H
   -2.26539909   -2.86460511    0.00000000   4      16  H
    4.89675202    4.87066133    0.00000000   3      17  Si
    6.80163599    6.07730027    0.00000000   3      18  Si
    6.30588185    2.10432636    0.00000000   3      19  Si
    8.38335214    4.57354352    0.00000000   3      20  Si
    4.95637469    3.15323376    0.00000000   2      21  N
    3.35761696    5.62433864    0.00000000   2      22  N
    7.95817711    2.83416358    0.00000000   2      23  N
    6.99298079    7.56945402    0.00000000   4      24  H
    9.86772012    4.79227434    0.00000000   4      25  H
    3.24627168    6.67353375    0.00000000   4      26  H
    2.42505925    4.99942446    0.00000000   4      27  H
    6.29565502    0.49621524    0.00000000   1      28  O
    8.73360299    2.10747202    0.00000000   4      29  H

outcell: Unit cell vectors (Ang):
       23.773225    0.000000    0.000000
        0.000000   19.066048    0.000000
        0.000000    0.000000    9.854683

outcell: Cell vector modules (Ang)   :   23.773225   19.066048    9.854683
outcell: Cell angles (23,13,12) (deg):     90.0000     90.0000     90.0000
outcell: Cell volume (Ang**3)        :   4466.7481
<dSpData1D:S at geom step 0
  <sparsity:sparsity for geom step 0
    nrows_g=297 nrows=81 sparsity=.2261 nnzs=19948, refcount: 8>
  <dData1D:(new from dSpData1D) n=19948, refcount: 1>
refcount: 1>
new_DM -- step:     1
Initializing Density Matrix...
DM filled with atomic data:
<dSpData2D:DM initialized from atoms
  <sparsity:sparsity for geom step 0
    nrows_g=297 nrows=81 sparsity=.2261 nnzs=19948, refcount: 9>
  <dData2D:DM n=19948 m=8, refcount: 1>
refcount: 1>
     spin moment: S , {S} =   56.00000   0.00000   0.00000  56.00000
No. of atoms with KB's overlaping orbs in proc 0. Max # of overlaps:      29     194

Initializing spin-orbit part of the Hamiltonian
  Adding spin-orbit effects for O 
  Adding spin-orbit effects for N 
  Adding spin-orbit effects for Si
  Adding spin-orbit effects for H 


New grid distribution:   1
           1       1:  135    1:   54    1:   30
           2       1:  135    1:   54   31:   60
           3       1:  135   55:  108    1:   30
           4       1:  135   55:  108   31:   60

InitMesh: MESH =   270 x   216 x   120 =     6998400
InitMesh: (bp) =   135 x   108 x    60 =      874800
InitMesh: Mesh cutoff (required, used) =   340.000   354.722 Ry
ExtMesh (bp) on 0 =   239 x   158 x   142 =     5362204
New grid distribution:   2
           1      33:  135    1:   24    1:   60
           2       1:   32    1:   23    1:   60
           3      33:  135   25:  108    1:   60
           4       1:   32   24:  108    1:   60
New grid distribution:   3
           1      45:  135    1:   31    1:   60
           2       1:   44    1:   37    1:   60
           3      45:  135   32:  108    1:   60
           4       1:   44   38:  108    1:   60
Setting up quadratic distribution...
ExtMesh (bp) on 0 =   207 x   128 x   172 =     4557312
PhiOnMesh: Number of (b)points on node 0 =               148320
PhiOnMesh: nlist on node 0 =              2539028

stepf: Fermi-Dirac step function

siesta: Program's energy decomposition (eV):
siesta: Ebs     =      -614.745701
siesta: Eions   =      3585.165840
siesta: Ena     =       381.673211
siesta: Ekin    =      3361.243695
siesta: Enl     =     -3291.292295
siesta: Eso     =        -0.003442
siesta: Edftu   =         0.000000
siesta: DEna    =       154.174979
siesta: DUscf   =        77.931126
siesta: DUext   =         0.000000
siesta: Exc     =     -1202.805054
siesta: eta*DQ  =         0.000000
siesta: Emadel  =         0.000000
siesta: Emeta   =         0.000000
siesta: Emolmec =         0.000000
siesta: Ekinion =         0.000000
siesta: Eharris =     -4029.541902
siesta: Etot    =     -4104.243619
siesta: FreeEng =     -4104.245017

        iscf     Eharris(eV)        E_KS(eV)     FreeEng(eV)     dDmax    Ef(eV) dHmax(eV)
   scf:    1    -4029.541902    -4104.243619    -4104.245017  0.956567 -4.906249 20.153752
     spin moment: S , {S} =    2.00705   0.00000   0.00000   2.00705
timer: Routine,Calls,Time,% = IterSCF        1      11.568  16.36
   scf:    2    -4150.246348    -4138.482949    -4138.484758  0.465342 -4.199289 11.327962
     spin moment: S , {S} =    1.98908  -0.00000  -0.00000   1.98908
   scf:    3    -4111.707630    -4135.698153    -4135.718373  0.430001 -4.265278 11.415676
     spin moment: S , {S} =    2.00010  -0.00000  -0.00000   2.00010
   scf:    4    -4151.297765    -4146.447223    -4146.447223  0.307955 -3.891900  6.151736
     spin moment: S , {S} =    0.00009   0.00000   0.00000   0.00009
   scf:    5    -4147.615572    -4147.124049    -4147.124049  0.037853 -3.695053  4.399999
     spin moment: S , {S} =    0.00006   0.00000   0.00000   0.00006
   scf:    6    -4147.892259    -4147.511781    -4147.511781  0.025145 -3.691289  2.133175
     spin moment: S , {S} =    0.00003  -0.00000  -0.00000   0.00003
   scf:    7    -4147.864179    -4147.687455    -4147.687455  0.021201 -3.649600  0.856122
     spin moment: S , {S} =    0.00001   0.00000   0.00000   0.00001
   scf:    8    -4147.804462    -4147.744467    -4147.744467  0.012140 -3.749983  0.467500
     spin moment: S , {S} =    0.00000   0.00000   0.00000   0.00000
   scf:    9    -4147.784206    -4147.763714    -4147.763714  0.007027 -3.778723  0.312804
     spin moment: S , {S} =    0.00000  -0.00000  -0.00000   0.00000
   scf:   10    -4147.811154    -4147.783762    -4147.783762  0.017096 -3.802684  0.144701
     spin moment: S , {S} =    0.00000   0.00000  -0.00000  -0.00000
   scf:   11    -4147.786947    -4147.785276    -4147.785276  0.004849 -3.795369  0.050947
     spin moment: S , {S} =    0.00000   0.00000  -0.00000   0.00000
   scf:   12    -4147.786102    -4147.785687    -4147.785687  0.001992 -3.791207  0.031181
     spin moment: S , {S} =    0.00000  -0.00000  -0.00000   0.00000
   scf:   13    -4147.786229    -4147.785943    -4147.785943  0.001900 -3.789816  0.024422
     spin moment: S , {S} =    0.00000  -0.00000   0.00000   0.00000
   scf:   14    -4147.786381    -4147.786142    -4147.786142  0.002122 -3.789118  0.017400
     spin moment: S , {S} =    0.00000   0.00000   0.00000   0.00000
   scf:   15    -4147.786481    -4147.786285    -4147.786285  0.002445 -3.788579  0.010022
     spin moment: S , {S} =    0.00000   0.00000   0.00000   0.00000
   scf:   16    -4147.786414    -4147.786335    -4147.786335  0.001806 -3.789229  0.004422
     spin moment: S , {S} =    0.00000  -0.00000   0.00000   0.00000
   scf:   17    -4147.786353    -4147.786342    -4147.786342  0.000652 -3.788792  0.002366
     spin moment: S , {S} =    0.00000  -0.00000  -0.00000   0.00000
   scf:   18    -4147.786346    -4147.786344    -4147.786344  0.000290 -3.788879  0.001101
     spin moment: S , {S} =    0.00000  -0.00000  -0.00000  -0.00000
   scf:   19    -4147.786345    -4147.786344    -4147.786344  0.000118 -3.788879  0.000593
     spin moment: S , {S} =    0.00000  -0.00000  -0.00000  -0.00000
   scf:   20    -4147.786345    -4147.786344    -4147.786344  0.000043 -3.788834  0.000391
     spin moment: S , {S} =    0.00000  -0.00000  -0.00000  -0.00000
   scf:   21    -4147.786345    -4147.786344    -4147.786344  0.000065 -3.788790  0.000216
     spin moment: S , {S} =    0.00000  -0.00000  -0.00000  -0.00000
   scf:   22    -4147.786344    -4147.786344    -4147.786344  0.000017 -3.788767  0.000085
     spin moment: S , {S} =    0.00000   0.00000  -0.00000  -0.00000
   scf:   23    -4147.786344    -4147.786344    -4147.786344  0.000006 -3.788766  0.000047
     spin moment: S , {S} =    0.00000  -0.00000  -0.00000  -0.00000
   scf:   24    -4147.786344    -4147.786344    -4147.786344  0.000003 -3.789405  0.000027
     spin moment: S , {S} =    0.00000  -0.00000  -0.00000  -0.00000
mix: Pulay -- resetting history
   scf:   25    -4147.786344    -4147.786344    -4147.786344  0.000003 -3.789402  0.000011
     spin moment: S , {S} =    0.00000  -0.00000  -0.00000   0.00000
   scf:   26    -4147.786344    -4147.786344    -4147.786344  0.000001 -3.789401  0.000006
     spin moment: S , {S} =    0.00000   0.00000  -0.00000   0.00000
   scf:   27    -4147.786344    -4147.786344    -4147.786344  0.000000 -3.789400  0.000004
     spin moment: S , {S} =    0.00000  -0.00000  -0.00000   0.00000
   scf:   28    -4147.786344    -4147.786344    -4147.786344  0.000000 -3.789400  0.000004
     spin moment: S , {S} =    0.00000  -0.00000  -0.00000   0.00000
   scf:   29    -4147.786344    -4147.786344    -4147.786344  0.000000 -3.789400  0.000002
     spin moment: S , {S} =    0.00000   0.00000  -0.00000   0.00000
   scf:   30    -4147.786344    -4147.786344    -4147.786344  0.000000 -3.789400  0.000001
     spin moment: S , {S} =    0.00000   0.00000  -0.00000   0.00000
   scf:   31    -4147.786344    -4147.786344    -4147.786344  0.000000 -3.789400  0.000001
     spin moment: S , {S} =    0.00000  -0.00000  -0.00000   0.00000

SCF Convergence by DM+H criterion
max |DM_out - DM_in|         :     0.0000000606
max |H_out - H_in|      (eV) :     0.0000009610
SCF cycle converged after 31 iterations

Using DM_out to compute the final energy and forces
No. of atoms with KB's overlaping orbs in proc 0. Max # of overlaps:      29     194

siesta: E_KS(eV) =            -4147.7863

siesta: E_KS - E_eggbox =     -4147.7863
     spin moment: S , {S} =    0.00000  -0.00000  -0.00000   0.00000

siesta: Atomic forces (eV/Ang):
     1    3.006853    2.085248   -0.000000
     2   -0.029275    0.031583    0.000000
     3    0.251464   -0.046183   -0.000000
     4    0.188297    0.009540   -0.000000
     5    0.001699   -0.006323   -0.000000
     6    0.727261    0.370279    0.000000
     7    0.010820   -0.063116   -0.000000
     8   -0.096473    0.071909    0.000000
     9   -0.004219    0.339577   -0.000000
    10   -0.213778    0.122027    0.000000
    11   -0.008517   -0.004919   -0.000000
    12    0.027609   -0.152773    0.000000
    13    0.028387   -0.083713    0.000000
    14    0.069608   -0.096894   -0.000000
    15   -0.358458   -0.228291   -0.000000
    16   -0.061853    0.149101   -0.000000
    17    0.204728   -0.320073   -0.000000
    18   -0.056687    0.052450    0.000000
    19   -0.090380   -0.283801   -0.000000
    20   -0.012822   -0.108148   -0.000000
    21   -0.098279    0.208925   -0.000000
    22   -0.921344   -0.524969   -0.000000
    23    0.044793    0.101787    0.000000
    24    0.066614   -0.034959    0.000000
    25    0.059069   -0.126306   -0.000000
    26   -0.059865   -0.094120    0.000000
    27    0.423418    0.419188    0.000000
    28   -0.097323    3.033636    0.000000
    29   -0.119711    0.181995    0.000000
----------------------------------------
   Tot    2.881637    5.002657    0.000000
----------------------------------------
   Max    3.033636
   Res    0.543500    sqrt( Sum f_i^2 / 3N )
----------------------------------------
   Max    3.033636    constrained

Stress tensor Voigt[x,y,z,yz,xz,xy] (kbar):        0.36        1.64       -0.08       -0.00        0.00        0.99
(Free)E + p*V (eV/cell)    -4149.5656
Target enthalpy (eV/cell)    -4147.7863

mulliken: Atomic and Orbital Populations:

Species: O                   

Atom      Orb        Charge      Spin       Svec
----------------------------------------------------------------
    1  1 2s         1.74564   0.00000      0.000   0.000   0.000
    1  2 2s         0.05727   0.00000     -0.000  -0.000   0.000
    1  3 2py        1.39261   0.00000     -0.000   0.000   0.000
    1  4 2pz        1.60627   0.00000     -0.000   0.000   0.000
    1  5 2px        1.63585   0.00000      0.000  -0.000   0.000
    1  6 2py        0.06569   0.00000      0.000   0.000   0.000
    1  7 2pz       -0.01668   0.00000     -0.000  -0.000   0.000
    1  8 2px       -0.00025   0.00000     -0.000   0.000   0.000
    1  9 3Pdxy      0.00765   0.00000      0.000  -0.000   0.000
    1 10 3Pdyz      0.00764   0.00000     -0.000  -0.000  -0.000
    1 11 3Pdz2      0.00172   0.00000     -0.000  -0.000   0.000
    1 12 3Pdxz      0.00011   0.00000      0.000  -0.000  -0.000
    1 13 3Pdx2-y2   0.00590   0.00000      0.000  -0.000  -0.000
    1     Total     6.50945   0.00000      0.000   0.000   0.000

   28  1 2s         1.75675   0.00000      0.000   0.000   0.000
   28  2 2s         0.05162   0.00000     -0.000  -0.000  -0.000
   28  3 2py        1.37943   0.00000      0.000  -0.000  -0.000
   28  4 2pz        1.59537   0.00000     -0.000   0.000  -0.000
   28  5 2px        1.65708   0.00000      0.000  -0.000  -0.000
   28  6 2py        0.06381   0.00000      0.000   0.000   0.000
   28  7 2pz       -0.01452   0.00000     -0.000   0.000   0.000
   28  8 2px       -0.00002   0.00000     -0.000   0.000   0.000
   28  9 3Pdxy      0.00729   0.00000     -0.000   0.000  -0.000
   28 10 3Pdyz      0.00878   0.00000      0.000  -0.000  -0.000
   28 11 3Pdz2      0.00142   0.00000     -0.000  -0.000   0.000
   28 12 3Pdxz     -0.00013   0.00000      0.000  -0.000  -0.000
   28 13 3Pdx2-y2   0.00726   0.00000     -0.000   0.000  -0.000
   28     Total     6.51415   0.00000     -0.000   0.000   0.000

----------------------------------------------------------------
Total              13.02359   0.00000     -0.000   0.000   0.000


Species: N                   

Atom      Orb        Charge      Spin       Svec
----------------------------------------------------------------
    2  1 2s         1.54859   0.00000      0.000   0.000   0.000
    2  2 2s         0.08502   0.00000     -0.000  -0.000   0.000
    2  3 2py        1.04357   0.00000     -0.000  -0.000   0.000
    2  4 2pz        1.22483   0.00000     -0.000  -0.000   0.000
    2  5 2px        0.99285   0.00000     -0.000  -0.000   0.000
    2  6 2py        0.18816   0.00000      0.000   0.000  -0.000
    2  7 2pz        0.05525   0.00000      0.000   0.000  -0.000
    2  8 2px        0.19555   0.00000      0.000   0.000  -0.000
    2  9 3Pdxy      0.00835   0.00000      0.000   0.000   0.000
    2 10 3Pdyz      0.01095   0.00000      0.000   0.000  -0.000
    2 11 3Pdz2      0.00191   0.00000     -0.000  -0.000  -0.000
    2 12 3Pdxz      0.00758   0.00000      0.000   0.000  -0.000
    2 13 3Pdx2-y2   0.00907   0.00000     -0.000   0.000   0.000
    2     Total     5.37165   0.00000     -0.000  -0.000   0.000

    3  1 2s         1.38517   0.00000     -0.000   0.000  -0.000
    3  2 2s         0.12307   0.00000      0.000  -0.000   0.000
    3  3 2py        0.93710   0.00000     -0.000  -0.000  -0.000
    3  4 2pz        1.54064   0.00000      0.000  -0.000  -0.000
    3  5 2px        1.07942   0.00000      0.000   0.000  -0.000
    3  6 2py        0.25354   0.00000      0.000   0.000   0.000
    3  7 2pz        0.00534   0.00000      0.000   0.000   0.000
    3  8 2px        0.18358   0.00000     -0.000   0.000   0.000
    3  9 3Pdxy      0.00409   0.00000     -0.000  -0.000  -0.000
    3 10 3Pdyz      0.00394   0.00000     -0.000  -0.000   0.000
    3 11 3Pdz2      0.00059   0.00000     -0.000  -0.000  -0.000
    3 12 3Pdxz      0.00272   0.00000     -0.000  -0.000   0.000
    3 13 3Pdx2-y2   0.00250   0.00000      0.000   0.000  -0.000
    3     Total     5.52170   0.00000      0.000  -0.000  -0.000

    4  1 2s         1.46147   0.00000     -0.000  -0.000  -0.000
    4  2 2s         0.11906   0.00000      0.000   0.000   0.000
    4  3 2py        1.12686   0.00000     -0.000  -0.000  -0.000
    4  4 2pz        1.29250   0.00000      0.000   0.000  -0.000
    4  5 2px        0.82676   0.00000      0.000  -0.000   0.000
    4  6 2py        0.15075   0.00000      0.000  -0.000   0.000
    4  7 2pz        0.05313   0.00000     -0.000  -0.000   0.000
    4  8 2px        0.29266   0.00000     -0.000   0.000   0.000
    4  9 3Pdxy      0.00871   0.00000     -0.000  -0.000   0.000
    4 10 3Pdyz      0.01047   0.00000      0.000  -0.000   0.000
    4 11 3Pdz2      0.00126   0.00000      0.000  -0.000  -0.000
    4 12 3Pdxz      0.00478   0.00000     -0.000  -0.000  -0.000
    4 13 3Pdx2-y2   0.00797   0.00000      0.000   0.000  -0.000
    4     Total     5.35637   0.00000     -0.000  -0.000  -0.000

    5  1 2s         1.37559   0.00000      0.000   0.000   0.000
    5  2 2s         0.12834   0.00000     -0.000  -0.000  -0.000
    5  3 2py        1.02642   0.00000      0.000   0.000   0.000
    5  4 2pz        1.50130   0.00000      0.000  -0.000   0.000
    5  5 2px        1.05979   0.00000      0.000   0.000   0.000
    5  6 2py        0.20358   0.00000      0.000  -0.000  -0.000
    5  7 2pz        0.01331   0.00000     -0.000   0.000  -0.000
    5  8 2px        0.20157   0.00000     -0.000  -0.000  -0.000
    5  9 3Pdxy      0.00388   0.00000      0.000  -0.000  -0.000
    5 10 3Pdyz      0.00245   0.00000      0.000   0.000  -0.000
    5 11 3Pdz2      0.00143   0.00000      0.000   0.000  -0.000
    5 12 3Pdxz      0.00661   0.00000     -0.000   0.000  -0.000
    5 13 3Pdx2-y2   0.00563   0.00000      0.000  -0.000  -0.000
    5     Total     5.52989   0.00000      0.000   0.000   0.000

    6  1 2s         1.26297   0.00000     -0.000   0.000  -0.000
    6  2 2s         0.18247   0.00000      0.000   0.000   0.000
    6  3 2py        1.06617   0.00000     -0.000   0.000  -0.000
    6  4 2pz        1.52728   0.00000     -0.000   0.000  -0.000
    6  5 2px        0.97352   0.00000      0.000  -0.000  -0.000
    6  6 2py        0.19593   0.00000      0.000  -0.000   0.000
    6  7 2pz        0.03366   0.00000     -0.000   0.000   0.000
    6  8 2px        0.25664   0.00000      0.000   0.000   0.000
    6  9 3Pdxy      0.00222   0.00000     -0.000   0.000  -0.000
    6 10 3Pdyz      0.00005   0.00000     -0.000   0.000  -0.000
    6 11 3Pdz2      0.00156   0.00000      0.000   0.000  -0.000
    6 12 3Pdxz      0.00380   0.00000     -0.000  -0.000   0.000
    6 13 3Pdx2-y2   0.00433   0.00000      0.000  -0.000   0.000
    6     Total     5.51060   0.00000     -0.000   0.000   0.000

   21  1 2s         1.41578   0.00000      0.000   0.000   0.000
   21  2 2s         0.12901   0.00000     -0.000  -0.000   0.000
   21  3 2py        0.88237   0.00000      0.000  -0.000  -0.000
   21  4 2pz        1.31999   0.00000     -0.000  -0.000   0.000
   21  5 2px        1.16964   0.00000      0.000  -0.000   0.000
   21  6 2py        0.27341   0.00000     -0.000   0.000   0.000
   21  7 2pz        0.04367   0.00000      0.000   0.000   0.000
   21  8 2px        0.15618   0.00000     -0.000   0.000   0.000
   21  9 3Pdxy      0.00634   0.00000      0.000  -0.000   0.000
   21 10 3Pdyz      0.00456   0.00000      0.000   0.000  -0.000
   21 11 3Pdz2      0.00000   0.00000      0.000   0.000   0.000
   21 12 3Pdxz      0.00576   0.00000      0.000   0.000  -0.000
   21 13 3Pdx2-y2   0.00573   0.00000      0.000  -0.000  -0.000
   21     Total     5.41243   0.00000      0.000  -0.000   0.000

   22  1 2s         1.28638   0.00000      0.000  -0.000   0.000
   22  2 2s         0.17266   0.00000     -0.000   0.000  -0.000
   22  3 2py        1.05520   0.00000     -0.000   0.000  -0.000
   22  4 2pz        1.49264   0.00000      0.000  -0.000  -0.000
   22  5 2px        1.01473   0.00000     -0.000  -0.000  -0.000
   22  6 2py        0.20079   0.00000      0.000  -0.000   0.000
   22  7 2pz        0.03265   0.00000     -0.000   0.000   0.000
   22  8 2px        0.23300   0.00000     -0.000   0.000   0.000
   22  9 3Pdxy      0.00314   0.00000      0.000   0.000   0.000
   22 10 3Pdyz      0.00021   0.00000      0.000   0.000  -0.000
   22 11 3Pdz2      0.00225   0.00000     -0.000   0.000  -0.000
   22 12 3Pdxz      0.00397   0.00000     -0.000  -0.000   0.000
   22 13 3Pdx2-y2   0.00486   0.00000      0.000   0.000  -0.000
   22     Total     5.50249   0.00000      0.000  -0.000   0.000

   23  1 2s         1.37744   0.00000     -0.000  -0.000   0.000
   23  2 2s         0.12762   0.00000      0.000   0.000  -0.000
   23  3 2py        1.00844   0.00000     -0.000  -0.000  -0.000
   23  4 2pz        1.53608   0.00000     -0.000  -0.000  -0.000
   23  5 2px        1.05342   0.00000     -0.000  -0.000   0.000
   23  6 2py        0.21356   0.00000      0.000   0.000   0.000
   23  7 2pz        0.00425   0.00000     -0.000  -0.000   0.000
   23  8 2px        0.20157   0.00000      0.000   0.000  -0.000
   23  9 3Pdxy      0.00539   0.00000      0.000  -0.000  -0.000
   23 10 3Pdyz      0.00453   0.00000      0.000   0.000   0.000
   23 11 3Pdz2      0.00077   0.00000      0.000  -0.000  -0.000
   23 12 3Pdxz      0.00243   0.00000      0.000  -0.000  -0.000
   23 13 3Pdx2-y2   0.00143   0.00000     -0.000   0.000  -0.000
   23     Total     5.53693   0.00000     -0.000  -0.000   0.000

----------------------------------------------------------------
Total              56.76565   0.00000     -0.000  -0.000   0.000


Species: Si                  

Atom      Orb        Charge      Spin       Svec
----------------------------------------------------------------
    7  1 3s         0.66333   0.00000      0.000  -0.000  -0.000
    7  2 3s         0.36666   0.00000     -0.000  -0.000  -0.000
    7  3 3py        0.46771   0.00000      0.000   0.000  -0.000
    7  4 3pz        0.69918   0.00000      0.000   0.000   0.000
    7  5 3px        0.12051   0.00000     -0.000   0.000  -0.000
    7  6 3py        0.27696   0.00000     -0.000   0.000  -0.000
    7  7 3pz        0.26114   0.00000      0.000  -0.000  -0.000
    7  8 3px        0.44046   0.00000     -0.000  -0.000  -0.000
    7  9 3Pdxy      0.24597   0.00000      0.000   0.000  -0.000
    7 10 3Pdyz      0.02850   0.00000     -0.000   0.000  -0.000
    7 11 3Pdz2      0.01129   0.00000     -0.000   0.000  -0.000
    7 12 3Pdxz      0.14658   0.00000     -0.000   0.000   0.000
    7 13 3Pdx2-y2   0.11376   0.00000      0.000   0.000  -0.000
    7     Total     3.84203   0.00000      0.000   0.000  -0.000

    8  1 3s         0.65426   0.00000     -0.000  -0.000  -0.000
    8  2 3s         0.36897   0.00000      0.000   0.000  -0.000
    8  3 3py        0.39240   0.00000     -0.000   0.000  -0.000
    8  4 3pz        0.50561   0.00000     -0.000  -0.000  -0.000
    8  5 3px       -0.02386   0.00000     -0.000  -0.000  -0.000
    8  6 3py        0.30657   0.00000     -0.000  -0.000   0.000
    8  7 3pz        0.20517   0.00000     -0.000   0.000  -0.000
    8  8 3px        0.51459   0.00000      0.000   0.000  -0.000
    8  9 3Pdxy      0.24863   0.00000      0.000  -0.000  -0.000
    8 10 3Pdyz      0.11215   0.00000      0.000   0.000   0.000
    8 11 3Pdz2      0.01369   0.00000     -0.000   0.000  -0.000
    8 12 3Pdxz      0.15656   0.00000     -0.000   0.000  -0.000
    8 13 3Pdx2-y2   0.20257   0.00000      0.000  -0.000  -0.000
    8     Total     3.65733   0.00000     -0.000  -0.000  -0.000

    9  1 3s         0.59956   0.00000      0.000   0.000   0.000
    9  2 3s         0.37021   0.00000     -0.000   0.000   0.000
    9  3 3py        0.10767   0.00000      0.000  -0.000   0.000
    9  4 3pz        0.47665   0.00000      0.000  -0.000   0.000
    9  5 3px        0.35429   0.00000     -0.000   0.000   0.000
    9  6 3py        0.41080   0.00000     -0.000  -0.000   0.000
    9  7 3pz        0.18967   0.00000     -0.000   0.000   0.000
    9  8 3px        0.28646   0.00000      0.000  -0.000  -0.000
    9  9 3Pdxy      0.28452   0.00000      0.000   0.000   0.000
    9 10 3Pdyz      0.18889   0.00000     -0.000  -0.000   0.000
    9 11 3Pdz2      0.01162   0.00000      0.000   0.000   0.000
    9 12 3Pdxz      0.10628   0.00000      0.000   0.000   0.000
    9 13 3Pdx2-y2   0.17861   0.00000     -0.000   0.000  -0.000
    9     Total     3.56523   0.00000     -0.000   0.000   0.000

   10  1 3s         0.48243   0.00000     -0.000   0.000  -0.000
   10  2 3s         0.37783   0.00000      0.000  -0.000   0.000
   10  3 3py        0.23779   0.00000      0.000   0.000   0.000
   10  4 3pz        0.41419   0.00000     -0.000   0.000   0.000
   10  5 3px        0.10165   0.00000      0.000   0.000  -0.000
   10  6 3py        0.32517   0.00000     -0.000  -0.000  -0.000
   10  7 3pz        0.21946   0.00000      0.000  -0.000  -0.000
   10  8 3px        0.43786   0.00000     -0.000   0.000   0.000
   10  9 3Pdxy      0.17495   0.00000     -0.000  -0.000  -0.000
   10 10 3Pdyz      0.13312   0.00000     -0.000  -0.000  -0.000
   10 11 3Pdz2      0.00967   0.00000     -0.000   0.000  -0.000
   10 12 3Pdxz      0.18078   0.00000      0.000  -0.000  -0.000
   10 13 3Pdx2-y2   0.30846   0.00000      0.000  -0.000  -0.000
   10     Total     3.40333   0.00000     -0.000   0.000  -0.000

   11  1 3s         0.55350   0.00000      0.000   0.000  -0.000
   11  2 3s         0.38511   0.00000     -0.000  -0.000  -0.000
   11  3 3py        0.32365   0.00000      0.000  -0.000  -0.000
   11  4 3pz        0.53962   0.00000      0.000   0.000  -0.000
   11  5 3px        0.12635   0.00000     -0.000   0.000  -0.000
   11  6 3py        0.28629   0.00000     -0.000   0.000  -0.000
   11  7 3pz        0.17734   0.00000      0.000   0.000  -0.000
   11  8 3px        0.44568   0.00000     -0.000  -0.000   0.000
   11  9 3Pdxy      0.22595   0.00000      0.000   0.000  -0.000
   11 10 3Pdyz      0.12688   0.00000      0.000   0.000  -0.000
   11 11 3Pdz2      0.00959   0.00000      0.000   0.000   0.000
   11 12 3Pdxz      0.05308   0.00000      0.000   0.000  -0.000
   11 13 3Pdx2-y2   0.20451   0.00000      0.000  -0.000  -0.000
   11     Total     3.45755   0.00000      0.000   0.000  -0.000

   17  1 3s         0.63473   0.00000      0.000  -0.000   0.000
   17  2 3s         0.36125   0.00000     -0.000   0.000  -0.000
   17  3 3py        0.21717   0.00000      0.000  -0.000   0.000
   17  4 3pz        0.42117   0.00000      0.000   0.000  -0.000
   17  5 3px        0.23939   0.00000      0.000   0.000   0.000
   17  6 3py        0.38095   0.00000     -0.000   0.000  -0.000
   17  7 3pz        0.21367   0.00000     -0.000   0.000  -0.000
   17  8 3px        0.38125   0.00000     -0.000  -0.000  -0.000
   17  9 3Pdxy      0.28844   0.00000     -0.000   0.000  -0.000
   17 10 3Pdyz      0.13925   0.00000     -0.000   0.000   0.000
   17 11 3Pdz2      0.00821   0.00000      0.000  -0.000   0.000
   17 12 3Pdxz      0.14463   0.00000     -0.000   0.000  -0.000
   17 13 3Pdx2-y2   0.17129   0.00000     -0.000  -0.000  -0.000
   17     Total     3.60139   0.00000      0.000  -0.000  -0.000

   18  1 3s         0.74223   0.00000     -0.000   0.000  -0.000
   18  2 3s         0.34271   0.00000      0.000  -0.000   0.000
   18  3 3py        0.06553   0.00000      0.000  -0.000  -0.000
   18  4 3pz        0.80320   0.00000      0.000  -0.000   0.000
   18  5 3px        0.55751   0.00000     -0.000   0.000  -0.000
   18  6 3py        0.52679   0.00000     -0.000  -0.000   0.000
   18  7 3pz        0.19776   0.00000     -0.000   0.000  -0.000
   18  8 3px        0.25234   0.00000      0.000  -0.000   0.000
   18  9 3Pdxy      0.10204   0.00000      0.000  -0.000  -0.000
   18 10 3Pdyz      0.02781   0.00000     -0.000   0.000   0.000
   18 11 3Pdz2      0.00830   0.00000      0.000   0.000   0.000
   18 12 3Pdxz      0.03210   0.00000     -0.000   0.000  -0.000
   18 13 3Pdx2-y2   0.10907   0.00000     -0.000  -0.000  -0.000
   18     Total     3.76738   0.00000     -0.000   0.000  -0.000

   19  1 3s         0.46053   0.00000      0.000   0.000  -0.000
   19  2 3s         0.36426   0.00000     -0.000  -0.000  -0.000
   19  3 3py        0.08277   0.00000     -0.000  -0.000  -0.000
   19  4 3pz        0.41240   0.00000      0.000   0.000  -0.000
   19  5 3px        0.29066   0.00000      0.000   0.000   0.000
   19  6 3py        0.45654   0.00000     -0.000   0.000  -0.000
   19  7 3pz        0.18919   0.00000      0.000   0.000  -0.000
   19  8 3px        0.27893   0.00000     -0.000  -0.000  -0.000
   19  9 3Pdxy      0.32218   0.00000      0.000   0.000  -0.000
   19 10 3Pdyz      0.18701   0.00000      0.000   0.000  -0.000
   19 11 3Pdz2      0.01229   0.00000     -0.000  -0.000   0.000
   19 12 3Pdxz      0.09797   0.00000      0.000  -0.000  -0.000
   19 13 3Pdx2-y2   0.24296   0.00000      0.000  -0.000  -0.000
   19     Total     3.39769   0.00000      0.000   0.000  -0.000

   20  1 3s         0.67641   0.00000     -0.000   0.000   0.000
   20  2 3s         0.37653   0.00000      0.000  -0.000  -0.000
   20  3 3py        0.33330   0.00000      0.000   0.000  -0.000
   20  4 3pz        0.60728   0.00000      0.000   0.000   0.000
   20  5 3px        0.14149   0.00000      0.000  -0.000   0.000
   20  6 3py        0.28670   0.00000     -0.000   0.000   0.000
   20  7 3pz        0.16265   0.00000     -0.000  -0.000   0.000
   20  8 3px        0.49905   0.00000     -0.000   0.000  -0.000
   20  9 3Pdxy      0.09924   0.00000     -0.000   0.000  -0.000
   20 10 3Pdyz      0.13040   0.00000     -0.000   0.000  -0.000
   20 11 3Pdz2      0.00765   0.00000     -0.000   0.000  -0.000
   20 12 3Pdxz      0.02651   0.00000      0.000  -0.000  -0.000
   20 13 3Pdx2-y2   0.17579   0.00000      0.000   0.000  -0.000
   20     Total     3.52303   0.00000     -0.000   0.000   0.000

----------------------------------------------------------------
Total              88.98062   0.00000     -0.000   0.000  -0.000


Species: H                   

Atom      Orb        Charge      Spin       Svec
----------------------------------------------------------------
   12  1 1s         0.47899   0.00000     -0.000  -0.000   0.000
   12  2 1s         0.18131   0.00000      0.000   0.000   0.000
   12  3 2Ppy       0.03574   0.00000     -0.000   0.000  -0.000
   12  4 2Ppz       0.03064   0.00000      0.000   0.000   0.000
   12  5 2Ppx       0.03998   0.00000      0.000   0.000   0.000
   12     Total     0.76667   0.00000     -0.000   0.000   0.000

   13  1 1s         1.01991   0.00000      0.000  -0.000   0.000
   13  2 1s         0.09547   0.00000     -0.000  -0.000  -0.000
   13  3 2Ppy       0.01805   0.00000     -0.000  -0.000   0.000
   13  4 2Ppz       0.02007   0.00000      0.000  -0.000  -0.000
   13  5 2Ppx       0.03504   0.00000     -0.000  -0.000   0.000
   13     Total     1.18854   0.00000     -0.000  -0.000   0.000

   14  1 1s         0.48069   0.00000      0.000  -0.000   0.000
   14  2 1s         0.19681   0.00000     -0.000   0.000  -0.000
   14  3 2Ppy       0.01969   0.00000      0.000  -0.000  -0.000
   14  4 2Ppz       0.04725   0.00000     -0.000  -0.000  -0.000
   14  5 2Ppx       0.01948   0.00000      0.000   0.000  -0.000
   14     Total     0.76393   0.00000      0.000  -0.000   0.000

   15  1 1s         0.46194   0.00000      0.000  -0.000   0.000
   15  2 1s         0.17489   0.00000     -0.000   0.000   0.000
   15  3 2Ppy       0.02843   0.00000      0.000   0.000   0.000
   15  4 2Ppz       0.04041   0.00000      0.000   0.000  -0.000
   15  5 2Ppx       0.07328   0.00000     -0.000  -0.000  -0.000
   15     Total     0.77895   0.00000      0.000  -0.000   0.000

   16  1 1s         0.50836   0.00000     -0.000  -0.000  -0.000
   16  2 1s         0.18743   0.00000     -0.000   0.000  -0.000
   16  3 2Ppy       0.02976   0.00000     -0.000  -0.000  -0.000
   16  4 2Ppz       0.03947   0.00000     -0.000   0.000  -0.000
   16  5 2Ppx       0.02346   0.00000      0.000  -0.000   0.000
   16     Total     0.78848   0.00000     -0.000  -0.000  -0.000

   24  1 1s         1.06206   0.00000     -0.000  -0.000  -0.000
   24  2 1s         0.07387   0.00000      0.000   0.000   0.000
   24  3 2Ppy       0.03245   0.00000      0.000   0.000  -0.000
   24  4 2Ppz       0.03005   0.00000      0.000  -0.000  -0.000
   24  5 2Ppx       0.01745   0.00000      0.000  -0.000  -0.000
   24     Total     1.21588   0.00000     -0.000  -0.000  -0.000

   25  1 1s         1.04231   0.00000      0.000   0.000   0.000
   25  2 1s         0.08671   0.00000      0.000   0.000   0.000
   25  3 2Ppy       0.01221   0.00000     -0.000  -0.000   0.000
   25  4 2Ppz       0.01899   0.00000      0.000   0.000  -0.000
   25  5 2Ppx       0.03562   0.00000      0.000  -0.000   0.000
   25     Total     1.19584   0.00000      0.000   0.000   0.000

   26  1 1s         0.48984   0.00000      0.000  -0.000   0.000
   26  2 1s         0.19405   0.00000     -0.000   0.000  -0.000
   26  3 2Ppy       0.02331   0.00000      0.000   0.000  -0.000
   26  4 2Ppz       0.04822   0.00000     -0.000  -0.000   0.000
   26  5 2Ppx       0.01860   0.00000     -0.000   0.000  -0.000
   26     Total     0.77403   0.00000      0.000  -0.000   0.000

   27  1 1s         0.46220   0.00000      0.000   0.000   0.000
   27  2 1s         0.16811   0.00000      0.000   0.000  -0.000
   27  3 2Ppy       0.03785   0.00000     -0.000  -0.000   0.000
   27  4 2Ppz       0.03786   0.00000     -0.000  -0.000  -0.000
   27  5 2Ppx       0.07733   0.00000      0.000  -0.000  -0.000
   27     Total     0.78334   0.00000      0.000  -0.000   0.000

   29  1 1s         0.48991   0.00000      0.000   0.000  -0.000
   29  2 1s         0.18738   0.00000      0.000   0.000   0.000
   29  3 2Ppy       0.02498   0.00000      0.000   0.000  -0.000
   29  4 2Ppz       0.03501   0.00000     -0.000  -0.000   0.000
   29  5 2Ppx       0.02644   0.00000      0.000   0.000  -0.000
   29     Total     0.76372   0.00000      0.000   0.000  -0.000

----------------------------------------------------------------
Total              98.00000   0.00000     -0.000  -0.000   0.000


siesta: Eigenvalues (eV):
ik =     1
  -22.5478  -22.5478  -22.1471  -22.1471  -21.3565  -21.3565  -21.2371  -21.2371  -21.0676  -21.0676
  -20.9057  -20.9057  -20.3854  -20.3854  -19.5980  -19.5980  -19.5606  -19.5606  -19.3592  -19.3592
  -14.7991  -14.7991  -13.7879  -13.7879  -13.2756  -13.2756  -13.1058  -13.1058  -12.8940  -12.8940
  -12.7129  -12.7129  -12.5525  -12.5525  -12.1403  -12.1403  -11.8399  -11.8399  -11.7279  -11.7279
  -11.0726  -11.0726  -10.8446  -10.8446  -10.6085  -10.6085  -10.4565  -10.4565  -10.1966  -10.1966
   -9.6564   -9.6564   -9.0695   -9.0695   -8.9478   -8.9478   -8.8212   -8.8212   -8.6104   -8.6104
   -8.5551   -8.5551   -8.4282   -8.4282   -8.3170   -8.3170   -8.0009   -8.0009   -7.8717   -7.8717
   -7.6283   -7.6283   -7.3714   -7.3714   -7.1825   -7.1825   -7.0605   -7.0605   -6.8629   -6.8629
   -6.6019   -6.6019   -6.5705   -6.5705   -6.3753   -6.3753   -6.3422   -6.3422   -6.2720   -6.2720
   -6.1638   -6.1638   -5.9576   -5.9576   -5.5807   -5.5807   -4.3120   -4.3120   -3.2664   -3.2664
   -2.3590   -2.3590   -2.3505   -2.3505   -2.1876   -2.1876   -1.8740   -1.8740   -1.8670   -1.8670
   -1.8494   -1.8494   -1.6699   -1.6699   -1.6207   -1.6207   -1.2289   -1.2289   -1.2037   -1.2037
   -1.0121   -1.0121   -0.5920   -0.5920   -0.4399   -0.4399   -0.3069   -0.3069    0.3280    0.3280
    0.4713    0.4713    0.5073    0.5073    0.6415    0.6415    0.9462    0.9462    1.1173    1.1173
    1.3577    1.3577    1.3935    1.3935    1.4082    1.4082    1.5152    1.5152    1.9336    1.9336
    2.0532    2.0532    2.6336    2.6336    2.7132    2.7132    2.7340    2.7340    2.8055    2.8055
    2.8517    2.8517    2.8867    2.8867    3.1068    3.1068    3.4342    3.4342    3.5609    3.5609
    3.7709    3.7709    4.0144    4.0144    4.1431    4.1431    4.1625    4.1625    4.3116    4.3116
    4.5334    4.5334    4.5955    4.5955    4.7323    4.7323    5.0539    5.0539    5.0595    5.0595
    5.3117    5.3117    5.3171    5.3171    5.5890    5.5890    5.6681    5.6681    5.9084    5.9084
    5.9748    5.9748    6.0456    6.0456    6.3635    6.3635    6.3977    6.3977    6.5235    6.5235
    6.6152    6.6152    6.7056    6.7056    6.8319    6.8319    6.9454    6.9454    7.0408    7.0408
    7.2455    7.2455    7.6212    7.6212    7.6461    7.6461    7.7984    7.7984    8.0200    8.0200
    8.0251    8.0251    8.2319    8.2319    8.3149    8.3149    8.4538    8.4538    8.6914    8.6914
    8.7948    8.7948    8.8134    8.8134    8.9954    8.9954    9.0661    9.0661    9.3980    9.3980
    9.4833    9.4833    9.8466    9.8466    9.9178    9.9178    9.9305    9.9305   10.0610   10.0610
   10.2443   10.2443   10.5233   10.5233   10.7276   10.7276   11.1500   11.1500   11.2662   11.2662
   11.3002   11.3002   11.6301   11.6301   12.1932   12.1932   12.2887   12.2887   12.3198   12.3198
   12.4441   12.4441   12.5443   12.5443   12.5518   12.5518   12.7190   12.7190   13.1066   13.1066
   13.4729   13.4729   13.4829   13.4829   13.5687   13.5687   13.8064   13.8064   13.9575   13.9575
   14.1672   14.1672   14.3503   14.3503   14.6755   14.6755   14.8152   14.8152   15.0177   15.0177
   15.3407   15.3407   15.9219   15.9219   16.3870   16.3870   16.6306   16.6306   16.7989   16.7989
   17.1888   17.1888   17.5919   17.5919   17.9738   17.9738   18.5676   18.5676   18.9130   18.9130
   19.1674   19.1674   19.9686   19.9686   20.2051   20.2051   20.4673   20.4673   20.5693   20.5693
   21.1567   21.1567   21.9481   21.9481   22.2087   22.2087   22.6056   22.6056   23.3723   23.3723
   23.6648   23.6648   23.8411   23.8411   24.1290   24.1290   24.4730   24.4730   25.1651   25.1651
   25.5279   25.5279   25.8323   25.8323   26.3336   26.3336   27.6424   27.6424   28.7450   28.7450
   29.3603   29.3603   29.7222   29.7222   29.9106   29.9106   30.2827   30.2827   30.5417   30.5417
   30.7247   30.7247   30.9810   30.9810   31.0308   31.0308   31.3796   31.3796   31.5977   31.5977
   31.8821   31.8821   32.2976   32.2976   33.4878   33.4878   33.8664   33.8664   34.0687   34.0687
   34.6972   34.6972   35.2125   35.2125   35.3340   35.3340   35.5280   35.5280   35.9746   35.9746
   36.2224   36.2224   36.4409   36.4409   36.8103   36.8103   37.0677   37.0677   38.1216   38.1216
   38.5453   38.5453   38.8448   38.8448   39.3205   39.3205   39.4602   39.4602   39.8521   39.8521
   39.9634   39.9634   40.1337   40.1337   40.9467   40.9467   41.1448   41.1448   41.4416   41.4416
   41.8377   41.8377   42.2838   42.2838   42.2985   42.2985   42.7396   42.7396   43.1198   43.1198
   43.3341   43.3341   43.8429   43.8429   43.9596   43.9596   44.3773   44.3773   44.5259   44.5259
   44.9171   44.9171   45.1155   45.1155   45.1886   45.1886   45.7318   45.7318   45.8658   45.8658
   46.4706   46.4706   46.8539   46.8539   47.5351   47.5351   47.6386   47.6386   49.1128   49.1128
   49.1732   49.1732   50.0663   50.0663   50.1431   50.1431   50.3121   50.3121   50.4763   50.4763
   50.7000   50.7000   51.3122   51.3122   52.0251   52.0251   52.5995   52.5995   53.4981   53.4981
   53.8792   53.8792   53.8891   53.8891   55.0618   55.0618   55.6446   55.6446   55.9213   55.9213
   55.9696   55.9696   56.4273   56.4273   57.2955   57.2955   58.2181   58.2181   58.2493   58.2493
   59.4032   59.4032   59.6570   59.6570   60.1774   60.1774   60.2557   60.2557   61.2646   61.2646
   61.8845   61.8845   62.0681   62.0681   62.6535   62.6535   62.8599   62.8599   65.8732   65.8732
   66.3610   66.3610   67.4794   67.4794   67.5368   67.5368   67.7215   67.7215   68.2009   68.2009
   68.6180   68.6180   70.0337   70.0337   71.0095   71.0095   75.2600   75.2600   82.3819   82.3819
   82.9908   82.9908   87.5310   87.5310   92.6279   92.6279   93.3608   93.3608   94.4216   94.4216
   99.1392   99.1392   99.8987   99.8987  102.1684  102.1684  103.9633  103.9633  105.2097  105.2097
  114.4012  114.4012  116.6257  116.6257  124.6302  124.6302  127.2885  127.2885  137.2202  137.2202
  143.1580  143.1580  145.7713  145.7713
siesta: Fermi energy =      -3.789400 eV

siesta: Program's energy decomposition (eV):
siesta: Ebs     =     -1133.479560
siesta: Eions   =      3585.165840
siesta: Ena     =       381.673211
siesta: Ekin    =      2906.599125
siesta: Enl     =     -2791.433612
siesta: Eso     =        -0.004308
siesta: Edftu   =         0.000000
siesta: DEna    =        47.909883
siesta: DUscf   =        13.724420
siesta: DUext   =         0.000000
siesta: Exc     =     -1121.089225
siesta: eta*DQ  =         0.000000
siesta: Emadel  =         0.000000
siesta: Emeta   =         0.000000
siesta: Emolmec =         0.000000
siesta: Ekinion =         0.000000
siesta: Eharris =     -4147.786344
siesta: Etot    =     -4147.786344
siesta: FreeEng =     -4147.786344

siesta: Final energy (eV):
siesta:  Band Struct. =   -1133.479560
siesta:       Kinetic =    2906.599125
siesta:       Hartree =    8932.847336
siesta:       Edftu   =       0.000000
siesta:       Eso     =      -0.004308
siesta:    Ext. field =       0.000000
siesta:   Exch.-corr. =   -1121.089225
siesta:  Ion-electron =  -20450.335155
siesta:       Ion-ion =    5584.195883
siesta:       Ekinion =       0.000000
siesta:         Total =   -4147.786344
siesta:         Fermi =      -3.789400

siesta: Atomic forces (eV/Ang):
siesta:      1    3.006853    2.085248   -0.000000
siesta:      2   -0.029275    0.031583    0.000000
siesta:      3    0.251464   -0.046183   -0.000000
siesta:      4    0.188297    0.009540   -0.000000
siesta:      5    0.001699   -0.006323   -0.000000
siesta:      6    0.727261    0.370279    0.000000
siesta:      7    0.010820   -0.063116   -0.000000
siesta:      8   -0.096473    0.071909    0.000000
siesta:      9   -0.004219    0.339577   -0.000000
siesta:     10   -0.213778    0.122027    0.000000
siesta:     11   -0.008517   -0.004919   -0.000000
siesta:     12    0.027609   -0.152773    0.000000
siesta:     13    0.028387   -0.083713    0.000000
siesta:     14    0.069608   -0.096894   -0.000000
siesta:     15   -0.358458   -0.228291   -0.000000
siesta:     16   -0.061853    0.149101   -0.000000
siesta:     17    0.204728   -0.320073   -0.000000
siesta:     18   -0.056687    0.052450    0.000000
siesta:     19   -0.090380   -0.283801   -0.000000
siesta:     20   -0.012822   -0.108148   -0.000000
siesta:     21   -0.098279    0.208925   -0.000000
siesta:     22   -0.921344   -0.524969   -0.000000
siesta:     23    0.044793    0.101787    0.000000
siesta:     24    0.066614   -0.034959    0.000000
siesta:     25    0.059069   -0.126306   -0.000000
siesta:     26   -0.059865   -0.094120    0.000000
siesta:     27    0.423418    0.419188    0.000000
siesta:     28   -0.097323    3.033636    0.000000
siesta:     29   -0.119711    0.181995    0.000000
siesta: ----------------------------------------
siesta:    Tot    2.881637    5.002657    0.000000

siesta: Stress tensor (static) (eV/Ang**3):
siesta:     0.000222    0.000618    0.000000
siesta:     0.000618    0.001022    0.000000
siesta:     0.000000   -0.000000   -0.000048

siesta: Cell volume =       4466.748061 Ang**3

siesta: Pressure (static):
siesta:                Solid            Molecule  Units
siesta:          -0.00000434          0.00000350  Ry/Bohr**3
siesta:          -0.00039834          0.00032142  eV/Ang**3
siesta:          -0.63821790          0.51497967  kBar
(Free)E+ p_basis*V_orbitals  =       -4127.935927
(Free)Eharris+ p_basis*V_orbitals  =       -4127.935927
     spin moment: S , {S} =    0.00000  -0.00000  -0.00000   0.00000

siesta: Electric dipole (a.u.)  =    1.655403    0.164219   -0.000000
siesta: Electric dipole (Debye) =    4.207617    0.417404   -0.000000

cite: Please see "GC.bib" for an exhaustive BiBTeX file.
cite: Please clearly indicate Siesta version in published work: v4.1.5-1-g384057250
cite: This calculation has made use of the following articles
cite: which are encouraged to be cited in a published work.
        Primary SIESTA paper
          DOI: www.doi.org/10.1088/0953-8984/14/11/302
        Spin-orbit coupling (on-site approximation)
          DOI: www.doi.org/10.1088/0953-8984/19/19/489001


WARNING: alloc-realloc-dealloc name mismatch
         Name: atomlist isa
         Size:              -116. Bytes
         Node:     0
         Subsequent mismatches will not be reported
>> End of run:  28-JUN-2023  18:37:59
Job completed
